 DBCSR| CPU Multiplication driver                                           XSMM
 DBCSR| Multrec recursion limit                                              512
 DBCSR| Multiplication stack size                                           1000
 DBCSR| Maximum elements for images                                    UNLIMITED
 DBCSR| Multiplicative factor virtual images                                   1
 DBCSR| Use multiplication densification                                       T
 DBCSR| Multiplication size stacks                                             3


  **** **** ******  **  PROGRAM STARTED AT               2020-05-20 23:20:54.016
 ***** ** ***  *** **   PROGRAM STARTED ON                               gnode39
 **    ****   ******    PROGRAM STARTED BY                           mayank.modi
 ***** **    ** ** **   PROGRAM PROCESS ID                                 21058
  **** **  *******  **  PROGRAM STARTED IN /home/mayank.modi/ab-initio-thermodyn
                                           amics-of-water/mayank/cp2k_energy_cal
                                           culations

 CP2K| version string:                                          CP2K version 7.1
 CP2K| source code revision number:                                  git:e635599
 CP2K| cp2kflags: omp libint fftw3 libxc xsmm spglib                            
 CP2K| is freely available from                            https://www.cp2k.org/
 CP2K| Program compiled at                          Mon Dec 23 19:23:12 CET 2019
 CP2K| Program compiled on                                                pc9404
 CP2K| Program compiled for                                Linux-x86-64-gfortran
 CP2K| Data directory path                                        /opt/cp2k/data
 CP2K| Input file name                                              ./input29.in

 GLOBAL| Force Environment number                                              1
 GLOBAL| Basis set file name                                           BASIS_SET
 GLOBAL| Potential file name                                      GTH_POTENTIALS
 GLOBAL| MM Potential file name                                     MM_POTENTIAL
 GLOBAL| Coordinate file name                                      __STD_INPUT__
 GLOBAL| Method name                                                        CP2K
 GLOBAL| Project name                                                   H2O_bulk
 GLOBAL| Preferred FFT library                                             FFTW3
 GLOBAL| Preferred diagonalization lib.                                       SL
 GLOBAL| Run type                                                   ENERGY_FORCE
 GLOBAL| All-to-all communication in single precision                          F
 GLOBAL| FFTs using library dependent lengths                                  F
 GLOBAL| Global print level                                                  LOW
 GLOBAL| MPI I/O enabled                                                       T
 GLOBAL| Total number of message passing processes                             1
 GLOBAL| Number of threads for this process                                   20
 GLOBAL| This output is from process                                           0
 GLOBAL| CPU model name                Intel(R) Xeon(R) CPU E5-2640 v4 @ 2.40GHz
 GLOBAL| CPUID                                                              1002
 GLOBAL| Compiled for CPUID                                                    0

 MEMORY| system memory details [Kb]
 MEMORY|                        rank 0           min           max       average
 MEMORY| MemTotal            131898148     131898148     131898148     131898148
 MEMORY| MemFree              87862624      87862624      87862624      87862624
 MEMORY| Buffers               3186844       3186844       3186844       3186844
 MEMORY| Cached               34935872      34935872      34935872      34935872
 MEMORY| Slab                  3923972       3923972       3923972       3923972
 MEMORY| SReclaimable          3258116       3258116       3258116       3258116
 MEMORY| MemLikelyFree       129243456     129243456     129243456     129243456


 GENERATE|  Preliminary Number of Bonds generated:                             0
 GENERATE|  Achieved consistency in connectivity generation.

 *******************************************************************************
 *******************************************************************************
 **                                                                           **
 **     #####                         ##              ##                      **
 **    ##   ##            ##          ##              ##                      **
 **   ##     ##                       ##            ######                    **
 **   ##     ##  ##   ##  ##   #####  ##  ##   ####   ##    #####    #####    **
 **   ##     ##  ##   ##  ##  ##      ## ##   ##      ##   ##   ##  ##   ##   **
 **   ##  ## ##  ##   ##  ##  ##      ####     ###    ##   ######   ######    **
 **    ##  ###   ##   ##  ##  ##      ## ##      ##   ##   ##       ##        **
 **     #######   #####   ##   #####  ##  ##  ####    ##    #####   ##        **
 **           ##                                                    ##        **
 **                                                                           **
 **                                                ... make the atoms dance   **
 **                                                                           **
 **            Copyright (C) by CP2K developers group (2000 - 2019)           **
 **                                                                           **
 *******************************************************************************


 TOTAL NUMBERS AND MAXIMUM NUMBERS

  Total number of            - Atomic kinds:                                   2
                             - Atoms:                                        192
                             - Shell sets:                                   384
                             - Shells:                                       704
                             - Primitive Cartesian functions:                960
                             - Cartesian basis functions:                   1536
                             - Spherical basis functions:                   1472

  Maximum angular momentum of- Orbital basis functions:                        2
                             - Local part of the GTH pseudopotential:          2
                             - Non-local part of the GTH pseudopotential:      0


 SCF PARAMETERS         Density guess:                                    ATOMIC
                        --------------------------------------------------------
                        max_scf:                                             300
                        max_scf_history:                                       0
                        max_diis:                                              4
                        --------------------------------------------------------
                        eps_scf:                                        1.00E-07
                        eps_scf_history:                                0.00E+00
                        eps_diis:                                       1.00E-01
                        eps_eigval:                                     1.00E-05
                        --------------------------------------------------------
                        level_shift [a.u.]:                                 0.00
                        --------------------------------------------------------
                        Mixing method:                            BROYDEN_MIXING
                                                charge density mixing in g-space
                        --------------------------------------------------------
                        No outer SCF

 Number of electrons:                                                        512
 Number of occupied orbitals:                                                256
 Number of molecular orbitals:                                               256

 Number of orbital functions:                                               1472
 Number of independent orbital functions:                                   1472

 Extrapolation method: initial_guess


 SCF WAVEFUNCTION OPTIMIZATION

  Step     Update method      Time    Convergence         Total energy    Change
  ------------------------------------------------------------------------------
     1 NoMix/Diag. 0.40E+00   10.3     0.99476162     -1087.2348914680 -1.09E+03
     2 Broy./Diag. 0.40E+00   15.5     0.29400638     -1013.1484918582  7.41E+01
     3 Broy./Diag. 0.40E+00   17.3     0.02508515     -1094.9706495995 -8.18E+01
     4 Broy./Diag. 0.40E+00   18.4     0.02493322     -1094.4186884300  5.52E-01
     5 Broy./Diag. 0.40E+00   19.1     0.00258505     -1095.2985764416 -8.80E-01
     6 Broy./Diag. 0.40E+00   19.5     0.00417012     -1095.3185682327 -2.00E-02
     7 Broy./Diag. 0.40E+00   19.4     0.00222824     -1095.4551486890 -1.37E-01
     8 Broy./Diag. 0.40E+00   20.8     0.00356371     -1095.5643380820 -1.09E-01
     9 Broy./Diag. 0.40E+00   21.2     0.00302146     -1095.6437663598 -7.94E-02
    10 Broy./Diag. 0.40E+00   23.2     0.00187063     -1095.6670776668 -2.33E-02
    11 Broy./Diag. 0.40E+00   24.7     0.00145949     -1095.6443056107  2.28E-02
    12 Broy./Diag. 0.40E+00   24.5     0.00055866     -1095.6520384831 -7.73E-03
    13 Broy./Diag. 0.40E+00   22.3     0.00055346     -1095.6717853034 -1.97E-02
    14 Broy./Diag. 0.40E+00   22.4     0.00025298     -1095.6753024744 -3.52E-03
    15 Broy./Diag. 0.40E+00   20.8     0.00032366     -1095.6672556408  8.05E-03
    16 Broy./Diag. 0.40E+00   22.5     0.00012071     -1095.6666270267  6.29E-04
    17 Broy./Diag. 0.40E+00   20.8     0.00007523     -1095.6684568744 -1.83E-03
    18 Broy./Diag. 0.40E+00   22.5     0.00003689     -1095.6698510556 -1.39E-03
    19 Broy./Diag. 0.40E+00   25.5     0.00002019     -1095.6696289343  2.22E-04
    20 Broy./Diag. 0.40E+00   24.2     0.00001807     -1095.6685964557  1.03E-03
    21 Broy./Diag. 0.40E+00   22.7     0.00000808     -1095.6684725609  1.24E-04
    22 Broy./Diag. 0.40E+00   21.7     0.00000377     -1095.6685931118 -1.21E-04
    23 Broy./Diag. 0.40E+00   22.0     0.00000730     -1095.6686224699 -2.94E-05
    24 Broy./Diag. 0.40E+00   21.1     0.00000213     -1095.6685645685  5.79E-05
    25 Broy./Diag. 0.40E+00   22.4     0.00000273     -1095.6684783190  8.62E-05
    26 Broy./Diag. 0.40E+00   21.1     0.00000114     -1095.6685361514 -5.78E-05
    27 Broy./Diag. 0.40E+00   22.8     0.00000085     -1095.6685634031 -2.73E-05
    28 Broy./Diag. 0.40E+00   21.5     0.00000068     -1095.6685614328  1.97E-06
    29 Broy./Diag. 0.40E+00   21.9     0.00000028     -1095.6685511080  1.03E-05
    30 Broy./Diag. 0.40E+00   22.1     0.00000025     -1095.6685442366  6.87E-06
    31 Broy./Diag. 0.40E+00   22.1     0.00000015     -1095.6685477424 -3.51E-06
    32 Broy./Diag. 0.40E+00   22.0     0.00000009     -1095.6685512530 -3.51E-06

  *** SCF run converged in    32 steps ***


  Electronic density on regular grids:       -512.0005220067       -0.0005220067
  Core density on regular grids:              511.9999727401       -0.0000272599
  Total charge density on r-space grids:       -0.0005492667
  Total charge density g-space grids:          -0.0005492667

  Overlap energy of the core charge distribution:               0.00000537734311
  Self energy of the core charge distribution:              -2838.21791979120962
  Core Hamiltonian energy:                                    821.48511215624887
  Hartree energy:                                            1185.80652030703936
  Exchange-correlation energy:                               -264.74226930240411

  Total energy:                                             -1095.66855125298230

 ENERGY| Total FORCE_EVAL ( QS ) energy (a.u.):            -1095.668551918452522


 ATOMIC FORCES in [a.u.]

 # Atom   Kind   Element          X              Y              Z
      1      1      O           0.05060683    -0.00008625     0.10042537
      2      2      H          -0.05979564    -0.05930499     0.01084397
      3      2      H          -0.00843959     0.02331343    -0.00569625
      4      1      O           0.01097433     0.05503709    -0.01315460
      5      2      H          -0.00528183     0.03696755    -0.06454415
      6      2      H          -0.00820357     0.00850095    -0.03670274
      7      1      O          -0.00409810    -0.03972860    -0.03931610
      8      2      H           0.00504674     0.04478851    -0.03277366
      9      2      H          -0.02105631    -0.00734914    -0.05750699
     10      1      O          -0.03802471     0.06490449     0.04614296
     11      2      H           0.00075768     0.01932567     0.02552541
     12      2      H           0.03338973     0.03395587     0.02260744
     13      1      O          -0.03976688    -0.04584718     0.07994193
     14      2      H           0.08074180    -0.01127396     0.06985468
     15      2      H          -0.03566942     0.11394704    -0.09575052
     16      1      O          -0.00492431    -0.00075202     0.07228306
     17      2      H           0.00431026    -0.02346011    -0.04849197
     18      2      H          -0.02337136    -0.03685817     0.02786908
     19      1      O          -0.02576545     0.10399502     0.09617102
     20      2      H          -0.02638386     0.01287475     0.01140832
     21      2      H           0.04698704    -0.04090708    -0.02313336
     22      1      O          -0.00152496    -0.00800795    -0.08391667
     23      2      H           0.01415097     0.05861378     0.04279230
     24      2      H          -0.00296497     0.00969999     0.02857435
     25      1      O           0.00090323    -0.03238358    -0.01730265
     26      2      H          -0.00602573     0.01583359     0.00610186
     27      2      H           0.01222793     0.03068480     0.00539691
     28      1      O           0.04224441    -0.01665337     0.04705012
     29      2      H          -0.01744408    -0.01409653    -0.00515061
     30      2      H          -0.02677422    -0.00341898     0.00580393
     31      1      O          -0.05333405     0.01768834     0.14256212
     32      2      H           0.04209732    -0.04401172     0.01236598
     33      2      H          -0.00346404    -0.02773667    -0.03087511
     34      1      O           0.04758649    -0.01710947     0.09308082
     35      2      H          -0.00610019    -0.00824687    -0.00629958
     36      2      H          -0.00245683     0.01100748     0.02001146
     37      1      O          -0.00162854     0.04521534     0.05136304
     38      2      H           0.00735082    -0.01213049     0.00170566
     39      2      H          -0.03739750     0.03770428     0.00256353
     40      1      O           0.05034267    -0.00043087     0.08986038
     41      2      H          -0.02693043    -0.01750331    -0.07781891
     42      2      H          -0.02358542    -0.01612059     0.03086855
     43      1      O          -0.05446101    -0.09932247     0.06190865
     44      2      H           0.04638061     0.02781665     0.00520642
     45      2      H          -0.01988164     0.00091251    -0.00788256
     46      1      O          -0.01315930     0.04879690    -0.06045273
     47      2      H          -0.00312724     0.01240747     0.02779491
     48      2      H           0.01746769     0.01308858    -0.01887132
     49      1      O          -0.00899179     0.08336130     0.14397406
     50      2      H          -0.02526309     0.01734040    -0.01382079
     51      2      H           0.03061331    -0.01887585    -0.06074274
     52      1      O          -0.00375906    -0.07122325    -0.05576447
     53      2      H          -0.00157295     0.00383125    -0.03605183
     54      2      H          -0.01878432    -0.00916497    -0.00587894
     55      1      O           0.00750515    -0.06137459    -0.06734343
     56      2      H           0.00227863     0.05060159    -0.02861674
     57      2      H          -0.04565236     0.00821123     0.01425753
     58      1      O           0.03722796     0.10447975     0.15830825
     59      2      H           0.00226057    -0.03539233     0.05894904
     60      2      H          -0.05463575     0.00477771    -0.05688152
     61      1      O          -0.01333467     0.10356685     0.08961715
     62      2      H          -0.02656741    -0.03858221    -0.02317458
     63      2      H           0.00031943    -0.04870099     0.04793163
     64      1      O           0.00521112    -0.04604886     0.09711840
     65      2      H           0.00254474    -0.02564804    -0.02714565
     66      2      H          -0.01986573     0.04340423     0.03787565
     67      1      O          -0.03429175     0.00866077     0.06549415
     68      2      H           0.01965195     0.00244554    -0.05105288
     69      2      H           0.02673808     0.01089532     0.01962147
     70      1      O           0.07083011    -0.11429734     0.09693153
     71      2      H          -0.04648699     0.03388368    -0.03430499
     72      2      H           0.01218115     0.00965286     0.01768729
     73      1      O          -0.04957562    -0.02963172     0.06067939
     74      2      H           0.01598644    -0.00806860     0.01970192
     75      2      H           0.01517966    -0.02186407     0.01720653
     76      1      O          -0.06109414     0.05048211     0.13790100
     77      2      H           0.01494706     0.00163950    -0.00247929
     78      2      H           0.02776056    -0.02289555     0.00668838
     79      1      O           0.01147265     0.01441940    -0.04492444
     80      2      H          -0.00853541    -0.00141152     0.01111595
     81      2      H          -0.00078431    -0.01137523    -0.00082977
     82      1      O          -0.05590920     0.10688647    -0.06775948
     83      2      H          -0.04289338    -0.07551476     0.03270076
     84      2      H           0.06339151    -0.00614911     0.04699953
     85      1      O          -0.09242186    -0.05050372     0.08638108
     86      2      H           0.06961266     0.07232013    -0.01170055
     87      2      H          -0.01269378    -0.00941939    -0.01312842
     88      1      O          -0.05539815    -0.03270527     0.06344665
     89      2      H          -0.00968472    -0.06221922    -0.02894258
     90      2      H           0.04516856     0.04014284     0.01218111
     91      1      O           0.00053248     0.10320969    -0.11098221
     92      2      H          -0.01907397    -0.02345679     0.04107205
     93      2      H          -0.00725599    -0.01389848    -0.04443672
     94      1      O          -0.02720843     0.08197318    -0.06212625
     95      2      H           0.04088185    -0.03645536     0.02240099
     96      2      H          -0.02134948    -0.02229787     0.00038028
     97      1      O           0.00521971    -0.03919663    -0.08513250
     98      2      H           0.00865235     0.04255746     0.00025507
     99      2      H           0.00376564     0.02393446     0.03191292
    100      1      O          -0.02271991     0.02006431     0.05062617
    101      2      H           0.03111872     0.01969887     0.02693356
    102      2      H          -0.02933261    -0.00532433     0.00104438
    103      1      O           0.01656955    -0.09838897     0.07524174
    104      2      H          -0.01195709    -0.01437125     0.03837962
    105      2      H           0.00301938     0.01671079     0.01577719
    106      1      O           0.00366565    -0.00172408     0.07847911
    107      2      H           0.02938871     0.01582585    -0.07833498
    108      2      H           0.02015031    -0.07680394     0.05241891
    109      1      O          -0.09800903    -0.05354374    -0.05717967
    110      2      H           0.07894570     0.04174437    -0.01407313
    111      2      H          -0.01188689    -0.01918312    -0.03333019
    112      1      O          -0.00523829     0.07689431    -0.06327589
    113      2      H           0.01169650     0.02392581    -0.02459907
    114      2      H           0.04130049     0.01462083    -0.02910450
    115      1      O           0.01147278    -0.01380248     0.10334744
    116      2      H          -0.03262851    -0.00122071     0.01950444
    117      2      H           0.01118877     0.01429651     0.03559497
    118      1      O          -0.05026117    -0.02709307     0.00327590
    119      2      H           0.00580183    -0.03921847     0.03073872
    120      2      H           0.01441632    -0.00582916     0.02620979
    121      1      O           0.04015709    -0.00332681    -0.08902786
    122      2      H           0.01398867    -0.08779090    -0.03564621
    123      2      H          -0.01026742     0.04011312     0.01885625
    124      1      O           0.02044648     0.02281114    -0.12179910
    125      2      H          -0.03572458     0.04081880    -0.01146995
    126      2      H          -0.01028202     0.00702060    -0.00003622
    127      1      O           0.00507633    -0.08305736     0.02584657
    128      2      H          -0.03335247     0.01384924     0.01882621
    129      2      H           0.00326428     0.00631085     0.04941233
    130      1      O           0.01707632    -0.01599076    -0.02650304
    131      2      H          -0.00889520    -0.01475617    -0.02672947
    132      2      H           0.01790895    -0.02167515     0.02490751
    133      1      O          -0.00480784    -0.06781968    -0.07542241
    134      2      H           0.01510798     0.00518800     0.02820031
    135      2      H           0.00703570     0.01179293     0.01420580
    136      1      O          -0.05254655     0.03935907     0.07818214
    137      2      H           0.01632363     0.02115140    -0.01837116
    138      2      H           0.01102506    -0.01414234    -0.00013873
    139      1      O           0.05857364     0.10146606    -0.06686591
    140      2      H          -0.01179224    -0.03155342     0.06144103
    141      2      H          -0.01570907    -0.00456526    -0.01845495
    142      1      O           0.05707317    -0.03360645     0.05832914
    143      2      H           0.01807317    -0.01348048    -0.02977684
    144      2      H          -0.05437222    -0.01581988    -0.03270654
    145      1      O          -0.12999664     0.12132307    -0.06504455
    146      2      H           0.07642405    -0.06637499    -0.08072535
    147      2      H           0.03053390    -0.02221734     0.06249612
    148      1      O          -0.06296009    -0.02098554     0.04193427
    149      2      H           0.02517334    -0.00344261     0.00861604
    150      2      H           0.04377272    -0.01117035    -0.04509931
    151      1      O           0.06656225    -0.01833290     0.04463017
    152      2      H          -0.01058971    -0.02378864    -0.05015014
    153      2      H           0.00047732    -0.00596983     0.06438102
    154      1      O           0.00914107     0.00000308     0.11268073
    155      2      H          -0.00309150     0.01577635     0.00081564
    156      2      H          -0.00078195    -0.00953202    -0.01942145
    157      1      O           0.03278853     0.03636378    -0.07039277
    158      2      H          -0.00745121    -0.00012330     0.04414067
    159      2      H          -0.00071560     0.02233314     0.00416479
    160      1      O           0.01768480    -0.06029546     0.01161326
    161      2      H           0.01585596     0.00841554    -0.00781845
    162      2      H          -0.04430592    -0.01312670    -0.02788497
    163      1      O           0.02561155    -0.07235119     0.04876403
    164      2      H          -0.00378793     0.05494655    -0.08376868
    165      2      H           0.01191266     0.01924290     0.03084185
    166      1      O          -0.05247232    -0.02927599    -0.10885630
    167      2      H           0.03077933     0.02224263    -0.02589958
    168      2      H           0.00372095    -0.02944280     0.00875262
    169      1      O           0.01402725     0.05321561    -0.05850257
    170      2      H          -0.00316981     0.02792880     0.02671159
    171      2      H           0.00133837    -0.01539865    -0.01724918
    172      1      O          -0.03060408    -0.00381158     0.16127666
    173      2      H           0.02525342    -0.00452809    -0.01381379
    174      2      H           0.03357537     0.03222344    -0.03289653
    175      1      O          -0.01881942    -0.07664808    -0.06231554
    176      2      H          -0.02567994    -0.04343537     0.00574031
    177      2      H           0.02604939     0.01718158    -0.02853462
    178      1      O          -0.04255677    -0.03105808     0.03841405
    179      2      H          -0.01602864    -0.01361606    -0.04511489
    180      2      H           0.06231190    -0.00787656     0.03582442
    181      1      O          -0.07619107    -0.02922726    -0.09061112
    182      2      H           0.00959399    -0.00870293    -0.02781296
    183      2      H           0.04483770    -0.04079471    -0.02641355
    184      1      O          -0.07406552     0.05442346     0.10778412
    185      2      H           0.05076963     0.07305151     0.01465497
    186      2      H           0.02167470    -0.07569618    -0.05799750
    187      1      O           0.04364173    -0.08729626    -0.02059490
    188      2      H          -0.02601989    -0.01693318    -0.04028454
    189      2      H          -0.01202985     0.00473265     0.04352741
    190      1      O          -0.02833262    -0.04816502     0.11906116
    191      2      H          -0.00748200    -0.00911628    -0.03943448
    192      2      H          -0.00767304     0.01341640     0.00046659
 SUM OF ATOMIC FORCES          -0.19183718    -0.18169288     0.99160092     1.02619988

 -------------------------------------------------------------------------------
 -                                                                             -
 -                                DBCSR STATISTICS                             -
 -                                                                             -
 -------------------------------------------------------------------------------
 COUNTER                                    TOTAL       BLAS       SMM       ACC
 flops     5 x     5 x   256            873945600       0.0%    100.0%      0.0%
 flops    13 x     5 x   256           1100436480       0.0%    100.0%      0.0%
 flops     5 x    13 x   256           1105927680       0.0%    100.0%      0.0%
 flops    13 x    13 x   256           1541928960       0.0%    100.0%      0.0%
 flops inhomo. stacks                           0       0.0%      0.0%      0.0%
 flops total                         4.622239E+09       0.0%    100.0%      0.0%
 flops max/rank                      4.622239E+09       0.0%    100.0%      0.0%
 matmuls inhomo. stacks                         0       0.0%      0.0%      0.0%
 matmuls total                             152394       0.0%    100.0%      0.0%
 number of processed stacks                  2574       0.0%    100.0%      0.0%
 average stack size                                     0.0      59.2       0.0
 marketing flops                    36.609982E+09
 -------------------------------------------------------------------------------
 # multiplications                             33
 max memory usage/rank              25.807671E+09
 # max total images/rank                        1
 # max 3D layers                                1
 # MPI messages exchanged                       0
 MPI messages size (bytes):
  total size                         0.000000E+00
  min size                           0.000000E+00
  max size                           0.000000E+00
  average size                       0.000000E+00
 MPI breakdown and total messages size (bytes):
             size <=      128                   0                        0
       128 < size <=     8192                   0                        0
      8192 < size <=    32768                   0                        0
     32768 < size <=   131072                   0                        0
    131072 < size <=  4194304                   0                        0
   4194304 < size <= 16777216                   0                        0
  16777216 < size                               0                        0
 -------------------------------------------------------------------------------

 MEMORY| Estimated peak process memory [MiB]                               24614

 -------------------------------------------------------------------------------
 -                                                                             -
 -                           R E F E R E N C E S                               -
 -                                                                             -
 -------------------------------------------------------------------------------
 
 CP2K version 7.1, the CP2K developers group (2019).
 CP2K is freely available from https://www.cp2k.org/ .

 Schuett, Ole; Messmer, Peter; Hutter, Juerg; VandeVondele, Joost. 
 Electronic Structure Calculations on Graphics Processing Units, John
 Wiley & Sons, Ltd, 173-190 (2016). 
 GPU-Accelerated Sparse Matrix-Matrix Multiplication for
 Linear Scaling Density Functional Theory.
 https://dx.doi.org/10.1002/9781118670712.ch8

 Borstnik, U; VandeVondele, J; Weber, V; Hutter, J. 
 PARALLEL COMPUTING, 40 (5-6), 47-58 (2014). 
 Sparse matrix multiplication: The distributed block-compressed sparse
 row library.
 https://dx.doi.org/10.1016/j.parco.2014.03.012

 Hutter, J; Iannuzzi, M; Schiffmann, F; VandeVondele, J. 
 WIREs Comput Mol Sci., 4 (1), 15-25 (2014). 
 CP2K: atomistic simulations of condensed matter systems.
 https://dx.doi.org/10.1002/wcms.1159

 Krack, M. 
 THEORETICAL CHEMISTRY ACCOUNTS, 114 (1-3), 145-152 (2005). 
 Pseudopotentials for H to Kr optimized for gradient-corrected
 exchange-correlation functionals.
 https://dx.doi.org/10.1007/s00214-005-0655-y

 VandeVondele, J; Krack, M; Mohamed, F; Parrinello, M; Chassaing, T;
 Hutter, J. COMPUTER PHYSICS COMMUNICATIONS, 167 (2), 103-128 (2005). 
 QUICKSTEP: Fast and accurate density functional calculations using a
 mixed Gaussian and plane waves approach.
 https://dx.doi.org/10.1016/j.cpc.2004.12.014

 Frigo, M; Johnson, SG. 
 PROCEEDINGS OF THE IEEE, 93 (2), 216-231 (2005). 
 The design and implementation of FFTW3.
 https://dx.doi.org/10.1109/JPROC.2004.840301

 Hartwigsen, C; Goedecker, S; Hutter, J. 
 PHYSICAL REVIEW B, 58 (7), 3641-3662 (1998). 
 Relativistic separable dual-space Gaussian pseudopotentials from H to Rn.
 https://dx.doi.org/10.1103/PhysRevB.58.3641

 Lippert, G; Hutter, J; Parrinello, M. 
 MOLECULAR PHYSICS, 92 (3), 477-487 (1997). 
 A hybrid Gaussian and plane wave density functional scheme.
 https://dx.doi.org/10.1080/002689797170220

 Goedecker, S; Teter, M; Hutter, J. 
 PHYSICAL REVIEW B, 54 (3), 1703-1710 (1996). 
 Separable dual-space Gaussian pseudopotentials.
 https://dx.doi.org/10.1103/PhysRevB.54.1703


 -------------------------------------------------------------------------------
 -                                                                             -
 -                                T I M I N G                                  -
 -                                                                             -
 -------------------------------------------------------------------------------
 SUBROUTINE                       CALLS  ASD         SELF TIME        TOTAL TIME
                                MAXIMUM       AVERAGE  MAXIMUM  AVERAGE  MAXIMUM
 CP2K                                 1  1.0    0.647    0.647  707.827  707.827
 qs_forces                            1  2.0    0.000    0.000  696.373  696.373
 qs_energies                          1  3.0    0.000    0.000  692.737  692.737
 scf_env_do_scf                       1  4.0    0.000    0.000  680.891  680.891
 scf_env_do_scf_inner_loop           32  5.0    0.004    0.004  680.891  680.891
 gspace_mixing                       31  6.0    4.356    4.356  261.433  261.433
 broyden_mixing                      31  7.0  231.684  231.684  231.684  231.684
 qs_scf_new_mos                      32  6.0    0.001    0.001  202.655  202.655
 eigensolver                         32  7.0    0.003    0.003  199.584  199.584
 cp_fm_syevd                         32  8.0  136.457  136.457  136.585  136.585
 pw_transfer                        428  9.9    0.037    0.037  131.142  131.142
 fft_wrap_pw1pw2                    362 10.9    0.004    0.004  128.525  128.525
 rebuild_ks_matrix                   33  6.9    0.000    0.000  124.093  124.093
 qs_ks_build_kohn_sham_matrix        33  7.9    0.007    0.007  124.093  124.093
 qs_ks_update_qs_env                 32  6.0    0.000    0.000  120.622  120.622
 fft_wrap_pw1pw2_70                 164 11.2    9.934    9.934  118.933  118.933
 qs_rho_update_rho                   33  6.0    0.000    0.000   98.965   98.965
 calculate_rho_elec                  33  7.0   36.586   36.586   98.965   98.965
 cp_fm_cholesky_restore              96  8.0   62.870   62.870   62.870   62.870
 fft3d_s                            363 12.8   62.590   62.590   62.602   62.602
 density_rs2pw                       33  8.0    0.003    0.003   61.600   61.600
 pw_scatter_s                       196 13.1   43.830   43.830   43.830   43.830
 pw_poisson_solve                    33  8.9   36.915   36.915   39.791   39.791
 sum_up_and_integrate                33  8.9    2.102    2.102   35.346   35.346
 integrate_v_rspace                  33  9.9    2.281    2.281   33.244   33.244
 potential_pw2rs                     33 10.9    0.276    0.276   30.937   30.937
 qs_vxc_create                       33  8.9    0.001    0.001   17.331   17.331
 xc_vxc_pw_create                    33  9.9    4.642    4.642   17.331   17.331
 -------------------------------------------------------------------------------

 The number of warnings for this run is : 0
 
 -------------------------------------------------------------------------------
  **** **** ******  **  PROGRAM ENDED AT                 2020-05-20 23:32:41.941
 ***** ** ***  *** **   PROGRAM RAN ON                                   gnode39
 **    ****   ******    PROGRAM RAN BY                               mayank.modi
 ***** **    ** ** **   PROGRAM PROCESS ID                                 21058
  **** **  *******  **  PROGRAM STOPPED IN /home/mayank.modi/ab-initio-thermodyn
                                           amics-of-water/mayank/cp2k_energy_cal
                                           culations
