 DBCSR| CPU Multiplication driver                                           XSMM
 DBCSR| Multrec recursion limit                                              512
 DBCSR| Multiplication stack size                                           1000
 DBCSR| Maximum elements for images                                    UNLIMITED
 DBCSR| Multiplicative factor virtual images                                   1
 DBCSR| Use multiplication densification                                       T
 DBCSR| Multiplication size stacks                                             3


  **** **** ******  **  PROGRAM STARTED AT               2020-05-22 00:38:39.313
 ***** ** ***  *** **   PROGRAM STARTED ON                               gnode39
 **    ****   ******    PROGRAM STARTED BY                           mayank.modi
 ***** **    ** ** **   PROGRAM PROCESS ID                                 18642
  **** **  *******  **  PROGRAM STARTED IN /home/mayank.modi/ab-initio-thermodyn
                                           amics-of-water/mayank/cp2k_energy_cal
                                           culations

 CP2K| version string:                                          CP2K version 7.1
 CP2K| source code revision number:                                  git:e635599
 CP2K| cp2kflags: omp libint fftw3 libxc xsmm spglib                            
 CP2K| is freely available from                            https://www.cp2k.org/
 CP2K| Program compiled at                          Mon Dec 23 19:23:12 CET 2019
 CP2K| Program compiled on                                                pc9404
 CP2K| Program compiled for                                Linux-x86-64-gfortran
 CP2K| Data directory path                                        /opt/cp2k/data
 CP2K| Input file name                                             ./input143.in

 GLOBAL| Force Environment number                                              1
 GLOBAL| Basis set file name                                           BASIS_SET
 GLOBAL| Potential file name                                      GTH_POTENTIALS
 GLOBAL| MM Potential file name                                     MM_POTENTIAL
 GLOBAL| Coordinate file name                                      __STD_INPUT__
 GLOBAL| Method name                                                        CP2K
 GLOBAL| Project name                                                   H2O_bulk
 GLOBAL| Preferred FFT library                                             FFTW3
 GLOBAL| Preferred diagonalization lib.                                       SL
 GLOBAL| Run type                                                   ENERGY_FORCE
 GLOBAL| All-to-all communication in single precision                          F
 GLOBAL| FFTs using library dependent lengths                                  F
 GLOBAL| Global print level                                                  LOW
 GLOBAL| MPI I/O enabled                                                       T
 GLOBAL| Total number of message passing processes                             1
 GLOBAL| Number of threads for this process                                   20
 GLOBAL| This output is from process                                           0
 GLOBAL| CPU model name                Intel(R) Xeon(R) CPU E5-2640 v4 @ 2.40GHz
 GLOBAL| CPUID                                                              1002
 GLOBAL| Compiled for CPUID                                                    0

 MEMORY| system memory details [Kb]
 MEMORY|                        rank 0           min           max       average
 MEMORY| MemTotal            131898148     131898148     131898148     131898148
 MEMORY| MemFree              73832896      73832896      73832896      73832896
 MEMORY| Buffers               3188672       3188672       3188672       3188672
 MEMORY| Cached               33880260      33880260      33880260      33880260
 MEMORY| Slab                  4010028       4010028       4010028       4010028
 MEMORY| SReclaimable          3294868       3294868       3294868       3294868
 MEMORY| MemLikelyFree       114196696     114196696     114196696     114196696


 GENERATE|  Preliminary Number of Bonds generated:                             0
 GENERATE|  Achieved consistency in connectivity generation.

 *******************************************************************************
 *******************************************************************************
 **                                                                           **
 **     #####                         ##              ##                      **
 **    ##   ##            ##          ##              ##                      **
 **   ##     ##                       ##            ######                    **
 **   ##     ##  ##   ##  ##   #####  ##  ##   ####   ##    #####    #####    **
 **   ##     ##  ##   ##  ##  ##      ## ##   ##      ##   ##   ##  ##   ##   **
 **   ##  ## ##  ##   ##  ##  ##      ####     ###    ##   ######   ######    **
 **    ##  ###   ##   ##  ##  ##      ## ##      ##   ##   ##       ##        **
 **     #######   #####   ##   #####  ##  ##  ####    ##    #####   ##        **
 **           ##                                                    ##        **
 **                                                                           **
 **                                                ... make the atoms dance   **
 **                                                                           **
 **            Copyright (C) by CP2K developers group (2000 - 2019)           **
 **                                                                           **
 *******************************************************************************


 TOTAL NUMBERS AND MAXIMUM NUMBERS

  Total number of            - Atomic kinds:                                   2
                             - Atoms:                                        192
                             - Shell sets:                                   384
                             - Shells:                                       704
                             - Primitive Cartesian functions:                960
                             - Cartesian basis functions:                   1536
                             - Spherical basis functions:                   1472

  Maximum angular momentum of- Orbital basis functions:                        2
                             - Local part of the GTH pseudopotential:          2
                             - Non-local part of the GTH pseudopotential:      0


 SCF PARAMETERS         Density guess:                                    ATOMIC
                        --------------------------------------------------------
                        max_scf:                                             300
                        max_scf_history:                                       0
                        max_diis:                                              4
                        --------------------------------------------------------
                        eps_scf:                                        1.00E-07
                        eps_scf_history:                                0.00E+00
                        eps_diis:                                       1.00E-01
                        eps_eigval:                                     1.00E-05
                        --------------------------------------------------------
                        level_shift [a.u.]:                                 0.00
                        --------------------------------------------------------
                        Mixing method:                            BROYDEN_MIXING
                                                charge density mixing in g-space
                        --------------------------------------------------------
                        No outer SCF

 Number of electrons:                                                        512
 Number of occupied orbitals:                                                256
 Number of molecular orbitals:                                               256

 Number of orbital functions:                                               1472
 Number of independent orbital functions:                                   1472

 Extrapolation method: initial_guess


 SCF WAVEFUNCTION OPTIMIZATION

  Step     Update method      Time    Convergence         Total energy    Change
  ------------------------------------------------------------------------------
     1 NoMix/Diag. 0.40E+00   10.8     0.98121472     -1087.4021370527 -1.09E+03
     2 Broy./Diag. 0.40E+00   16.8     0.30142837     -1013.5204813065  7.39E+01
     3 Broy./Diag. 0.40E+00   18.5     0.02728957     -1094.9284370018 -8.14E+01
     4 Broy./Diag. 0.40E+00   18.9     0.02607125     -1094.4177030084  5.11E-01
     5 Broy./Diag. 0.40E+00   19.1     0.00232715     -1095.3304637097 -9.13E-01
     6 Broy./Diag. 0.40E+00   20.7     0.00345696     -1095.3637089810 -3.32E-02
     7 Broy./Diag. 0.40E+00   22.5     0.00224285     -1095.5203098770 -1.57E-01
     8 Broy./Diag. 0.40E+00   23.9     0.00314661     -1095.6427661496 -1.22E-01
     9 Broy./Diag. 0.40E+00   26.8     0.00303674     -1095.7117647712 -6.90E-02
    10 Broy./Diag. 0.40E+00   27.2     0.00135119     -1095.7423052539 -3.05E-02
    11 Broy./Diag. 0.40E+00   27.9     0.00114573     -1095.7092243789  3.31E-02
    12 Broy./Diag. 0.40E+00   28.1     0.00064150     -1095.7179092712 -8.68E-03
    13 Broy./Diag. 0.40E+00   27.3     0.00062112     -1095.7382324941 -2.03E-02
    14 Broy./Diag. 0.40E+00   27.4     0.00022222     -1095.7398213400 -1.59E-03
    15 Broy./Diag. 0.40E+00   28.6     0.00021811     -1095.7330293309  6.79E-03
    16 Broy./Diag. 0.40E+00   27.4     0.00014462     -1095.7329348468  9.45E-05
    17 Broy./Diag. 0.40E+00   27.2     0.00008035     -1095.7344487779 -1.51E-03
    18 Broy./Diag. 0.40E+00   28.9     0.00004339     -1095.7353684635 -9.20E-04
    19 Broy./Diag. 0.40E+00   27.3     0.00001406     -1095.7350511087  3.17E-04
    20 Broy./Diag. 0.40E+00   27.9     0.00001501     -1095.7342638286  7.87E-04
    21 Broy./Diag. 0.40E+00   27.0     0.00001107     -1095.7343122190 -4.84E-05
    22 Broy./Diag. 0.40E+00   26.9     0.00000663     -1095.7345290102 -2.17E-04
    23 Broy./Diag. 0.40E+00   27.9     0.00000484     -1095.7346471496 -1.18E-04
    24 Broy./Diag. 0.40E+00   27.2     0.00000137     -1095.7345878838  5.93E-05
    25 Broy./Diag. 0.40E+00   27.3     0.00000214     -1095.7345286837  5.92E-05
    26 Broy./Diag. 0.40E+00   27.1     0.00000169     -1095.7345608784 -3.22E-05
    27 Broy./Diag. 0.40E+00   27.9     0.00000110     -1095.7345796782 -1.88E-05
    28 Broy./Diag. 0.40E+00   27.0     0.00000073     -1095.7345830822 -3.40E-06
    29 Broy./Diag. 0.40E+00   27.2     0.00000035     -1095.7345709795  1.21E-05
    30 Broy./Diag. 0.40E+00   28.5     0.00000030     -1095.7345630906  7.89E-06
    31 Broy./Diag. 0.40E+00   26.9     0.00000020     -1095.7345610228  2.07E-06
    32 Broy./Diag. 0.40E+00   27.5     0.00000007     -1095.7345625045 -1.48E-06

  *** SCF run converged in    32 steps ***


  Electronic density on regular grids:       -512.0010211076       -0.0010211076
  Core density on regular grids:              511.9996218147       -0.0003781853
  Total charge density on r-space grids:       -0.0013992929
  Total charge density g-space grids:          -0.0013992929

  Overlap energy of the core charge distribution:               0.00000450483233
  Self energy of the core charge distribution:              -2838.21791979120962
  Core Hamiltonian energy:                                    821.22451209692929
  Hartree energy:                                            1185.92352261850419
  Exchange-correlation energy:                               -264.66468193352932

  Total energy:                                             -1095.73456250447316

 ENERGY| Total FORCE_EVAL ( QS ) energy (a.u.):            -1095.734562658069990


 ATOMIC FORCES in [a.u.]

 # Atom   Kind   Element          X              Y              Z
      1      1      O          -0.01254626    -0.06167274    -0.08065195
      2      2      H          -0.02601824    -0.01242489     0.01441435
      3      2      H           0.03017412     0.06509119    -0.03620124
      4      1      O           0.01881728     0.04788333     0.05159324
      5      2      H          -0.01940738     0.03381443    -0.04429772
      6      2      H           0.00981706    -0.03945007    -0.04950532
      7      1      O           0.05124716     0.01179101     0.05919477
      8      2      H          -0.02179352    -0.01853905    -0.03443571
      9      2      H          -0.01848026     0.01813825    -0.03877488
     10      1      O          -0.03357218     0.05501499     0.06110237
     11      2      H           0.05809611    -0.02545012     0.05861622
     12      2      H           0.01595979    -0.04972773    -0.03213387
     13      1      O           0.00169578    -0.02016684     0.10693878
     14      2      H          -0.01237370    -0.01525303    -0.01695005
     15      2      H          -0.04104860     0.00736932    -0.03506488
     16      1      O          -0.06819589    -0.06069393    -0.13370013
     17      2      H           0.03030754    -0.00696297     0.06561949
     18      2      H          -0.00320701    -0.00358564     0.00666877
     19      1      O          -0.03021219    -0.01534774    -0.07941923
     20      2      H          -0.00710554     0.03936560     0.04650685
     21      2      H           0.01265858     0.02713641     0.01113540
     22      1      O          -0.00173613    -0.05596711    -0.05135939
     23      2      H           0.02312241    -0.03337908    -0.05233055
     24      2      H           0.00853119     0.01988149     0.02221928
     25      1      O          -0.00936060     0.08214251    -0.05185719
     26      2      H           0.01564549    -0.04713198    -0.04480134
     27      2      H           0.00479093     0.04317450    -0.00730775
     28      1      O          -0.03080792    -0.01069897     0.00339465
     29      2      H           0.04671825     0.02782683     0.04629739
     30      2      H          -0.04300478    -0.00050757     0.05354606
     31      1      O          -0.01413415    -0.02637706     0.08030464
     32      2      H           0.00282497     0.02613887    -0.00966507
     33      2      H           0.04434457    -0.02391480     0.00249326
     34      1      O           0.04014271    -0.08482550     0.00484376
     35      2      H           0.03008412    -0.01347800     0.02881991
     36      2      H          -0.04327006     0.03601130     0.00922226
     37      1      O           0.02091492     0.07474252    -0.11364750
     38      2      H          -0.00972558     0.01788339     0.00702012
     39      2      H           0.02340529     0.00553218     0.04651083
     40      1      O           0.02492026    -0.02136033    -0.09815020
     41      2      H          -0.00781666    -0.00940521    -0.02435176
     42      2      H           0.00117356     0.00593517     0.04871474
     43      1      O          -0.03626165     0.03732812     0.06718227
     44      2      H           0.01261096     0.04094407    -0.02180361
     45      2      H           0.01851702    -0.01104403    -0.01153864
     46      1      O          -0.00488651     0.10734205    -0.12047327
     47      2      H          -0.02344790    -0.06577847     0.04178942
     48      2      H          -0.00374456    -0.01325018     0.05248927
     49      1      O           0.03882376    -0.03400210    -0.13487600
     50      2      H          -0.00355614    -0.00369459     0.03828462
     51      2      H          -0.02137715    -0.01358772     0.00674516
     52      1      O           0.07384407     0.05446466    -0.09808983
     53      2      H          -0.00681712     0.05302362    -0.02334689
     54      2      H          -0.02091194    -0.01285114    -0.01123748
     55      1      O           0.00383100    -0.03208222    -0.10989653
     56      2      H          -0.03366850     0.04127585    -0.00996049
     57      2      H           0.01791021    -0.00997605    -0.01303001
     58      1      O           0.00345356     0.06378784    -0.07858620
     59      2      H          -0.00760827     0.00834782     0.01686178
     60      2      H          -0.00847733     0.02248704    -0.03539903
     61      1      O          -0.05718220     0.09767452    -0.16579655
     62      2      H           0.01022532     0.02369831     0.05004557
     63      2      H           0.00180611    -0.06118909    -0.02422218
     64      1      O          -0.01687509     0.11883605     0.12865985
     65      2      H           0.05087087    -0.02870359    -0.05665539
     66      2      H          -0.01938400    -0.04608626     0.02959673
     67      1      O          -0.03289377     0.02800946    -0.12535374
     68      2      H           0.04172649     0.02272348     0.08728372
     69      2      H           0.00793968     0.01503751    -0.03793609
     70      1      O           0.00473967    -0.00833161    -0.08781818
     71      2      H          -0.01666678     0.01583994    -0.06751251
     72      2      H          -0.00060689    -0.01809334    -0.00001675
     73      1      O           0.04813701     0.05380293    -0.04433179
     74      2      H          -0.00497191    -0.02877996    -0.00706151
     75      2      H           0.01176056     0.02390541    -0.01219687
     76      1      O          -0.06575841     0.07729507     0.09272498
     77      2      H           0.04251945    -0.02568426    -0.02834786
     78      2      H          -0.03204763    -0.01052125    -0.02811315
     79      1      O          -0.01755145     0.12414861    -0.08546119
     80      2      H          -0.01191906    -0.02396957    -0.02038581
     81      2      H           0.01498654    -0.03918314    -0.01535918
     82      1      O          -0.03200444     0.02038546     0.08915921
     83      2      H           0.01244927     0.01825135    -0.01570675
     84      2      H           0.02213070     0.03194323    -0.01853615
     85      1      O           0.01632358     0.04757168    -0.02956137
     86      2      H           0.00990380     0.05528678    -0.03320467
     87      2      H          -0.04908342    -0.02375699     0.02800648
     88      1      O          -0.04411147     0.00494142    -0.08048062
     89      2      H           0.00429983    -0.03836631    -0.05371825
     90      2      H           0.05890418    -0.02524834     0.00400496
     91      1      O           0.00114988    -0.07025507    -0.01549633
     92      2      H           0.00748076    -0.01430224     0.03172099
     93      2      H          -0.03750322    -0.01320831     0.02314087
     94      1      O          -0.01088299    -0.05092766     0.07401775
     95      2      H           0.03837592    -0.01907610    -0.00168407
     96      2      H           0.00567068    -0.03218864    -0.00078819
     97      1      O           0.01199662     0.02635755     0.10812805
     98      2      H           0.01324870     0.00327947     0.01011521
     99      2      H          -0.00654487     0.03649766    -0.02898732
    100      1      O          -0.01669123    -0.00028181    -0.08316729
    101      2      H           0.00163956    -0.01956421    -0.04667515
    102      2      H          -0.00366882    -0.01663538    -0.00809548
    103      1      O          -0.01979438    -0.04270930    -0.10615174
    104      2      H           0.01792976    -0.01419122    -0.00693758
    105      2      H           0.00715303     0.00402266     0.04314592
    106      1      O          -0.01374218     0.02105493    -0.03305446
    107      2      H          -0.01223581     0.02329795     0.02695899
    108      2      H           0.00343255    -0.01972843     0.02159581
    109      1      O          -0.05413224    -0.05212157     0.05870161
    110      2      H          -0.00083909     0.00414078    -0.00116274
    111      2      H           0.04015277    -0.01374936     0.03004646
    112      1      O          -0.04743007     0.06404220     0.03827710
    113      2      H          -0.00290625    -0.05151901     0.03111220
    114      2      H           0.02685003     0.03641322    -0.04428794
    115      1      O          -0.05075783     0.03781886    -0.06667237
    116      2      H           0.02038604    -0.05300452     0.05388931
    117      2      H           0.03131439     0.01879598     0.00530687
    118      1      O          -0.00283840    -0.00952668     0.07184269
    119      2      H           0.01786661    -0.00759283    -0.05790891
    120      2      H          -0.01248158     0.00625139    -0.02099843
    121      1      O          -0.02012599     0.03007246    -0.00747008
    122      2      H           0.00315217     0.01306651     0.01854783
    123      2      H           0.00853083    -0.01577460    -0.02791300
    124      1      O           0.03697473    -0.09058694    -0.11736487
    125      2      H          -0.02419116    -0.01835067     0.00005409
    126      2      H           0.00617957    -0.00544890    -0.00937732
    127      1      O          -0.00942124     0.05910858     0.07582291
    128      2      H           0.01367140     0.00144325    -0.01998105
    129      2      H          -0.01889394    -0.02010304     0.03513122
    130      1      O          -0.02282941     0.03858284    -0.08324185
    131      2      H           0.02040181    -0.01419618    -0.04311585
    132      2      H           0.03367642     0.03925533     0.03414127
    133      1      O           0.02795910     0.11337759     0.07338983
    134      2      H           0.01531990    -0.02786400     0.02078699
    135      2      H          -0.05774439    -0.03097742     0.01994378
    136      1      O           0.00262242     0.03314915    -0.02806721
    137      2      H           0.00216936    -0.01909640     0.03625393
    138      2      H           0.01518258    -0.05280302     0.01777120
    139      1      O          -0.01653671    -0.06279927    -0.03835704
    140      2      H           0.01346900    -0.02365748    -0.00050182
    141      2      H           0.00328629     0.01574504     0.03862440
    142      1      O          -0.01230538     0.09196342     0.09318223
    143      2      H          -0.00038242     0.03307819     0.03841560
    144      2      H           0.01310422    -0.02972778     0.04250754
    145      1      O          -0.00043942     0.05099964    -0.04638178
    146      2      H          -0.01809863     0.02123021    -0.04343378
    147      2      H           0.03197198     0.01256512    -0.03161680
    148      1      O          -0.00204502    -0.01475920    -0.02841195
    149      2      H          -0.01476228    -0.03709104    -0.10801072
    150      2      H          -0.00465020    -0.02833878     0.03644813
    151      1      O          -0.01366072    -0.10812170    -0.08761532
    152      2      H          -0.01427740     0.04577254    -0.01732870
    153      2      H           0.07438145     0.01983463    -0.01136170
    154      1      O          -0.03251597    -0.05023337    -0.11546989
    155      2      H          -0.02319397     0.02114612    -0.03201560
    156      2      H           0.03071383     0.01183255    -0.03435500
    157      1      O           0.00324426    -0.00996336     0.02024227
    158      2      H           0.03679916    -0.00149494     0.06556497
    159      2      H          -0.04394369     0.00938620     0.06012479
    160      1      O           0.00232158    -0.04258187     0.01187756
    161      2      H          -0.01231902     0.01002060     0.01288254
    162      2      H           0.00433631    -0.02588434     0.00587134
    163      1      O           0.00461218     0.01430668    -0.10644411
    164      2      H          -0.02795637    -0.03423006    -0.00595137
    165      2      H           0.01448899     0.00235150     0.05433347
    166      1      O          -0.03887562    -0.00996506     0.01385621
    167      2      H           0.01368933     0.02369647     0.03391204
    168      2      H           0.02521891    -0.02281850     0.00716971
    169      1      O           0.02667777    -0.07582178    -0.08099462
    170      2      H           0.01028406     0.00445572     0.00696357
    171      2      H          -0.03255481     0.00636897    -0.04233854
    172      1      O           0.00687589    -0.03349037     0.14633594
    173      2      H          -0.07384320    -0.02782022    -0.05617497
    174      2      H           0.03346721     0.03432230    -0.10849486
    175      1      O          -0.02703544     0.02583450    -0.07932285
    176      2      H          -0.00408942     0.01853339    -0.03797277
    177      2      H          -0.00271964     0.03536289    -0.05019956
    178      1      O           0.04728247     0.03306951     0.08553115
    179      2      H           0.00059062     0.03283905     0.02493074
    180      2      H          -0.02493125    -0.00048925     0.04163263
    181      1      O           0.09049229    -0.01012481    -0.08630248
    182      2      H          -0.07350239    -0.01601827     0.06058323
    183      2      H          -0.00332848    -0.02666545    -0.03274803
    184      1      O           0.08987586    -0.03156982     0.01198204
    185      2      H          -0.02435459    -0.05162606     0.00244701
    186      2      H          -0.03925802     0.04427672    -0.02083516
    187      1      O          -0.03709449    -0.06825034    -0.09819877
    188      2      H          -0.01066385    -0.03924548    -0.01432258
    189      2      H           0.03224092     0.02505107    -0.00062118
    190      1      O          -0.04544230    -0.05840621     0.03966194
    191      2      H          -0.00648893    -0.01862016    -0.04465936
    192      2      H           0.04691092     0.06775219     0.05735575
 SUM OF ATOMIC FORCES          -0.02262616     0.18895001    -1.51936995     1.53124103

 -------------------------------------------------------------------------------
 -                                                                             -
 -                                DBCSR STATISTICS                             -
 -                                                                             -
 -------------------------------------------------------------------------------
 COUNTER                                    TOTAL       BLAS       SMM       ACC
 flops     5 x     5 x   256            771302400       0.0%    100.0%      0.0%
 flops    13 x     5 x   256            962058240       0.0%    100.0%      0.0%
 flops     5 x    13 x   256            971942400       0.0%    100.0%      0.0%
 flops    13 x    13 x   256           1353470976       0.0%    100.0%      0.0%
 flops inhomo. stacks                           0       0.0%      0.0%      0.0%
 flops total                         4.058774E+09       0.0%    100.0%      0.0%
 flops max/rank                      4.058774E+09       0.0%    100.0%      0.0%
 matmuls inhomo. stacks                         0       0.0%      0.0%      0.0%
 matmuls total                             134013       0.0%    100.0%      0.0%
 number of processed stacks                  2574       0.0%    100.0%      0.0%
 average stack size                                     0.0      52.1       0.0
 marketing flops                    36.609982E+09
 -------------------------------------------------------------------------------
 # multiplications                             33
 max memory usage/rank              25.805926E+09
 # max total images/rank                        1
 # max 3D layers                                1
 # MPI messages exchanged                       0
 MPI messages size (bytes):
  total size                         0.000000E+00
  min size                           0.000000E+00
  max size                           0.000000E+00
  average size                       0.000000E+00
 MPI breakdown and total messages size (bytes):
             size <=      128                   0                        0
       128 < size <=     8192                   0                        0
      8192 < size <=    32768                   0                        0
     32768 < size <=   131072                   0                        0
    131072 < size <=  4194304                   0                        0
   4194304 < size <= 16777216                   0                        0
  16777216 < size                               0                        0
 -------------------------------------------------------------------------------

 MEMORY| Estimated peak process memory [MiB]                               24613

 -------------------------------------------------------------------------------
 -                                                                             -
 -                           R E F E R E N C E S                               -
 -                                                                             -
 -------------------------------------------------------------------------------
 
 CP2K version 7.1, the CP2K developers group (2019).
 CP2K is freely available from https://www.cp2k.org/ .

 Schuett, Ole; Messmer, Peter; Hutter, Juerg; VandeVondele, Joost. 
 Electronic Structure Calculations on Graphics Processing Units, John
 Wiley & Sons, Ltd, 173-190 (2016). 
 GPU-Accelerated Sparse Matrix-Matrix Multiplication for
 Linear Scaling Density Functional Theory.
 https://dx.doi.org/10.1002/9781118670712.ch8

 Borstnik, U; VandeVondele, J; Weber, V; Hutter, J. 
 PARALLEL COMPUTING, 40 (5-6), 47-58 (2014). 
 Sparse matrix multiplication: The distributed block-compressed sparse
 row library.
 https://dx.doi.org/10.1016/j.parco.2014.03.012

 Hutter, J; Iannuzzi, M; Schiffmann, F; VandeVondele, J. 
 WIREs Comput Mol Sci., 4 (1), 15-25 (2014). 
 CP2K: atomistic simulations of condensed matter systems.
 https://dx.doi.org/10.1002/wcms.1159

 Krack, M. 
 THEORETICAL CHEMISTRY ACCOUNTS, 114 (1-3), 145-152 (2005). 
 Pseudopotentials for H to Kr optimized for gradient-corrected
 exchange-correlation functionals.
 https://dx.doi.org/10.1007/s00214-005-0655-y

 VandeVondele, J; Krack, M; Mohamed, F; Parrinello, M; Chassaing, T;
 Hutter, J. COMPUTER PHYSICS COMMUNICATIONS, 167 (2), 103-128 (2005). 
 QUICKSTEP: Fast and accurate density functional calculations using a
 mixed Gaussian and plane waves approach.
 https://dx.doi.org/10.1016/j.cpc.2004.12.014

 Frigo, M; Johnson, SG. 
 PROCEEDINGS OF THE IEEE, 93 (2), 216-231 (2005). 
 The design and implementation of FFTW3.
 https://dx.doi.org/10.1109/JPROC.2004.840301

 Hartwigsen, C; Goedecker, S; Hutter, J. 
 PHYSICAL REVIEW B, 58 (7), 3641-3662 (1998). 
 Relativistic separable dual-space Gaussian pseudopotentials from H to Rn.
 https://dx.doi.org/10.1103/PhysRevB.58.3641

 Lippert, G; Hutter, J; Parrinello, M. 
 MOLECULAR PHYSICS, 92 (3), 477-487 (1997). 
 A hybrid Gaussian and plane wave density functional scheme.
 https://dx.doi.org/10.1080/002689797170220

 Goedecker, S; Teter, M; Hutter, J. 
 PHYSICAL REVIEW B, 54 (3), 1703-1710 (1996). 
 Separable dual-space Gaussian pseudopotentials.
 https://dx.doi.org/10.1103/PhysRevB.54.1703


 -------------------------------------------------------------------------------
 -                                                                             -
 -                                T I M I N G                                  -
 -                                                                             -
 -------------------------------------------------------------------------------
 SUBROUTINE                       CALLS  ASD         SELF TIME        TOTAL TIME
                                MAXIMUM       AVERAGE  MAXIMUM  AVERAGE  MAXIMUM
 CP2K                                 1  1.0    0.690    0.690  844.948  844.948
 qs_forces                            1  2.0    0.000    0.000  833.430  833.430
 qs_energies                          1  3.0    0.000    0.000  828.197  828.197
 scf_env_do_scf                       1  4.0    0.000    0.000  815.896  815.896
 scf_env_do_scf_inner_loop           32  5.0    0.005    0.005  815.896  815.896
 gspace_mixing                       31  6.0    4.428    4.428  317.342  317.342
 broyden_mixing                      31  7.0  279.125  279.125  279.126  279.126
 qs_scf_new_mos                      32  6.0    0.001    0.001  210.757  210.757
 eigensolver                         32  7.0    0.004    0.004  203.427  203.427
 pw_transfer                        428  9.9    0.042    0.042  183.622  183.622
 fft_wrap_pw1pw2                    362 10.9    0.005    0.005  178.809  178.809
 rebuild_ks_matrix                   33  6.9    0.000    0.000  164.192  164.192
 qs_ks_build_kohn_sham_matrix        33  7.9    0.009    0.009  164.192  164.192
 fft_wrap_pw1pw2_70                 164 11.2   13.971   13.971  162.716  162.716
 qs_ks_update_qs_env                 32  6.0    0.000    0.000  159.164  159.164
 cp_fm_syevd                         32  8.0  138.352  138.352  138.507  138.507
 qs_rho_update_rho                   33  6.0    0.000    0.000  131.906  131.906
 calculate_rho_elec                  33  7.0   45.909   45.909  131.905  131.905
 fft3d_s                            363 12.8   92.276   92.276   92.298   92.298
 density_rs2pw                       33  8.0    0.003    0.003   84.636   84.636
 cp_fm_cholesky_restore              96  8.0   64.782   64.782   64.782   64.782
 pw_scatter_s                       196 13.1   53.584   53.584   53.584   53.584
 sum_up_and_integrate                33  8.9    1.992    1.992   52.918   52.918
 integrate_v_rspace                  33  9.9    2.808    2.808   50.925   50.925
 pw_poisson_solve                    33  8.9   42.310   42.310   47.384   47.384
 potential_pw2rs                     33 10.9    0.303    0.303   45.854   45.854
 qs_vxc_create                       33  8.9    0.001    0.001   21.503   21.503
 xc_vxc_pw_create                    33  9.9    4.691    4.691   21.503   21.503
 pw_gather_s                        166 12.6   17.062   17.062   17.062   17.062
 -------------------------------------------------------------------------------

 The number of warnings for this run is : 0
 
 -------------------------------------------------------------------------------
  **** **** ******  **  PROGRAM ENDED AT                 2020-05-22 00:52:44.408
 ***** ** ***  *** **   PROGRAM RAN ON                                   gnode39
 **    ****   ******    PROGRAM RAN BY                               mayank.modi
 ***** **    ** ** **   PROGRAM PROCESS ID                                 18642
  **** **  *******  **  PROGRAM STOPPED IN /home/mayank.modi/ab-initio-thermodyn
                                           amics-of-water/mayank/cp2k_energy_cal
                                           culations
