 DBCSR| CPU Multiplication driver                                           XSMM
 DBCSR| Multrec recursion limit                                              512
 DBCSR| Multiplication stack size                                           1000
 DBCSR| Maximum elements for images                                    UNLIMITED
 DBCSR| Multiplicative factor virtual images                                   1
 DBCSR| Use multiplication densification                                       T
 DBCSR| Multiplication size stacks                                             3


  **** **** ******  **  PROGRAM STARTED AT               2020-05-22 01:19:58.102
 ***** ** ***  *** **   PROGRAM STARTED ON                               gnode39
 **    ****   ******    PROGRAM STARTED BY                           mayank.modi
 ***** **    ** ** **   PROGRAM PROCESS ID                                 35494
  **** **  *******  **  PROGRAM STARTED IN /home/mayank.modi/ab-initio-thermodyn
                                           amics-of-water/mayank/cp2k_energy_cal
                                           culations

 CP2K| version string:                                          CP2K version 7.1
 CP2K| source code revision number:                                  git:e635599
 CP2K| cp2kflags: omp libint fftw3 libxc xsmm spglib                            
 CP2K| is freely available from                            https://www.cp2k.org/
 CP2K| Program compiled at                          Mon Dec 23 19:23:12 CET 2019
 CP2K| Program compiled on                                                pc9404
 CP2K| Program compiled for                                Linux-x86-64-gfortran
 CP2K| Data directory path                                        /opt/cp2k/data
 CP2K| Input file name                                             ./input146.in

 GLOBAL| Force Environment number                                              1
 GLOBAL| Basis set file name                                           BASIS_SET
 GLOBAL| Potential file name                                      GTH_POTENTIALS
 GLOBAL| MM Potential file name                                     MM_POTENTIAL
 GLOBAL| Coordinate file name                                      __STD_INPUT__
 GLOBAL| Method name                                                        CP2K
 GLOBAL| Project name                                                   H2O_bulk
 GLOBAL| Preferred FFT library                                             FFTW3
 GLOBAL| Preferred diagonalization lib.                                       SL
 GLOBAL| Run type                                                   ENERGY_FORCE
 GLOBAL| All-to-all communication in single precision                          F
 GLOBAL| FFTs using library dependent lengths                                  F
 GLOBAL| Global print level                                                  LOW
 GLOBAL| MPI I/O enabled                                                       T
 GLOBAL| Total number of message passing processes                             1
 GLOBAL| Number of threads for this process                                   20
 GLOBAL| This output is from process                                           0
 GLOBAL| CPU model name                Intel(R) Xeon(R) CPU E5-2640 v4 @ 2.40GHz
 GLOBAL| CPUID                                                              1002
 GLOBAL| Compiled for CPUID                                                    0

 MEMORY| system memory details [Kb]
 MEMORY|                        rank 0           min           max       average
 MEMORY| MemTotal            131898148     131898148     131898148     131898148
 MEMORY| MemFree              73831696      73831696      73831696      73831696
 MEMORY| Buffers               3188764       3188764       3188764       3188764
 MEMORY| Cached               33880084      33880084      33880084      33880084
 MEMORY| Slab                  4009120       4009120       4009120       4009120
 MEMORY| SReclaimable          3294948       3294948       3294948       3294948
 MEMORY| MemLikelyFree       114195492     114195492     114195492     114195492


 GENERATE|  Preliminary Number of Bonds generated:                             0
 GENERATE|  Achieved consistency in connectivity generation.

 *******************************************************************************
 *******************************************************************************
 **                                                                           **
 **     #####                         ##              ##                      **
 **    ##   ##            ##          ##              ##                      **
 **   ##     ##                       ##            ######                    **
 **   ##     ##  ##   ##  ##   #####  ##  ##   ####   ##    #####    #####    **
 **   ##     ##  ##   ##  ##  ##      ## ##   ##      ##   ##   ##  ##   ##   **
 **   ##  ## ##  ##   ##  ##  ##      ####     ###    ##   ######   ######    **
 **    ##  ###   ##   ##  ##  ##      ## ##      ##   ##   ##       ##        **
 **     #######   #####   ##   #####  ##  ##  ####    ##    #####   ##        **
 **           ##                                                    ##        **
 **                                                                           **
 **                                                ... make the atoms dance   **
 **                                                                           **
 **            Copyright (C) by CP2K developers group (2000 - 2019)           **
 **                                                                           **
 *******************************************************************************


 TOTAL NUMBERS AND MAXIMUM NUMBERS

  Total number of            - Atomic kinds:                                   2
                             - Atoms:                                        192
                             - Shell sets:                                   384
                             - Shells:                                       704
                             - Primitive Cartesian functions:                960
                             - Cartesian basis functions:                   1536
                             - Spherical basis functions:                   1472

  Maximum angular momentum of- Orbital basis functions:                        2
                             - Local part of the GTH pseudopotential:          2
                             - Non-local part of the GTH pseudopotential:      0


 SCF PARAMETERS         Density guess:                                    ATOMIC
                        --------------------------------------------------------
                        max_scf:                                             300
                        max_scf_history:                                       0
                        max_diis:                                              4
                        --------------------------------------------------------
                        eps_scf:                                        1.00E-07
                        eps_scf_history:                                0.00E+00
                        eps_diis:                                       1.00E-01
                        eps_eigval:                                     1.00E-05
                        --------------------------------------------------------
                        level_shift [a.u.]:                                 0.00
                        --------------------------------------------------------
                        Mixing method:                            BROYDEN_MIXING
                                                charge density mixing in g-space
                        --------------------------------------------------------
                        No outer SCF

 Number of electrons:                                                        512
 Number of occupied orbitals:                                                256
 Number of molecular orbitals:                                               256

 Number of orbital functions:                                               1472
 Number of independent orbital functions:                                   1472

 Extrapolation method: initial_guess


 SCF WAVEFUNCTION OPTIMIZATION

  Step     Update method      Time    Convergence         Total energy    Change
  ------------------------------------------------------------------------------
     1 NoMix/Diag. 0.40E+00   11.8     1.00607670     -1087.2010326991 -1.09E+03
     2 Broy./Diag. 0.40E+00   18.6     0.29549597     -1013.6159283441  7.36E+01
     3 Broy./Diag. 0.40E+00   19.0     0.02792724     -1095.0504594622 -8.14E+01
     4 Broy./Diag. 0.40E+00   20.9     0.02760501     -1094.3409963073  7.09E-01
     5 Broy./Diag. 0.40E+00   21.1     0.00245610     -1095.2411070770 -9.00E-01
     6 Broy./Diag. 0.40E+00   22.3     0.00443131     -1095.2742368091 -3.31E-02
     7 Broy./Diag. 0.40E+00   22.8     0.00278602     -1095.4284625873 -1.54E-01
     8 Broy./Diag. 0.40E+00   24.4     0.00369172     -1095.5590192265 -1.31E-01
     9 Broy./Diag. 0.40E+00   27.5     0.00355652     -1095.6343844704 -7.54E-02
    10 Broy./Diag. 0.40E+00   30.2     0.00167658     -1095.6665925395 -3.22E-02
    11 Broy./Diag. 0.40E+00   28.4     0.00123435     -1095.6373332229  2.93E-02
    12 Broy./Diag. 0.40E+00   27.4     0.00054601     -1095.6446541821 -7.32E-03
    13 Broy./Diag. 0.40E+00   28.2     0.00059308     -1095.6634174403 -1.88E-02
    14 Broy./Diag. 0.40E+00   29.4     0.00020456     -1095.6657508493 -2.33E-03
    15 Broy./Diag. 0.40E+00   27.3     0.00025752     -1095.6592287323  6.52E-03
    16 Broy./Diag. 0.40E+00   27.5     0.00015852     -1095.6598604144 -6.32E-04
    17 Broy./Diag. 0.40E+00   28.1     0.00007098     -1095.6617698955 -1.91E-03
    18 Broy./Diag. 0.40E+00   28.1     0.00004382     -1095.6624413602 -6.71E-04
    19 Broy./Diag. 0.40E+00   27.2     0.00002025     -1095.6621873020  2.54E-04
    20 Broy./Diag. 0.40E+00   27.4     0.00001820     -1095.6615589190  6.28E-04
    21 Broy./Diag. 0.40E+00   28.2     0.00001179     -1095.6617194799 -1.61E-04
    22 Broy./Diag. 0.40E+00   27.4     0.00000445     -1095.6619404493 -2.21E-04
    23 Broy./Diag. 0.40E+00   28.3     0.00000541     -1095.6620053815 -6.49E-05
    24 Broy./Diag. 0.40E+00   27.3     0.00000144     -1095.6619385209  6.69E-05
    25 Broy./Diag. 0.40E+00   27.4     0.00000225     -1095.6618892449  4.93E-05
    26 Broy./Diag. 0.40E+00   28.4     0.00000128     -1095.6618803592  8.89E-06
    27 Broy./Diag. 0.40E+00   27.4     0.00000087     -1095.6618839673 -3.61E-06
    28 Broy./Diag. 0.40E+00   27.7     0.00000075     -1095.6618848893 -9.22E-07
    29 Broy./Diag. 0.40E+00   27.7     0.00000032     -1095.6618814096  3.48E-06
    30 Broy./Diag. 0.40E+00   28.2     0.00000026     -1095.6618790250  2.38E-06
    31 Broy./Diag. 0.40E+00   28.1     0.00000016     -1095.6618772879  1.74E-06
    32 Broy./Diag. 0.40E+00   27.6     0.00000007     -1095.6618782246 -9.37E-07

  *** SCF run converged in    32 steps ***


  Electronic density on regular grids:       -512.0004900811       -0.0004900811
  Core density on regular grids:              512.0000214123        0.0000214123
  Total charge density on r-space grids:       -0.0004686687
  Total charge density g-space grids:          -0.0004686687

  Overlap energy of the core charge distribution:               0.00000449324746
  Self energy of the core charge distribution:              -2838.21791979120962
  Core Hamiltonian energy:                                    820.76841619021025
  Hartree energy:                                            1186.33289479555629
  Exchange-correlation energy:                               -264.54527391243084

  Total energy:                                             -1095.66187822462643

 ENERGY| Total FORCE_EVAL ( QS ) energy (a.u.):            -1095.661877888164099


 ATOMIC FORCES in [a.u.]

 # Atom   Kind   Element          X              Y              Z
      1      1      O           0.07171087     0.06045002     0.03959615
      2      2      H          -0.06550538     0.01144016    -0.03250598
      3      2      H           0.01807763    -0.00268121    -0.00785263
      4      1      O           0.02147813    -0.10239051    -0.02172739
      5      2      H          -0.03345874     0.03664094    -0.05594638
      6      2      H           0.01079470    -0.03921660    -0.02409022
      7      1      O           0.05887995     0.11170406     0.10458148
      8      2      H          -0.05256559    -0.04786274     0.07517893
      9      2      H          -0.00674598    -0.05075983    -0.02588158
     10      1      O          -0.01192669    -0.01765820    -0.12613844
     11      2      H           0.03743870    -0.02981240    -0.01553099
     12      2      H           0.00670579    -0.03352759     0.04142804
     13      1      O          -0.04693244    -0.11775392    -0.04682123
     14      2      H           0.01592978    -0.00727917    -0.02969081
     15      2      H           0.02029453    -0.00472193    -0.01966710
     16      1      O          -0.03024550    -0.03573042     0.11290857
     17      2      H          -0.00548271     0.01678655     0.02665389
     18      2      H           0.00742521     0.01081658     0.01006915
     19      1      O          -0.00192506    -0.07403956    -0.02246762
     20      2      H          -0.00312562     0.06896130     0.04968847
     21      2      H          -0.01089584     0.02025064     0.01309371
     22      1      O           0.01107996    -0.05785595     0.11653599
     23      2      H           0.01425589     0.01619702     0.00353908
     24      2      H           0.00245149     0.03440827    -0.04898680
     25      1      O           0.00575010    -0.06116967     0.11824666
     26      2      H           0.01488077    -0.02720344    -0.03957076
     27      2      H           0.01407930    -0.00061382    -0.02249454
     28      1      O           0.03643340    -0.03054874     0.01147702
     29      2      H          -0.00474153    -0.01406111    -0.03069477
     30      2      H          -0.01640316     0.04507650     0.03414179
     31      1      O          -0.08064987    -0.08554944     0.12114069
     32      2      H          -0.00171902    -0.01040114    -0.02501440
     33      2      H           0.06309751     0.04080039     0.00311746
     34      1      O          -0.01191499    -0.02167848     0.06281328
     35      2      H           0.01210552     0.01004724     0.02419056
     36      2      H          -0.02532876     0.01901974    -0.02000949
     37      1      O           0.08279612     0.07145586    -0.03528227
     38      2      H          -0.05721270    -0.01523161    -0.03750672
     39      2      H          -0.01434133    -0.00819854     0.06661843
     40      1      O          -0.02098938    -0.02851648     0.06283186
     41      2      H           0.01240026    -0.00260900     0.01727959
     42      2      H          -0.01051990     0.02551095    -0.00277470
     43      1      O          -0.04482925    -0.00372062    -0.11038752
     44      2      H          -0.02069321     0.04084411    -0.01878221
     45      2      H           0.01947393    -0.04882264     0.02658983
     46      1      O           0.03742682    -0.18376657    -0.06317651
     47      2      H          -0.08044670     0.04598222    -0.07512981
     48      2      H           0.01890428     0.06383661     0.12289029
     49      1      O           0.05977947    -0.03084043     0.09664239
     50      2      H           0.00859245    -0.03006684     0.03571443
     51      2      H          -0.02440689    -0.04453061    -0.03353377
     52      1      O           0.00742317     0.01995196     0.02987714
     53      2      H          -0.00104028     0.03930688    -0.02729909
     54      2      H           0.02909584    -0.01202795    -0.04268841
     55      1      O           0.08114114     0.09661200    -0.07865542
     56      2      H          -0.03925940    -0.00954243     0.00498693
     57      2      H          -0.03061597    -0.05146482     0.01799922
     58      1      O           0.02362546    -0.04117208    -0.09313544
     59      2      H          -0.02127995     0.01820589    -0.00441191
     60      2      H          -0.01271429     0.00240093    -0.02564604
     61      1      O           0.03359850     0.03767022    -0.05456191
     62      2      H          -0.00025716     0.00252063     0.01873726
     63      2      H           0.01255133     0.00733677    -0.01063598
     64      1      O          -0.00095766     0.04677651     0.14324479
     65      2      H           0.01867892    -0.02297411     0.00644763
     66      2      H          -0.01760495    -0.02972130    -0.03920756
     67      1      O           0.02022669    -0.08110962    -0.03766512
     68      2      H          -0.00647460     0.00099029     0.02305201
     69      2      H          -0.00213364     0.00820886    -0.01895994
     70      1      O          -0.01021281    -0.05723955     0.07081776
     71      2      H           0.00530563     0.02722230    -0.00876349
     72      2      H          -0.01901417     0.03442192    -0.01107280
     73      1      O          -0.01334426    -0.01181415    -0.07526126
     74      2      H           0.00165752    -0.00946020     0.02241389
     75      2      H           0.01417018    -0.00931112    -0.04027239
     76      1      O           0.00681831    -0.00818862     0.12387414
     77      2      H           0.04087703     0.01536226    -0.04261155
     78      2      H          -0.02124402    -0.02716496     0.00084251
     79      1      O           0.03492735     0.00368558    -0.04404499
     80      2      H           0.00624551     0.01934206     0.01467657
     81      2      H           0.00181783    -0.00898641     0.04655481
     82      1      O           0.02546797    -0.05026726    -0.01519069
     83      2      H           0.00938007    -0.01149185    -0.03948385
     84      2      H           0.01011072     0.01464454    -0.04124866
     85      1      O          -0.00946439    -0.11417174    -0.02091794
     86      2      H           0.02057425     0.02401610    -0.01217768
     87      2      H          -0.01902121     0.00832694     0.02294120
     88      1      O          -0.01899735     0.09705587     0.02914668
     89      2      H          -0.01253063    -0.00666193    -0.06711715
     90      2      H          -0.00229584    -0.01660785     0.03223968
     91      1      O           0.00678974     0.00969533    -0.01919602
     92      2      H           0.01201851     0.02987701     0.02637538
     93      2      H          -0.02188253     0.01896975     0.00055148
     94      1      O          -0.05257694    -0.07545163     0.06833656
     95      2      H           0.03174485     0.03796400     0.00794280
     96      2      H          -0.00140782    -0.01454642     0.01941942
     97      1      O          -0.01734349    -0.01254616     0.09521826
     98      2      H           0.00885671     0.02907194    -0.00501609
     99      2      H          -0.01235264     0.00250479    -0.00214541
    100      1      O          -0.06274788    -0.04517161    -0.08886363
    101      2      H          -0.01219792    -0.05306582    -0.02926505
    102      2      H           0.02445684     0.04068776     0.04270144
    103      1      O          -0.03412523    -0.03080591     0.14604420
    104      2      H          -0.01755516     0.02803588    -0.08313183
    105      2      H           0.01594344    -0.04236050     0.01912811
    106      1      O           0.02138117     0.01032604    -0.00935085
    107      2      H          -0.00937099    -0.00679233    -0.03649615
    108      2      H          -0.00149510    -0.02645182     0.02636925
    109      1      O           0.00367614     0.04943833    -0.10088197
    110      2      H           0.00287065    -0.00318908    -0.02741275
    111      2      H           0.01666561     0.01826957     0.00396658
    112      1      O          -0.06641462     0.01226655    -0.04228798
    113      2      H          -0.00290902    -0.03747117     0.04039978
    114      2      H           0.04496234     0.03793143     0.02268412
    115      1      O          -0.05173263    -0.01651145     0.07976722
    116      2      H           0.01890994    -0.03843972     0.03080302
    117      2      H          -0.00443906    -0.01276558     0.02136101
    118      1      O          -0.06152571     0.03117617    -0.02620770
    119      2      H           0.05506790    -0.00033320    -0.00069497
    120      2      H           0.01595892     0.03106856     0.02391579
    121      1      O           0.00308940     0.06657298     0.04986112
    122      2      H          -0.00284901    -0.03472027     0.03349300
    123      2      H           0.00188462     0.01723392    -0.03032885
    124      1      O          -0.00939408     0.02839240     0.07363961
    125      2      H          -0.00922067     0.02349435    -0.03852789
    126      2      H           0.00812999    -0.01788920    -0.02687632
    127      1      O           0.00246987     0.10147839     0.04774342
    128      2      H           0.02912743    -0.04982102    -0.00162831
    129      2      H          -0.04314269    -0.03976208    -0.02381387
    130      1      O          -0.06124103     0.08873505    -0.09494604
    131      2      H           0.02024930    -0.06013616     0.00369217
    132      2      H           0.04033660     0.01656841     0.06718233
    133      1      O           0.04187664     0.01047289     0.04108352
    134      2      H          -0.00238410     0.00309304    -0.01169272
    135      2      H          -0.01435382    -0.05715846     0.00189086
    136      1      O           0.00801207     0.07846504     0.04777798
    137      2      H          -0.02802181     0.02610346     0.04609858
    138      2      H          -0.00220879    -0.01292365    -0.04024081
    139      1      O           0.04266534     0.02917686     0.12313466
    140      2      H           0.02078015    -0.01489347    -0.02448047
    141      2      H          -0.08356706     0.00871616     0.00135411
    142      1      O          -0.02778176     0.11564294    -0.09450779
    143      2      H           0.00603369     0.03323673     0.00217283
    144      2      H           0.06614150    -0.07205405     0.01414780
    145      1      O           0.04411715     0.06329435     0.00778873
    146      2      H           0.00052024    -0.01406085    -0.07020813
    147      2      H           0.00792172    -0.01632489    -0.03473345
    148      1      O           0.04761875     0.07560336     0.13646131
    149      2      H          -0.01225995    -0.05976233    -0.00210794
    150      2      H           0.02110556     0.00676831     0.04087243
    151      1      O           0.02807644    -0.04310372    -0.06137593
    152      2      H          -0.00275622    -0.02870213    -0.02732742
    153      2      H          -0.00219456     0.02729577    -0.01868257
    154      1      O          -0.00537565    -0.05062362    -0.12469271
    155      2      H          -0.00433915     0.00704872     0.03477946
    156      2      H           0.01365155     0.01237991     0.03310248
    157      1      O          -0.05006686     0.08720742    -0.11690269
    158      2      H           0.05116756    -0.02657052     0.00287965
    159      2      H          -0.00585212    -0.01884269     0.00219530
    160      1      O           0.00625054     0.09702085    -0.04146373
    161      2      H          -0.02218094    -0.00376855     0.03435151
    162      2      H          -0.00139845    -0.00630308    -0.01629224
    163      1      O          -0.04579428     0.02547448     0.10943510
    164      2      H           0.01790248    -0.03104272    -0.13423296
    165      2      H           0.01458990    -0.03343305     0.04250031
    166      1      O           0.02628831    -0.02994053     0.05507066
    167      2      H           0.02617821     0.00768130    -0.04244354
    168      2      H          -0.01610905    -0.00850116     0.07628541
    169      1      O           0.02613254    -0.05998543     0.00829575
    170      2      H           0.01365443     0.04286087     0.02615094
    171      2      H          -0.03875229     0.01787335     0.05936038
    172      1      O          -0.03252702    -0.02091012     0.10556297
    173      2      H           0.01088370    -0.00651766     0.01342660
    174      2      H           0.02706730     0.03850182    -0.01901631
    175      1      O           0.01838702     0.03722403     0.16712411
    176      2      H           0.01689535    -0.02150582    -0.04126553
    177      2      H          -0.02809712     0.05331124    -0.06022615
    178      1      O           0.07643148     0.03996685    -0.03551132
    179      2      H          -0.05863676    -0.03069386     0.00634951
    180      2      H          -0.00344531     0.01457464     0.02614495
    181      1      O           0.03449715     0.07766122     0.00448325
    182      2      H          -0.02732483    -0.02526094    -0.03072780
    183      2      H          -0.00701783     0.01695751    -0.00570680
    184      1      O          -0.01048673     0.03195519    -0.11716680
    185      2      H          -0.00845480    -0.01832697    -0.02790854
    186      2      H          -0.00551847    -0.02922500     0.03417737
    187      1      O           0.02109597     0.07805024     0.09032008
    188      2      H           0.01377602     0.01426119     0.04658926
    189      2      H          -0.00242512    -0.00230368     0.01146434
    190      1      O          -0.03697964    -0.08396306    -0.04740959
    191      2      H          -0.01243092     0.02654006    -0.04564960
    192      2      H           0.00222117    -0.02489334     0.02617301
 SUM OF ATOMIC FORCES           0.12633143    -0.10955757     0.61268207     0.63509197

 -------------------------------------------------------------------------------
 -                                                                             -
 -                                DBCSR STATISTICS                             -
 -                                                                             -
 -------------------------------------------------------------------------------
 COUNTER                                    TOTAL       BLAS       SMM       ACC
 flops     5 x     5 x   256            771302400       0.0%    100.0%      0.0%
 flops    13 x     5 x   256            970844160       0.0%    100.0%      0.0%
 flops     5 x    13 x   256            974138880       0.0%    100.0%      0.0%
 flops    13 x    13 x   256           1353470976       0.0%    100.0%      0.0%
 flops inhomo. stacks                           0       0.0%      0.0%      0.0%
 flops total                         4.069756E+09       0.0%    100.0%      0.0%
 flops max/rank                      4.069756E+09       0.0%    100.0%      0.0%
 matmuls inhomo. stacks                         0       0.0%      0.0%      0.0%
 matmuls total                             134343       0.0%    100.0%      0.0%
 number of processed stacks                  2574       0.0%    100.0%      0.0%
 average stack size                                     0.0      52.2       0.0
 marketing flops                    36.609982E+09
 -------------------------------------------------------------------------------
 # multiplications                             33
 max memory usage/rank              25.806094E+09
 # max total images/rank                        1
 # max 3D layers                                1
 # MPI messages exchanged                       0
 MPI messages size (bytes):
  total size                         0.000000E+00
  min size                           0.000000E+00
  max size                           0.000000E+00
  average size                       0.000000E+00
 MPI breakdown and total messages size (bytes):
             size <=      128                   0                        0
       128 < size <=     8192                   0                        0
      8192 < size <=    32768                   0                        0
     32768 < size <=   131072                   0                        0
    131072 < size <=  4194304                   0                        0
   4194304 < size <= 16777216                   0                        0
  16777216 < size                               0                        0
 -------------------------------------------------------------------------------

 MEMORY| Estimated peak process memory [MiB]                               24613

 -------------------------------------------------------------------------------
 -                                                                             -
 -                           R E F E R E N C E S                               -
 -                                                                             -
 -------------------------------------------------------------------------------
 
 CP2K version 7.1, the CP2K developers group (2019).
 CP2K is freely available from https://www.cp2k.org/ .

 Schuett, Ole; Messmer, Peter; Hutter, Juerg; VandeVondele, Joost. 
 Electronic Structure Calculations on Graphics Processing Units, John
 Wiley & Sons, Ltd, 173-190 (2016). 
 GPU-Accelerated Sparse Matrix-Matrix Multiplication for
 Linear Scaling Density Functional Theory.
 https://dx.doi.org/10.1002/9781118670712.ch8

 Borstnik, U; VandeVondele, J; Weber, V; Hutter, J. 
 PARALLEL COMPUTING, 40 (5-6), 47-58 (2014). 
 Sparse matrix multiplication: The distributed block-compressed sparse
 row library.
 https://dx.doi.org/10.1016/j.parco.2014.03.012

 Hutter, J; Iannuzzi, M; Schiffmann, F; VandeVondele, J. 
 WIREs Comput Mol Sci., 4 (1), 15-25 (2014). 
 CP2K: atomistic simulations of condensed matter systems.
 https://dx.doi.org/10.1002/wcms.1159

 Krack, M. 
 THEORETICAL CHEMISTRY ACCOUNTS, 114 (1-3), 145-152 (2005). 
 Pseudopotentials for H to Kr optimized for gradient-corrected
 exchange-correlation functionals.
 https://dx.doi.org/10.1007/s00214-005-0655-y

 VandeVondele, J; Krack, M; Mohamed, F; Parrinello, M; Chassaing, T;
 Hutter, J. COMPUTER PHYSICS COMMUNICATIONS, 167 (2), 103-128 (2005). 
 QUICKSTEP: Fast and accurate density functional calculations using a
 mixed Gaussian and plane waves approach.
 https://dx.doi.org/10.1016/j.cpc.2004.12.014

 Frigo, M; Johnson, SG. 
 PROCEEDINGS OF THE IEEE, 93 (2), 216-231 (2005). 
 The design and implementation of FFTW3.
 https://dx.doi.org/10.1109/JPROC.2004.840301

 Hartwigsen, C; Goedecker, S; Hutter, J. 
 PHYSICAL REVIEW B, 58 (7), 3641-3662 (1998). 
 Relativistic separable dual-space Gaussian pseudopotentials from H to Rn.
 https://dx.doi.org/10.1103/PhysRevB.58.3641

 Lippert, G; Hutter, J; Parrinello, M. 
 MOLECULAR PHYSICS, 92 (3), 477-487 (1997). 
 A hybrid Gaussian and plane wave density functional scheme.
 https://dx.doi.org/10.1080/002689797170220

 Goedecker, S; Teter, M; Hutter, J. 
 PHYSICAL REVIEW B, 54 (3), 1703-1710 (1996). 
 Separable dual-space Gaussian pseudopotentials.
 https://dx.doi.org/10.1103/PhysRevB.54.1703


 -------------------------------------------------------------------------------
 -                                                                             -
 -                                T I M I N G                                  -
 -                                                                             -
 -------------------------------------------------------------------------------
 SUBROUTINE                       CALLS  ASD         SELF TIME        TOTAL TIME
                                MAXIMUM       AVERAGE  MAXIMUM  AVERAGE  MAXIMUM
 CP2K                                 1  1.0    0.733    0.733  865.676  865.676
 qs_forces                            1  2.0    0.000    0.000  853.386  853.386
 qs_energies                          1  3.0    0.000    0.000  848.387  848.387
 scf_env_do_scf                       1  4.0    0.000    0.000  835.440  835.440
 scf_env_do_scf_inner_loop           32  5.0    0.005    0.005  835.440  835.440
 gspace_mixing                       31  6.0    4.643    4.643  328.219  328.219
 broyden_mixing                      31  7.0  289.781  289.781  289.782  289.782
 qs_scf_new_mos                      32  6.0    0.001    0.001  218.054  218.054
 eigensolver                         32  7.0    0.004    0.004  212.039  212.039
 pw_transfer                        428  9.9    0.042    0.042  181.415  181.415
 fft_wrap_pw1pw2                    362 10.9    0.005    0.005  177.480  177.480
 rebuild_ks_matrix                   33  6.9    0.000    0.000  164.518  164.518
 qs_ks_build_kohn_sham_matrix        33  7.9    0.010    0.010  164.518  164.518
 fft_wrap_pw1pw2_70                 164 11.2   13.681   13.681  162.438  162.438
 qs_ks_update_qs_env                 32  6.0    0.000    0.000  159.713  159.713
 cp_fm_syevd                         32  8.0  144.250  144.250  144.408  144.408
 qs_rho_update_rho                   33  6.0    0.000    0.000  132.844  132.844
 calculate_rho_elec                  33  7.0   47.614   47.614  132.844  132.844
 fft3d_s                            363 12.8   91.447   91.447   91.456   91.456
 density_rs2pw                       33  8.0    0.004    0.004   84.034   84.034
 cp_fm_cholesky_restore              96  8.0   67.492   67.492   67.492   67.492
 pw_scatter_s                       196 13.1   54.545   54.545   54.545   54.545
 sum_up_and_integrate                33  8.9    2.229    2.229   52.106   52.106
 integrate_v_rspace                  33  9.9    2.607    2.607   49.876   49.876
 pw_poisson_solve                    33  8.9   44.123   44.123   48.344   48.344
 potential_pw2rs                     33 10.9    0.325    0.325   45.923   45.923
 qs_vxc_create                       33  8.9    0.001    0.001   22.062   22.062
 xc_vxc_pw_create                    33  9.9    4.910    4.910   22.061   22.061
 -------------------------------------------------------------------------------

 The number of warnings for this run is : 0
 
 -------------------------------------------------------------------------------
  **** **** ******  **  PROGRAM ENDED AT                 2020-05-22 01:34:23.904
 ***** ** ***  *** **   PROGRAM RAN ON                                   gnode39
 **    ****   ******    PROGRAM RAN BY                               mayank.modi
 ***** **    ** ** **   PROGRAM PROCESS ID                                 35494
  **** **  *******  **  PROGRAM STOPPED IN /home/mayank.modi/ab-initio-thermodyn
                                           amics-of-water/mayank/cp2k_energy_cal
                                           culations
