 DBCSR| CPU Multiplication driver                                           XSMM
 DBCSR| Multrec recursion limit                                              512
 DBCSR| Multiplication stack size                                           1000
 DBCSR| Maximum elements for images                                    UNLIMITED
 DBCSR| Multiplicative factor virtual images                                   1
 DBCSR| Use multiplication densification                                       T
 DBCSR| Multiplication size stacks                                             3


  **** **** ******  **  PROGRAM STARTED AT               2020-05-21 05:55:05.979
 ***** ** ***  *** **   PROGRAM STARTED ON                               gnode39
 **    ****   ******    PROGRAM STARTED BY                           mayank.modi
 ***** **    ** ** **   PROGRAM PROCESS ID                                 29718
  **** **  *******  **  PROGRAM STARTED IN /home/mayank.modi/ab-initio-thermodyn
                                           amics-of-water/mayank/cp2k_energy_cal
                                           culations

 CP2K| version string:                                          CP2K version 7.1
 CP2K| source code revision number:                                  git:e635599
 CP2K| cp2kflags: omp libint fftw3 libxc xsmm spglib                            
 CP2K| is freely available from                            https://www.cp2k.org/
 CP2K| Program compiled at                          Mon Dec 23 19:23:12 CET 2019
 CP2K| Program compiled on                                                pc9404
 CP2K| Program compiled for                                Linux-x86-64-gfortran
 CP2K| Data directory path                                        /opt/cp2k/data
 CP2K| Input file name                                              ./input59.in

 GLOBAL| Force Environment number                                              1
 GLOBAL| Basis set file name                                           BASIS_SET
 GLOBAL| Potential file name                                      GTH_POTENTIALS
 GLOBAL| MM Potential file name                                     MM_POTENTIAL
 GLOBAL| Coordinate file name                                      __STD_INPUT__
 GLOBAL| Method name                                                        CP2K
 GLOBAL| Project name                                                   H2O_bulk
 GLOBAL| Preferred FFT library                                             FFTW3
 GLOBAL| Preferred diagonalization lib.                                       SL
 GLOBAL| Run type                                                   ENERGY_FORCE
 GLOBAL| All-to-all communication in single precision                          F
 GLOBAL| FFTs using library dependent lengths                                  F
 GLOBAL| Global print level                                                  LOW
 GLOBAL| MPI I/O enabled                                                       T
 GLOBAL| Total number of message passing processes                             1
 GLOBAL| Number of threads for this process                                   20
 GLOBAL| This output is from process                                           0
 GLOBAL| CPU model name                Intel(R) Xeon(R) CPU E5-2640 v4 @ 2.40GHz
 GLOBAL| CPUID                                                              1002
 GLOBAL| Compiled for CPUID                                                    0

 MEMORY| system memory details [Kb]
 MEMORY|                        rank 0           min           max       average
 MEMORY| MemTotal            131898148     131898148     131898148     131898148
 MEMORY| MemFree              88706828      88706828      88706828      88706828
 MEMORY| Buffers               3187096       3187096       3187096       3187096
 MEMORY| Cached               34124508      34124508      34124508      34124508
 MEMORY| Slab                  3916484       3916484       3916484       3916484
 MEMORY| SReclaimable          3255756       3255756       3255756       3255756
 MEMORY| MemLikelyFree       129274188     129274188     129274188     129274188


 GENERATE|  Preliminary Number of Bonds generated:                             0
 GENERATE|  Achieved consistency in connectivity generation.

 *******************************************************************************
 *******************************************************************************
 **                                                                           **
 **     #####                         ##              ##                      **
 **    ##   ##            ##          ##              ##                      **
 **   ##     ##                       ##            ######                    **
 **   ##     ##  ##   ##  ##   #####  ##  ##   ####   ##    #####    #####    **
 **   ##     ##  ##   ##  ##  ##      ## ##   ##      ##   ##   ##  ##   ##   **
 **   ##  ## ##  ##   ##  ##  ##      ####     ###    ##   ######   ######    **
 **    ##  ###   ##   ##  ##  ##      ## ##      ##   ##   ##       ##        **
 **     #######   #####   ##   #####  ##  ##  ####    ##    #####   ##        **
 **           ##                                                    ##        **
 **                                                                           **
 **                                                ... make the atoms dance   **
 **                                                                           **
 **            Copyright (C) by CP2K developers group (2000 - 2019)           **
 **                                                                           **
 *******************************************************************************


 TOTAL NUMBERS AND MAXIMUM NUMBERS

  Total number of            - Atomic kinds:                                   2
                             - Atoms:                                        192
                             - Shell sets:                                   384
                             - Shells:                                       704
                             - Primitive Cartesian functions:                960
                             - Cartesian basis functions:                   1536
                             - Spherical basis functions:                   1472

  Maximum angular momentum of- Orbital basis functions:                        2
                             - Local part of the GTH pseudopotential:          2
                             - Non-local part of the GTH pseudopotential:      0


 SCF PARAMETERS         Density guess:                                    ATOMIC
                        --------------------------------------------------------
                        max_scf:                                             300
                        max_scf_history:                                       0
                        max_diis:                                              4
                        --------------------------------------------------------
                        eps_scf:                                        1.00E-07
                        eps_scf_history:                                0.00E+00
                        eps_diis:                                       1.00E-01
                        eps_eigval:                                     1.00E-05
                        --------------------------------------------------------
                        level_shift [a.u.]:                                 0.00
                        --------------------------------------------------------
                        Mixing method:                            BROYDEN_MIXING
                                                charge density mixing in g-space
                        --------------------------------------------------------
                        No outer SCF

 Number of electrons:                                                        512
 Number of occupied orbitals:                                                256
 Number of molecular orbitals:                                               256

 Number of orbital functions:                                               1472
 Number of independent orbital functions:                                   1472

 Extrapolation method: initial_guess


 SCF WAVEFUNCTION OPTIMIZATION

  Step     Update method      Time    Convergence         Total energy    Change
  ------------------------------------------------------------------------------
     1 NoMix/Diag. 0.40E+00   10.3     1.01155654     -1087.3717573263 -1.09E+03
     2 Broy./Diag. 0.40E+00   15.1     0.29900784     -1013.3166589879  7.41E+01
     3 Broy./Diag. 0.40E+00   15.6     0.02614255     -1094.7156970949 -8.14E+01
     4 Broy./Diag. 0.40E+00   16.0     0.02925666     -1094.3593655106  3.56E-01
     5 Broy./Diag. 0.40E+00   17.0     0.00247865     -1095.2457082016 -8.86E-01
     6 Broy./Diag. 0.40E+00   17.8     0.00398591     -1095.2770351352 -3.13E-02
     7 Broy./Diag. 0.40E+00   18.5     0.00304080     -1095.4132652483 -1.36E-01
     8 Broy./Diag. 0.40E+00   19.5     0.00437917     -1095.5378889154 -1.25E-01
     9 Broy./Diag. 0.40E+00   23.1     0.00344863     -1095.6148388462 -7.69E-02
    10 Broy./Diag. 0.40E+00   26.1     0.00165073     -1095.6427905135 -2.80E-02
    11 Broy./Diag. 0.40E+00   26.3     0.00129812     -1095.6133846866  2.94E-02
    12 Broy./Diag. 0.40E+00   26.8     0.00054537     -1095.6202846432 -6.90E-03
    13 Broy./Diag. 0.40E+00   24.8     0.00057659     -1095.6418788264 -2.16E-02
    14 Broy./Diag. 0.40E+00   24.4     0.00025563     -1095.6444488599 -2.57E-03
    15 Broy./Diag. 0.40E+00   25.3     0.00031443     -1095.6375395536  6.91E-03
    16 Broy./Diag. 0.40E+00   26.4     0.00017633     -1095.6387442891 -1.20E-03
    17 Broy./Diag. 0.40E+00   24.5     0.00007407     -1095.6396098494 -8.66E-04
    18 Broy./Diag. 0.40E+00   24.2     0.00004560     -1095.6392025655  4.07E-04
    19 Broy./Diag. 0.40E+00   25.1     0.00001986     -1095.6392711571 -6.86E-05
    20 Broy./Diag. 0.40E+00   24.3     0.00001238     -1095.6388748492  3.96E-04
    21 Broy./Diag. 0.40E+00   24.2     0.00001232     -1095.6391331184 -2.58E-04
    22 Broy./Diag. 0.40E+00   26.3     0.00000642     -1095.6392392248 -1.06E-04
    23 Broy./Diag. 0.40E+00   23.9     0.00000518     -1095.6391459857  9.32E-05
    24 Broy./Diag. 0.40E+00   23.0     0.00000261     -1095.6390977464  4.82E-05
    25 Broy./Diag. 0.40E+00   24.1     0.00000310     -1095.6390803901  1.74E-05
    26 Broy./Diag. 0.40E+00   23.7     0.00000152     -1095.6391121186 -3.17E-05
    27 Broy./Diag. 0.40E+00   22.5     0.00000065     -1095.6391206271 -8.51E-06
    28 Broy./Diag. 0.40E+00   24.1     0.00000069     -1095.6391118859  8.74E-06
    29 Broy./Diag. 0.40E+00   23.8     0.00000035     -1095.6391031983  8.69E-06
    30 Broy./Diag. 0.40E+00   25.0     0.00000031     -1095.6391017262  1.47E-06
    31 Broy./Diag. 0.40E+00   28.9     0.00000021     -1095.6391014154  3.11E-07
    32 Broy./Diag. 0.40E+00   26.5     0.00000009     -1095.6391006985  7.17E-07

  *** SCF run converged in    32 steps ***


  Electronic density on regular grids:       -511.9999225890        0.0000774110
  Core density on regular grids:              512.0004814287        0.0004814287
  Total charge density on r-space grids:        0.0005588397
  Total charge density g-space grids:           0.0005588397

  Overlap energy of the core charge distribution:               0.00000506796345
  Self energy of the core charge distribution:              -2838.21791979120962
  Core Hamiltonian energy:                                    821.71194199041724
  Hartree energy:                                            1185.70564993251992
  Exchange-correlation energy:                               -264.83877789820451

  Total energy:                                             -1095.63910069851363

 ENERGY| Total FORCE_EVAL ( QS ) energy (a.u.):            -1095.639102257994409


 ATOMIC FORCES in [a.u.]

 # Atom   Kind   Element          X              Y              Z
      1      1      O           0.08851533    -0.00068188     0.04080238
      2      2      H          -0.01205549     0.00624914     0.00139746
      3      2      H          -0.05038176     0.02784949     0.06914021
      4      1      O           0.03346458     0.00374839     0.10975728
      5      2      H          -0.01908423     0.06261383     0.02479540
      6      2      H          -0.00248972    -0.04095637    -0.05369959
      7      1      O          -0.03367407    -0.06144251    -0.02751813
      8      2      H           0.01928084    -0.01797810     0.02283688
      9      2      H           0.00935650     0.04889033    -0.05670842
     10      1      O           0.01856087     0.05536169     0.11823233
     11      2      H          -0.01499106     0.03690426     0.01926951
     12      2      H           0.00754784     0.01035280    -0.03843990
     13      1      O           0.01984359    -0.00835056     0.08407024
     14      2      H           0.01479224     0.04158193     0.02332397
     15      2      H          -0.02657530     0.01179853    -0.00660658
     16      1      O           0.04863986     0.05511404    -0.15356986
     17      2      H          -0.00879214    -0.05863469    -0.04068781
     18      2      H          -0.04847742    -0.00469343     0.03346366
     19      1      O           0.05405481    -0.01745655     0.00714229
     20      2      H          -0.03803552    -0.07230844    -0.00818252
     21      2      H           0.01140086    -0.02301571     0.02957748
     22      1      O          -0.08883142    -0.00954937    -0.04321968
     23      2      H           0.11254585     0.02262002    -0.03476275
     24      2      H          -0.01954729     0.04625396    -0.02179114
     25      1      O          -0.01267882    -0.00931246     0.06831370
     26      2      H           0.02454391    -0.00154539     0.05636774
     27      2      H          -0.03523515    -0.01997773    -0.04736301
     28      1      O          -0.01361707    -0.03824662    -0.11253539
     29      2      H          -0.00122726     0.01442188    -0.03001771
     30      2      H           0.02326610    -0.00572769    -0.00172076
     31      1      O          -0.02940625     0.05484336    -0.06102430
     32      2      H           0.02861856     0.04214592     0.02779138
     33      2      H           0.00766047    -0.01862496     0.01538458
     34      1      O           0.07178261    -0.07759688     0.04088828
     35      2      H           0.00952704    -0.04910096    -0.03492812
     36      2      H          -0.04595921     0.05163081     0.01092713
     37      1      O           0.01155075     0.04367894     0.05348091
     38      2      H           0.01949149     0.01985905     0.03750147
     39      2      H          -0.04602281    -0.05704352    -0.02222930
     40      1      O          -0.03400393     0.09159382     0.00406872
     41      2      H          -0.00876402     0.01063158    -0.02555092
     42      2      H           0.01639963    -0.02370656     0.02918215
     43      1      O          -0.05219611    -0.01410515     0.03146192
     44      2      H           0.01900128    -0.02816718     0.00065045
     45      2      H           0.02350050     0.01325414     0.00077273
     46      1      O           0.01083623     0.05667738     0.07776759
     47      2      H          -0.03871662     0.03351909    -0.04303376
     48      2      H           0.00727601    -0.00923279    -0.00158221
     49      1      O          -0.00382716     0.00940285    -0.08436735
     50      2      H          -0.01719211    -0.00233791    -0.03732266
     51      2      H           0.02616308    -0.03681478    -0.03029033
     52      1      O          -0.00129676     0.07076014     0.00831458
     53      2      H          -0.02881990    -0.03430246    -0.05589174
     54      2      H           0.03164898    -0.00687608    -0.00264762
     55      1      O          -0.01537927    -0.09311553     0.11548515
     56      2      H           0.00961150     0.06607181     0.02853742
     57      2      H          -0.01908183     0.02488362    -0.03627788
     58      1      O           0.05297250     0.06631301     0.13922110
     59      2      H           0.00401235     0.01385900     0.00468874
     60      2      H          -0.02663582    -0.03941383    -0.07366700
     61      1      O           0.04334905    -0.00893304    -0.00815464
     62      2      H          -0.00232548    -0.01831682    -0.00915674
     63      2      H          -0.00077168    -0.00616458     0.05885302
     64      1      O           0.01358825     0.10739009     0.12985817
     65      2      H           0.04318376    -0.02928533     0.01669883
     66      2      H          -0.05591060    -0.00424873    -0.07337618
     67      1      O          -0.03947959     0.01773213     0.04702463
     68      2      H          -0.00841348    -0.03555302     0.00843057
     69      2      H           0.04461144     0.05257426     0.03662973
     70      1      O          -0.00376293    -0.09721281    -0.01266773
     71      2      H          -0.02414170    -0.02026681     0.01277300
     72      2      H          -0.00147302     0.03611606    -0.00537571
     73      1      O          -0.00381696     0.14095194    -0.01589944
     74      2      H           0.03690434    -0.05369358     0.04144940
     75      2      H          -0.02002420    -0.03566500    -0.11772092
     76      1      O           0.01455771    -0.09910592     0.14421946
     77      2      H           0.02043983    -0.03148796    -0.03774131
     78      2      H          -0.00438337     0.07000300    -0.09836191
     79      1      O          -0.07588743    -0.10817893     0.09946299
     80      2      H           0.05201883    -0.00186947     0.03698042
     81      2      H          -0.00756430     0.01431692    -0.04613151
     82      1      O          -0.03610109     0.05306582     0.04299311
     83      2      H          -0.00220591     0.01098055    -0.01736148
     84      2      H           0.02005443    -0.01045055     0.07132770
     85      1      O           0.01744416    -0.06048701     0.06713037
     86      2      H           0.00741838     0.02963207    -0.03202234
     87      2      H          -0.00485606     0.04282095    -0.03378187
     88      1      O          -0.00536475     0.02246135     0.02308098
     89      2      H           0.02646747    -0.02106453    -0.04080239
     90      2      H           0.00369345     0.07956704    -0.07341326
     91      1      O           0.01900725     0.11955996    -0.13703427
     92      2      H           0.02881244    -0.04120832     0.04929288
     93      2      H          -0.05688126    -0.02512235    -0.02815743
     94      1      O          -0.00304957     0.02700774    -0.14829621
     95      2      H           0.03672298     0.00877571     0.05141172
     96      2      H          -0.00790141    -0.01313635     0.00977736
     97      1      O          -0.07852538    -0.01270269    -0.04472071
     98      2      H           0.01609833     0.04429762     0.00000314
     99      2      H           0.05560385    -0.06500433     0.04003496
    100      1      O           0.03681836     0.05197148     0.08282725
    101      2      H          -0.00656761     0.02775742     0.02684203
    102      2      H          -0.01602424     0.02017219     0.03859698
    103      1      O          -0.04564449    -0.10112206     0.10425915
    104      2      H           0.01744765     0.01373217    -0.01289221
    105      2      H           0.00914359     0.05813925     0.02510578
    106      1      O          -0.01767233     0.08658809    -0.09302945
    107      2      H          -0.00280736    -0.03005164     0.04435610
    108      2      H           0.01205203    -0.03733317    -0.01879232
    109      1      O           0.00662178    -0.03410971     0.12590866
    110      2      H           0.01979698     0.02903129    -0.04721274
    111      2      H          -0.00335646     0.00524135     0.03765877
    112      1      O          -0.08203947     0.08413638     0.03980576
    113      2      H           0.01535116     0.01521264     0.02127043
    114      2      H           0.05151593    -0.01522321    -0.03503312
    115      1      O          -0.02504097    -0.05939704    -0.11657034
    116      2      H          -0.02580964     0.02971248    -0.03449175
    117      2      H           0.02970511    -0.00092414    -0.01197102
    118      1      O          -0.04190258     0.00505990    -0.07217018
    119      2      H           0.02205213     0.02315493     0.02331644
    120      2      H           0.00416393     0.01044087    -0.04130386
    121      1      O           0.03155624     0.04662824     0.07924368
    122      2      H           0.00259991    -0.01202968     0.03135111
    123      2      H          -0.01527285    -0.01028573     0.05207252
    124      1      O          -0.00615744     0.02432937    -0.14495093
    125      2      H          -0.04886960    -0.01969810     0.00312293
    126      2      H           0.02113626    -0.04068202    -0.01203942
    127      1      O           0.02270511     0.08074347     0.05775426
    128      2      H          -0.01910797    -0.00967901     0.02417065
    129      2      H           0.01302182     0.01154871     0.03861058
    130      1      O           0.00434932    -0.08689849    -0.00938404
    131      2      H           0.00075392     0.00218889     0.06517304
    132      2      H           0.00191989     0.00299717     0.01191810
    133      1      O          -0.05207675    -0.02410834     0.04720944
    134      2      H           0.04780004     0.01106077    -0.00209836
    135      2      H           0.00050608     0.00975481    -0.01883935
    136      1      O           0.05521207     0.04004762    -0.08164578
    137      2      H          -0.00232414    -0.02930035     0.00811496
    138      2      H          -0.03456868    -0.05127787     0.10528912
    139      1      O           0.03656941    -0.06695806     0.05675096
    140      2      H           0.01701014    -0.00636577    -0.02142971
    141      2      H          -0.01297711    -0.03609111    -0.04874660
    142      1      O          -0.03085176    -0.05434033     0.13573111
    143      2      H           0.02408568     0.02524751    -0.04612598
    144      2      H           0.00561375     0.00269435    -0.01571431
    145      1      O          -0.02205184     0.06445908    -0.05608633
    146      2      H           0.01072336    -0.00270673     0.02861115
    147      2      H           0.00474034     0.02873007    -0.02832743
    148      1      O           0.01948027     0.01108288    -0.03116638
    149      2      H          -0.02900980     0.01205923     0.01143499
    150      2      H           0.02170098    -0.01232150     0.00561511
    151      1      O          -0.02033342    -0.04518319     0.07692042
    152      2      H           0.02441652    -0.00090494    -0.07613157
    153      2      H           0.00530138     0.02956774     0.00510530
    154      1      O           0.00337691    -0.01695248     0.10193731
    155      2      H          -0.00389392     0.01415856     0.02028745
    156      2      H          -0.00763353     0.00721096    -0.03941103
    157      1      O          -0.02118263    -0.06670724    -0.09878431
    158      2      H           0.05368593     0.00162757     0.01542653
    159      2      H          -0.03016530     0.00797099     0.06312938
    160      1      O           0.02721720    -0.04255632     0.13174899
    161      2      H          -0.00083720    -0.05160903    -0.02987802
    162      2      H          -0.01929662    -0.01767893    -0.09558126
    163      1      O          -0.06290408     0.00187201     0.02615373
    164      2      H          -0.02795426    -0.02434093     0.02848957
    165      2      H           0.03964547    -0.09479810    -0.01316087
    166      1      O          -0.05154167    -0.06017500     0.13121474
    167      2      H           0.02817438     0.00045606    -0.05809627
    168      2      H          -0.00186097    -0.01264044    -0.00818734
    169      1      O           0.00106503    -0.10810619     0.06462983
    170      2      H          -0.02677264     0.01624090     0.01909524
    171      2      H           0.04096927    -0.00968149    -0.06095283
    172      1      O          -0.01067543     0.04835066     0.03537701
    173      2      H          -0.00194599    -0.02220094    -0.01787216
    174      2      H           0.01058397    -0.00133236    -0.01717034
    175      1      O          -0.01161151     0.02045077    -0.10117935
    176      2      H           0.00375912     0.00764601     0.03217964
    177      2      H           0.01990470     0.04932139    -0.01610016
    178      1      O          -0.02951680     0.09104470     0.11586135
    179      2      H           0.00622021    -0.01033362    -0.02412183
    180      2      H          -0.00877883     0.00258607    -0.05591206
    181      1      O           0.00496834     0.05266264     0.01732576
    182      2      H           0.00066140     0.02546836    -0.01428456
    183      2      H          -0.01142779     0.03740678    -0.03104857
    184      1      O          -0.05841542     0.06082643     0.19124837
    185      2      H           0.00795569     0.06753022    -0.02507351
    186      2      H           0.02641262    -0.09922209    -0.02477157
    187      1      O           0.08518719    -0.07253526    -0.12581926
    188      2      H           0.00934062    -0.00301506    -0.02674397
    189      2      H          -0.04633562     0.02736692     0.04081834
    190      1      O           0.03368647    -0.03223051    -0.09616146
    191      2      H           0.00727772    -0.00956757     0.04313054
    192      2      H           0.00916272     0.02982087    -0.04818857
 SUM OF ATOMIC FORCES           0.12191573     0.20149731     0.54378294     0.59259134

 -------------------------------------------------------------------------------
 -                                                                             -
 -                                DBCSR STATISTICS                             -
 -                                                                             -
 -------------------------------------------------------------------------------
 COUNTER                                    TOTAL       BLAS       SMM       ACC
 flops     5 x     5 x   256            863385600       0.0%    100.0%      0.0%
 flops     5 x    13 x   256           1093847040       0.0%    100.0%      0.0%
 flops    13 x     5 x   256           1096043520       0.0%    100.0%      0.0%
 flops    13 x    13 x   256           1504808448       0.0%    100.0%      0.0%
 flops inhomo. stacks                           0       0.0%      0.0%      0.0%
 flops total                         4.558085E+09       0.0%    100.0%      0.0%
 flops max/rank                      4.558085E+09       0.0%    100.0%      0.0%
 matmuls inhomo. stacks                         0       0.0%      0.0%      0.0%
 matmuls total                             150645       0.0%    100.0%      0.0%
 number of processed stacks                  2574       0.0%    100.0%      0.0%
 average stack size                                     0.0      58.5       0.0
 marketing flops                    36.609982E+09
 -------------------------------------------------------------------------------
 # multiplications                             33
 max memory usage/rank              25.807585E+09
 # max total images/rank                        1
 # max 3D layers                                1
 # MPI messages exchanged                       0
 MPI messages size (bytes):
  total size                         0.000000E+00
  min size                           0.000000E+00
  max size                           0.000000E+00
  average size                       0.000000E+00
 MPI breakdown and total messages size (bytes):
             size <=      128                   0                        0
       128 < size <=     8192                   0                        0
      8192 < size <=    32768                   0                        0
     32768 < size <=   131072                   0                        0
    131072 < size <=  4194304                   0                        0
   4194304 < size <= 16777216                   0                        0
  16777216 < size                               0                        0
 -------------------------------------------------------------------------------

 MEMORY| Estimated peak process memory [MiB]                               24614

 -------------------------------------------------------------------------------
 -                                                                             -
 -                           R E F E R E N C E S                               -
 -                                                                             -
 -------------------------------------------------------------------------------
 
 CP2K version 7.1, the CP2K developers group (2019).
 CP2K is freely available from https://www.cp2k.org/ .

 Schuett, Ole; Messmer, Peter; Hutter, Juerg; VandeVondele, Joost. 
 Electronic Structure Calculations on Graphics Processing Units, John
 Wiley & Sons, Ltd, 173-190 (2016). 
 GPU-Accelerated Sparse Matrix-Matrix Multiplication for
 Linear Scaling Density Functional Theory.
 https://dx.doi.org/10.1002/9781118670712.ch8

 Borstnik, U; VandeVondele, J; Weber, V; Hutter, J. 
 PARALLEL COMPUTING, 40 (5-6), 47-58 (2014). 
 Sparse matrix multiplication: The distributed block-compressed sparse
 row library.
 https://dx.doi.org/10.1016/j.parco.2014.03.012

 Hutter, J; Iannuzzi, M; Schiffmann, F; VandeVondele, J. 
 WIREs Comput Mol Sci., 4 (1), 15-25 (2014). 
 CP2K: atomistic simulations of condensed matter systems.
 https://dx.doi.org/10.1002/wcms.1159

 Krack, M. 
 THEORETICAL CHEMISTRY ACCOUNTS, 114 (1-3), 145-152 (2005). 
 Pseudopotentials for H to Kr optimized for gradient-corrected
 exchange-correlation functionals.
 https://dx.doi.org/10.1007/s00214-005-0655-y

 VandeVondele, J; Krack, M; Mohamed, F; Parrinello, M; Chassaing, T;
 Hutter, J. COMPUTER PHYSICS COMMUNICATIONS, 167 (2), 103-128 (2005). 
 QUICKSTEP: Fast and accurate density functional calculations using a
 mixed Gaussian and plane waves approach.
 https://dx.doi.org/10.1016/j.cpc.2004.12.014

 Frigo, M; Johnson, SG. 
 PROCEEDINGS OF THE IEEE, 93 (2), 216-231 (2005). 
 The design and implementation of FFTW3.
 https://dx.doi.org/10.1109/JPROC.2004.840301

 Hartwigsen, C; Goedecker, S; Hutter, J. 
 PHYSICAL REVIEW B, 58 (7), 3641-3662 (1998). 
 Relativistic separable dual-space Gaussian pseudopotentials from H to Rn.
 https://dx.doi.org/10.1103/PhysRevB.58.3641

 Lippert, G; Hutter, J; Parrinello, M. 
 MOLECULAR PHYSICS, 92 (3), 477-487 (1997). 
 A hybrid Gaussian and plane wave density functional scheme.
 https://dx.doi.org/10.1080/002689797170220

 Goedecker, S; Teter, M; Hutter, J. 
 PHYSICAL REVIEW B, 54 (3), 1703-1710 (1996). 
 Separable dual-space Gaussian pseudopotentials.
 https://dx.doi.org/10.1103/PhysRevB.54.1703


 -------------------------------------------------------------------------------
 -                                                                             -
 -                                T I M I N G                                  -
 -                                                                             -
 -------------------------------------------------------------------------------
 SUBROUTINE                       CALLS  ASD         SELF TIME        TOTAL TIME
                                MAXIMUM       AVERAGE  MAXIMUM  AVERAGE  MAXIMUM
 CP2K                                 1  1.0    0.661    0.661  757.184  757.184
 qs_forces                            1  2.0    0.000    0.000  745.852  745.852
 qs_energies                          1  3.0    0.000    0.000  742.067  742.067
 scf_env_do_scf                       1  4.0    0.000    0.000  730.587  730.587
 scf_env_do_scf_inner_loop           32  5.0    0.005    0.005  730.587  730.587
 gspace_mixing                       31  6.0    4.359    4.359  298.704  298.704
 broyden_mixing                      31  7.0  268.293  268.293  268.294  268.294
 qs_scf_new_mos                      32  6.0    0.001    0.001  202.604  202.604
 eigensolver                         32  7.0    0.003    0.003  199.065  199.065
 cp_fm_syevd                         32  8.0  135.245  135.245  135.397  135.397
 pw_transfer                        428  9.9    0.039    0.039  133.827  133.827
 rebuild_ks_matrix                   33  6.9    0.000    0.000  130.520  130.520
 qs_ks_build_kohn_sham_matrix        33  7.9    0.008    0.008  130.520  130.520
 fft_wrap_pw1pw2                    362 10.9    0.005    0.005  130.385  130.385
 qs_ks_update_qs_env                 32  6.0    0.000    0.000  126.916  126.916
 fft_wrap_pw1pw2_70                 164 11.2   10.319   10.319  120.364  120.364
 qs_rho_update_rho                   33  6.0    0.000    0.000  105.242  105.242
 calculate_rho_elec                  33  7.0   42.593   42.593  105.242  105.242
 cp_fm_cholesky_restore              96  8.0   63.531   63.531   63.531   63.531
 fft3d_s                            363 12.8   63.075   63.075   63.093   63.093
 density_rs2pw                       33  8.0    0.002    0.002   61.861   61.861
 pw_scatter_s                       196 13.1   44.549   44.549   44.549   44.549
 pw_poisson_solve                    33  8.9   37.395   37.395   41.105   41.105
 sum_up_and_integrate                33  8.9    2.008    2.008   37.745   37.745
 integrate_v_rspace                  33  9.9    2.375    2.375   35.737   35.737
 potential_pw2rs                     33 10.9    0.285    0.285   32.967   32.967
 qs_vxc_create                       33  8.9    0.001    0.001   18.814   18.814
 xc_vxc_pw_create                    33  9.9    4.600    4.600   18.813   18.813
 -------------------------------------------------------------------------------

 The number of warnings for this run is : 0
 
 -------------------------------------------------------------------------------
  **** **** ******  **  PROGRAM ENDED AT                 2020-05-21 06:07:43.324
 ***** ** ***  *** **   PROGRAM RAN ON                                   gnode39
 **    ****   ******    PROGRAM RAN BY                               mayank.modi
 ***** **    ** ** **   PROGRAM PROCESS ID                                 29718
  **** **  *******  **  PROGRAM STOPPED IN /home/mayank.modi/ab-initio-thermodyn
                                           amics-of-water/mayank/cp2k_energy_cal
                                           culations
