 DBCSR| CPU Multiplication driver                                           XSMM
 DBCSR| Multrec recursion limit                                              512
 DBCSR| Multiplication stack size                                           1000
 DBCSR| Maximum elements for images                                    UNLIMITED
 DBCSR| Multiplicative factor virtual images                                   1
 DBCSR| Use multiplication densification                                       T
 DBCSR| Multiplication size stacks                                             3


  **** **** ******  **  PROGRAM STARTED AT               2020-05-21 11:58:47.146
 ***** ** ***  *** **   PROGRAM STARTED ON                               gnode39
 **    ****   ******    PROGRAM STARTED BY                           mayank.modi
 ***** **    ** ** **   PROGRAM PROCESS ID                                 16750
  **** **  *******  **  PROGRAM STARTED IN /home/mayank.modi/ab-initio-thermodyn
                                           amics-of-water/mayank/cp2k_energy_cal
                                           culations

 CP2K| version string:                                          CP2K version 7.1
 CP2K| source code revision number:                                  git:e635599
 CP2K| cp2kflags: omp libint fftw3 libxc xsmm spglib                            
 CP2K| is freely available from                            https://www.cp2k.org/
 CP2K| Program compiled at                          Mon Dec 23 19:23:12 CET 2019
 CP2K| Program compiled on                                                pc9404
 CP2K| Program compiled for                                Linux-x86-64-gfortran
 CP2K| Data directory path                                        /opt/cp2k/data
 CP2K| Input file name                                              ./input87.in

 GLOBAL| Force Environment number                                              1
 GLOBAL| Basis set file name                                           BASIS_SET
 GLOBAL| Potential file name                                      GTH_POTENTIALS
 GLOBAL| MM Potential file name                                     MM_POTENTIAL
 GLOBAL| Coordinate file name                                      __STD_INPUT__
 GLOBAL| Method name                                                        CP2K
 GLOBAL| Project name                                                   H2O_bulk
 GLOBAL| Preferred FFT library                                             FFTW3
 GLOBAL| Preferred diagonalization lib.                                       SL
 GLOBAL| Run type                                                   ENERGY_FORCE
 GLOBAL| All-to-all communication in single precision                          F
 GLOBAL| FFTs using library dependent lengths                                  F
 GLOBAL| Global print level                                                  LOW
 GLOBAL| MPI I/O enabled                                                       T
 GLOBAL| Total number of message passing processes                             1
 GLOBAL| Number of threads for this process                                   20
 GLOBAL| This output is from process                                           0
 GLOBAL| CPU model name                Intel(R) Xeon(R) CPU E5-2640 v4 @ 2.40GHz
 GLOBAL| CPUID                                                              1002
 GLOBAL| Compiled for CPUID                                                    0

 MEMORY| system memory details [Kb]
 MEMORY|                        rank 0           min           max       average
 MEMORY| MemTotal            131898148     131898148     131898148     131898148
 MEMORY| MemFree              88689976      88689976      88689976      88689976
 MEMORY| Buffers               3187120       3187120       3187120       3187120
 MEMORY| Cached               34125572      34125572      34125572      34125572
 MEMORY| Slab                  3930652       3930652       3930652       3930652
 MEMORY| SReclaimable          3268572       3268572       3268572       3268572
 MEMORY| MemLikelyFree       129271240     129271240     129271240     129271240


 GENERATE|  Preliminary Number of Bonds generated:                             0
 GENERATE|  Achieved consistency in connectivity generation.

 *******************************************************************************
 *******************************************************************************
 **                                                                           **
 **     #####                         ##              ##                      **
 **    ##   ##            ##          ##              ##                      **
 **   ##     ##                       ##            ######                    **
 **   ##     ##  ##   ##  ##   #####  ##  ##   ####   ##    #####    #####    **
 **   ##     ##  ##   ##  ##  ##      ## ##   ##      ##   ##   ##  ##   ##   **
 **   ##  ## ##  ##   ##  ##  ##      ####     ###    ##   ######   ######    **
 **    ##  ###   ##   ##  ##  ##      ## ##      ##   ##   ##       ##        **
 **     #######   #####   ##   #####  ##  ##  ####    ##    #####   ##        **
 **           ##                                                    ##        **
 **                                                                           **
 **                                                ... make the atoms dance   **
 **                                                                           **
 **            Copyright (C) by CP2K developers group (2000 - 2019)           **
 **                                                                           **
 *******************************************************************************


 TOTAL NUMBERS AND MAXIMUM NUMBERS

  Total number of            - Atomic kinds:                                   2
                             - Atoms:                                        192
                             - Shell sets:                                   384
                             - Shells:                                       704
                             - Primitive Cartesian functions:                960
                             - Cartesian basis functions:                   1536
                             - Spherical basis functions:                   1472

  Maximum angular momentum of- Orbital basis functions:                        2
                             - Local part of the GTH pseudopotential:          2
                             - Non-local part of the GTH pseudopotential:      0


 SCF PARAMETERS         Density guess:                                    ATOMIC
                        --------------------------------------------------------
                        max_scf:                                             300
                        max_scf_history:                                       0
                        max_diis:                                              4
                        --------------------------------------------------------
                        eps_scf:                                        1.00E-07
                        eps_scf_history:                                0.00E+00
                        eps_diis:                                       1.00E-01
                        eps_eigval:                                     1.00E-05
                        --------------------------------------------------------
                        level_shift [a.u.]:                                 0.00
                        --------------------------------------------------------
                        Mixing method:                            BROYDEN_MIXING
                                                charge density mixing in g-space
                        --------------------------------------------------------
                        No outer SCF

 Number of electrons:                                                        512
 Number of occupied orbitals:                                                256
 Number of molecular orbitals:                                               256

 Number of orbital functions:                                               1472
 Number of independent orbital functions:                                   1472

 Extrapolation method: initial_guess


 SCF WAVEFUNCTION OPTIMIZATION

  Step     Update method      Time    Convergence         Total energy    Change
  ------------------------------------------------------------------------------
     1 NoMix/Diag. 0.40E+00   10.9     0.98722018     -1087.4769683262 -1.09E+03
     2 Broy./Diag. 0.40E+00   16.5     0.29739833     -1013.4756755863  7.40E+01
     3 Broy./Diag. 0.40E+00   17.5     0.02862070     -1094.7029140380 -8.12E+01
     4 Broy./Diag. 0.40E+00   18.0     0.02484060     -1094.3996344854  3.03E-01
     5 Broy./Diag. 0.40E+00   19.4     0.00263965     -1095.3161216534 -9.16E-01
     6 Broy./Diag. 0.40E+00   20.3     0.00562238     -1095.3316186846 -1.55E-02
     7 Broy./Diag. 0.40E+00   20.9     0.00317006     -1095.4825127356 -1.51E-01
     8 Broy./Diag. 0.40E+00   21.8     0.00420447     -1095.5930328065 -1.11E-01
     9 Broy./Diag. 0.40E+00   24.9     0.00321334     -1095.6720371624 -7.90E-02
    10 Broy./Diag. 0.40E+00   26.2     0.00159886     -1095.6936370863 -2.16E-02
    11 Broy./Diag. 0.40E+00   24.4     0.00121807     -1095.6658511497  2.78E-02
    12 Broy./Diag. 0.40E+00   25.6     0.00049625     -1095.6706395131 -4.79E-03
    13 Broy./Diag. 0.40E+00   26.1     0.00058188     -1095.6910428683 -2.04E-02
    14 Broy./Diag. 0.40E+00   25.3     0.00023732     -1095.6948696644 -3.83E-03
    15 Broy./Diag. 0.40E+00   24.9     0.00026028     -1095.6881809270  6.69E-03
    16 Broy./Diag. 0.40E+00   25.5     0.00013469     -1095.6894151010 -1.23E-03
    17 Broy./Diag. 0.40E+00   25.6     0.00006455     -1095.6903784996 -9.63E-04
    18 Broy./Diag. 0.40E+00   24.8     0.00004361     -1095.6899727118  4.06E-04
    19 Broy./Diag. 0.40E+00   25.3     0.00001770     -1095.6902978480 -3.25E-04
    20 Broy./Diag. 0.40E+00   25.1     0.00002113     -1095.6900055716  2.92E-04
    21 Broy./Diag. 0.40E+00   25.8     0.00001696     -1095.6902643795 -2.59E-04
    22 Broy./Diag. 0.40E+00   25.0     0.00000831     -1095.6903767033 -1.12E-04
    23 Broy./Diag. 0.40E+00   25.5     0.00000524     -1095.6902576653  1.19E-04
    24 Broy./Diag. 0.40E+00   24.7     0.00000228     -1095.6902105847  4.71E-05
    25 Broy./Diag. 0.40E+00   25.6     0.00000324     -1095.6902118767 -1.29E-06
    26 Broy./Diag. 0.40E+00   25.0     0.00000128     -1095.6902362283 -2.44E-05
    27 Broy./Diag. 0.40E+00   25.4     0.00000089     -1095.6902337473  2.48E-06
    28 Broy./Diag. 0.40E+00   24.3     0.00000078     -1095.6902300559  3.69E-06
    29 Broy./Diag. 0.40E+00   24.9     0.00000039     -1095.6902231431  6.91E-06
    30 Broy./Diag. 0.40E+00   25.3     0.00000039     -1095.6902207331  2.41E-06
    31 Broy./Diag. 0.40E+00   24.6     0.00000018     -1095.6902184062  2.33E-06
    32 Broy./Diag. 0.40E+00   25.0     0.00000007     -1095.6902166976  1.71E-06

  *** SCF run converged in    32 steps ***


  Electronic density on regular grids:       -512.0005838582       -0.0005838582
  Core density on regular grids:              511.9999695094       -0.0000304906
  Total charge density on r-space grids:       -0.0006143488
  Total charge density g-space grids:          -0.0006143488

  Overlap energy of the core charge distribution:               0.00000482806104
  Self energy of the core charge distribution:              -2838.21791979120962
  Core Hamiltonian energy:                                    821.59277511977098
  Hartree energy:                                            1185.72652978941323
  Exchange-correlation energy:                               -264.79160664359500

  Total energy:                                             -1095.69021669755921

 ENERGY| Total FORCE_EVAL ( QS ) energy (a.u.):            -1095.690216736248885


 ATOMIC FORCES in [a.u.]

 # Atom   Kind   Element          X              Y              Z
      1      1      O          -0.01084130    -0.04922065     0.10707584
      2      2      H           0.02009057     0.00849736     0.01812293
      3      2      H           0.01525886    -0.00467250     0.02092790
      4      1      O           0.00878564     0.08557305     0.04545282
      5      2      H          -0.01228635    -0.00040896    -0.01049452
      6      2      H          -0.02618556    -0.03970109    -0.02799920
      7      1      O          -0.03144370    -0.01771921     0.02733208
      8      2      H          -0.00563778     0.01161772    -0.00701945
      9      2      H          -0.00555417     0.01080009    -0.00190331
     10      1      O          -0.03693417     0.00873622     0.01706659
     11      2      H          -0.02138423    -0.00541261    -0.02480338
     12      2      H           0.01069729    -0.02524311    -0.04070512
     13      1      O           0.02836500    -0.12346530    -0.10770189
     14      2      H           0.00611681     0.02474400     0.02621165
     15      2      H          -0.05603802     0.03967759     0.00796315
     16      1      O          -0.05975246    -0.01841849     0.07746784
     17      2      H          -0.00116666    -0.05083614     0.04430280
     18      2      H           0.04330572     0.01583379     0.02722540
     19      1      O          -0.00722175     0.08151773    -0.03090392
     20      2      H           0.01648664     0.01313162    -0.02868403
     21      2      H           0.01826669    -0.02344797    -0.02549000
     22      1      O          -0.04953445     0.05980381     0.06497404
     23      2      H           0.06481544    -0.00270546    -0.06346746
     24      2      H          -0.01247662     0.03210968     0.02173478
     25      1      O          -0.02491869     0.06448079    -0.08356691
     26      2      H           0.03035261    -0.02641763     0.00366392
     27      2      H          -0.00345632    -0.05257209    -0.07454372
     28      1      O          -0.07096353     0.11933924    -0.04557767
     29      2      H           0.01055942    -0.03304765     0.00432031
     30      2      H           0.02585359    -0.01993134     0.02606210
     31      1      O           0.00249163    -0.00404187     0.11208214
     32      2      H           0.00227198     0.02347608    -0.01050737
     33      2      H           0.03082291    -0.06583380    -0.00660708
     34      1      O           0.01985642     0.05386149    -0.12286520
     35      2      H          -0.01813525    -0.02500023     0.02120918
     36      2      H          -0.02489602    -0.02140419    -0.02823672
     37      1      O          -0.00371667    -0.06656097     0.04069367
     38      2      H          -0.00988094     0.02501620     0.00523561
     39      2      H           0.01584998    -0.00865849     0.02978521
     40      1      O          -0.03248062     0.03959108    -0.08676402
     41      2      H           0.00878889     0.00018782    -0.03964201
     42      2      H           0.01584092     0.01575546     0.03017947
     43      1      O          -0.03223514     0.07354698    -0.11909940
     44      2      H          -0.01747776     0.00697430    -0.00588147
     45      2      H           0.00485263    -0.03550995     0.02228479
     46      1      O           0.06912530     0.06307192     0.09360841
     47      2      H          -0.02613660    -0.00393457     0.04632130
     48      2      H          -0.02128079     0.03181516    -0.01587922
     49      1      O          -0.04440376     0.02743997     0.04167545
     50      2      H          -0.00667661     0.02713526     0.02505924
     51      2      H           0.00977165     0.00509738    -0.03182909
     52      1      O           0.02282398    -0.06738814     0.14201781
     53      2      H          -0.00292180    -0.01148224     0.01612451
     54      2      H           0.00120806     0.01019860     0.02082949
     55      1      O           0.10042650    -0.12872548    -0.07878856
     56      2      H          -0.03584942     0.10154112     0.02972402
     57      2      H          -0.03847606    -0.00594163     0.01269184
     58      1      O           0.07375666    -0.02569936     0.11208918
     59      2      H          -0.03819548     0.01282090    -0.00293506
     60      2      H          -0.00133271    -0.00217377    -0.03693503
     61      1      O          -0.01204223    -0.06918126     0.04391177
     62      2      H          -0.01162921     0.02133052     0.03164923
     63      2      H           0.04270523    -0.03555464    -0.01225953
     64      1      O           0.01852897     0.05464076    -0.03506766
     65      2      H           0.03471670    -0.00700468    -0.05171679
     66      2      H          -0.02532875     0.02934238    -0.06181635
     67      1      O          -0.06862583    -0.03897617     0.08224557
     68      2      H           0.00596701     0.01910215     0.00690569
     69      2      H           0.04983449    -0.02111976     0.00990601
     70      1      O          -0.00591344    -0.05858449     0.07570761
     71      2      H          -0.04159008     0.04724637    -0.04630646
     72      2      H           0.02726634     0.04807197    -0.03277134
     73      1      O          -0.00796788     0.07328740    -0.10253041
     74      2      H          -0.00834176    -0.00058923     0.04531101
     75      2      H          -0.00419217     0.00884103    -0.02114614
     76      1      O          -0.02711739     0.07290254    -0.05939227
     77      2      H           0.02621176    -0.05279421    -0.04106997
     78      2      H          -0.00902493    -0.01549613    -0.00206592
     79      1      O           0.02187293    -0.08937136     0.10191902
     80      2      H          -0.01355659     0.05450763     0.02825387
     81      2      H           0.01817488     0.03210423    -0.06207515
     82      1      O           0.06111084     0.06934593    -0.03952827
     83      2      H          -0.02752825     0.03742939     0.03274479
     84      2      H           0.00370772     0.00544711    -0.03733658
     85      1      O          -0.02706703    -0.03037830     0.11919116
     86      2      H           0.02992728     0.02035823     0.01085009
     87      2      H          -0.02663942     0.02844750     0.02619964
     88      1      O          -0.06213602    -0.01848145     0.10541336
     89      2      H           0.02598746    -0.07773042    -0.05652514
     90      2      H           0.00950906     0.04326935     0.02364782
     91      1      O           0.06083058     0.01711471    -0.05879878
     92      2      H          -0.02259979     0.04707464     0.05144184
     93      2      H          -0.04595187    -0.02699232    -0.02870170
     94      1      O          -0.03833795     0.06619967     0.04269606
     95      2      H           0.07462146    -0.02634247    -0.04042897
     96      2      H          -0.00781304     0.01993831    -0.00272557
     97      1      O          -0.08192208    -0.04157574     0.08736187
     98      2      H           0.01793842     0.04170272     0.03268466
     99      2      H           0.02874147    -0.01729618    -0.02202147
    100      1      O           0.06927553    -0.06549322    -0.08929564
    101      2      H          -0.05934407     0.04137894    -0.02124453
    102      2      H           0.00723888     0.00803311     0.03546562
    103      1      O          -0.00967567     0.09088463     0.16685206
    104      2      H          -0.00935045    -0.02570391    -0.04964904
    105      2      H           0.00522827     0.00808775    -0.02633959
    106      1      O          -0.03693326     0.00964323     0.12366912
    107      2      H           0.00225840    -0.00640055    -0.01495788
    108      2      H          -0.01445019     0.02314398     0.02301427
    109      1      O          -0.03373329     0.08470753    -0.04703636
    110      2      H          -0.02705632     0.00094929    -0.02441169
    111      2      H           0.06243001    -0.00194390    -0.02352507
    112      1      O          -0.05167824    -0.08244215    -0.04775603
    113      2      H          -0.01068546     0.02266833     0.00360616
    114      2      H           0.04410595     0.00103967    -0.01709211
    115      1      O           0.01320969    -0.01459263     0.10805192
    116      2      H          -0.01420503    -0.00361346     0.00115334
    117      2      H          -0.00777321    -0.04581482     0.05731568
    118      1      O           0.01876359     0.01225495     0.07556623
    119      2      H           0.01818646     0.01596619     0.04007542
    120      2      H           0.00267289    -0.03252375    -0.01959161
    121      1      O           0.04806085     0.03363554     0.05243151
    122      2      H          -0.01812315    -0.05067187     0.02095471
    123      2      H           0.00485109     0.05307977     0.04820872
    124      1      O           0.02073904    -0.05129035    -0.05026879
    125      2      H          -0.04357895    -0.00299425    -0.01382020
    126      2      H           0.01420964    -0.03625481     0.02927259
    127      1      O          -0.07618661     0.08286530    -0.12878884
    128      2      H          -0.00300429    -0.00917015     0.06474663
    129      2      H           0.04689012    -0.04510145    -0.04328731
    130      1      O          -0.02884813     0.03070687     0.08099343
    131      2      H           0.01265620    -0.02293762    -0.04848259
    132      2      H          -0.01632902    -0.05293037    -0.03667029
    133      1      O          -0.02368973    -0.05506602     0.10865917
    134      2      H           0.01280130     0.00198504    -0.01646680
    135      2      H           0.01516257    -0.01625172     0.02458484
    136      1      O          -0.03236981     0.01066846    -0.05539633
    137      2      H          -0.01893394    -0.04098345    -0.04859914
    138      2      H           0.01341353    -0.01324230    -0.00449630
    139      1      O          -0.00308105     0.01633272    -0.07152957
    140      2      H          -0.01323766     0.03451614     0.04899099
    141      2      H           0.01280193    -0.01630448    -0.08229264
    142      1      O          -0.02044508    -0.04892704    -0.01921521
    143      2      H          -0.00694415     0.03278363     0.07013375
    144      2      H           0.01527033    -0.05155406     0.02206905
    145      1      O          -0.03924262    -0.05593664     0.07334363
    146      2      H          -0.00874934    -0.02408877     0.01524544
    147      2      H           0.00803449     0.03047488    -0.02517704
    148      1      O           0.00276272     0.00268646    -0.03026154
    149      2      H           0.02556564    -0.00275483    -0.04204178
    150      2      H          -0.01851539    -0.03391301    -0.03359698
    151      1      O           0.02119206    -0.09556362    -0.01260735
    152      2      H          -0.05964758     0.04189023     0.00111751
    153      2      H           0.00970913    -0.04415066    -0.05476238
    154      1      O          -0.04355182     0.13007746    -0.01698940
    155      2      H           0.00520805    -0.05619155     0.04370666
    156      2      H           0.00286583    -0.04158155    -0.04329203
    157      1      O           0.03267894     0.09109284     0.05800033
    158      2      H           0.02034071    -0.01345094     0.01965971
    159      2      H          -0.00529724    -0.02626566     0.02776866
    160      1      O          -0.02047161    -0.05497501     0.00378844
    161      2      H          -0.01749784     0.00883761     0.03629273
    162      2      H          -0.00196331     0.01296966    -0.03337864
    163      1      O           0.05969592     0.04507971    -0.06052272
    164      2      H          -0.03757207     0.01302128    -0.00626865
    165      2      H           0.00838441    -0.01868179    -0.00160931
    166      1      O           0.00618760    -0.02878423    -0.08090613
    167      2      H           0.02169596     0.03695062     0.03157193
    168      2      H           0.00752544    -0.05533841    -0.04665135
    169      1      O          -0.00686689    -0.12815487    -0.07508172
    170      2      H          -0.00805273    -0.01337041    -0.01568698
    171      2      H           0.00174780     0.02942146    -0.05829826
    172      1      O          -0.00673601     0.01853619    -0.02953345
    173      2      H           0.03987756     0.01956564     0.00939243
    174      2      H           0.00081372     0.01285358    -0.01040022
    175      1      O           0.01918490     0.01967060     0.03326744
    176      2      H          -0.01358540     0.04412124    -0.03759701
    177      2      H           0.00711205     0.04311300    -0.06106345
    178      1      O          -0.00144069     0.08292616    -0.01144435
    179      2      H          -0.02414588    -0.00549373     0.00799580
    180      2      H           0.00546211    -0.01815648     0.02504662
    181      1      O           0.01405265     0.03732742    -0.10399999
    182      2      H          -0.02490557    -0.02679889    -0.03843211
    183      2      H           0.03851197    -0.01826720    -0.01202251
    184      1      O           0.00767377     0.04808621     0.08201478
    185      2      H          -0.02604585    -0.01029268     0.03886863
    186      2      H          -0.02061676     0.03148180     0.01764415
    187      1      O          -0.05718101    -0.02691832     0.00822107
    188      2      H           0.02576565    -0.02025831     0.01274384
    189      2      H           0.08356790     0.06319506    -0.03365486
    190      1      O           0.01193363     0.05508684    -0.05507344
    191      2      H          -0.02946218     0.00440230    -0.01465733
    192      2      H           0.00625544     0.01870041     0.02364123
 SUM OF ATOMIC FORCES          -0.22789491     0.30335706     0.05636297     0.38358621

 -------------------------------------------------------------------------------
 -                                                                             -
 -                                DBCSR STATISTICS                             -
 -                                                                             -
 -------------------------------------------------------------------------------
 COUNTER                                    TOTAL       BLAS       SMM       ACC
 flops     5 x     5 x   256            859161600       0.0%    100.0%      0.0%
 flops     5 x    13 x   256           1087257600       0.0%    100.0%      0.0%
 flops    13 x     5 x   256           1088355840       0.0%    100.0%      0.0%
 flops    13 x    13 x   256           1496242176       0.0%    100.0%      0.0%
 flops inhomo. stacks                           0       0.0%      0.0%      0.0%
 flops total                         4.531017E+09       0.0%    100.0%      0.0%
 flops max/rank                      4.531017E+09       0.0%    100.0%      0.0%
 matmuls inhomo. stacks                         0       0.0%      0.0%      0.0%
 matmuls total                             149787       0.0%    100.0%      0.0%
 number of processed stacks                  2574       0.0%    100.0%      0.0%
 average stack size                                     0.0      58.2       0.0
 marketing flops                    36.609982E+09
 -------------------------------------------------------------------------------
 # multiplications                             33
 max memory usage/rank              25.807749E+09
 # max total images/rank                        1
 # max 3D layers                                1
 # MPI messages exchanged                       0
 MPI messages size (bytes):
  total size                         0.000000E+00
  min size                           0.000000E+00
  max size                           0.000000E+00
  average size                       0.000000E+00
 MPI breakdown and total messages size (bytes):
             size <=      128                   0                        0
       128 < size <=     8192                   0                        0
      8192 < size <=    32768                   0                        0
     32768 < size <=   131072                   0                        0
    131072 < size <=  4194304                   0                        0
   4194304 < size <= 16777216                   0                        0
  16777216 < size                               0                        0
 -------------------------------------------------------------------------------

 MEMORY| Estimated peak process memory [MiB]                               24614

 -------------------------------------------------------------------------------
 -                                                                             -
 -                           R E F E R E N C E S                               -
 -                                                                             -
 -------------------------------------------------------------------------------
 
 CP2K version 7.1, the CP2K developers group (2019).
 CP2K is freely available from https://www.cp2k.org/ .

 Schuett, Ole; Messmer, Peter; Hutter, Juerg; VandeVondele, Joost. 
 Electronic Structure Calculations on Graphics Processing Units, John
 Wiley & Sons, Ltd, 173-190 (2016). 
 GPU-Accelerated Sparse Matrix-Matrix Multiplication for
 Linear Scaling Density Functional Theory.
 https://dx.doi.org/10.1002/9781118670712.ch8

 Borstnik, U; VandeVondele, J; Weber, V; Hutter, J. 
 PARALLEL COMPUTING, 40 (5-6), 47-58 (2014). 
 Sparse matrix multiplication: The distributed block-compressed sparse
 row library.
 https://dx.doi.org/10.1016/j.parco.2014.03.012

 Hutter, J; Iannuzzi, M; Schiffmann, F; VandeVondele, J. 
 WIREs Comput Mol Sci., 4 (1), 15-25 (2014). 
 CP2K: atomistic simulations of condensed matter systems.
 https://dx.doi.org/10.1002/wcms.1159

 Krack, M. 
 THEORETICAL CHEMISTRY ACCOUNTS, 114 (1-3), 145-152 (2005). 
 Pseudopotentials for H to Kr optimized for gradient-corrected
 exchange-correlation functionals.
 https://dx.doi.org/10.1007/s00214-005-0655-y

 VandeVondele, J; Krack, M; Mohamed, F; Parrinello, M; Chassaing, T;
 Hutter, J. COMPUTER PHYSICS COMMUNICATIONS, 167 (2), 103-128 (2005). 
 QUICKSTEP: Fast and accurate density functional calculations using a
 mixed Gaussian and plane waves approach.
 https://dx.doi.org/10.1016/j.cpc.2004.12.014

 Frigo, M; Johnson, SG. 
 PROCEEDINGS OF THE IEEE, 93 (2), 216-231 (2005). 
 The design and implementation of FFTW3.
 https://dx.doi.org/10.1109/JPROC.2004.840301

 Hartwigsen, C; Goedecker, S; Hutter, J. 
 PHYSICAL REVIEW B, 58 (7), 3641-3662 (1998). 
 Relativistic separable dual-space Gaussian pseudopotentials from H to Rn.
 https://dx.doi.org/10.1103/PhysRevB.58.3641

 Lippert, G; Hutter, J; Parrinello, M. 
 MOLECULAR PHYSICS, 92 (3), 477-487 (1997). 
 A hybrid Gaussian and plane wave density functional scheme.
 https://dx.doi.org/10.1080/002689797170220

 Goedecker, S; Teter, M; Hutter, J. 
 PHYSICAL REVIEW B, 54 (3), 1703-1710 (1996). 
 Separable dual-space Gaussian pseudopotentials.
 https://dx.doi.org/10.1103/PhysRevB.54.1703


 -------------------------------------------------------------------------------
 -                                                                             -
 -                                T I M I N G                                  -
 -                                                                             -
 -------------------------------------------------------------------------------
 SUBROUTINE                       CALLS  ASD         SELF TIME        TOTAL TIME
                                MAXIMUM       AVERAGE  MAXIMUM  AVERAGE  MAXIMUM
 CP2K                                 1  1.0    0.643    0.643  780.605  780.605
 qs_forces                            1  2.0    0.000    0.000  769.646  769.646
 qs_energies                          1  3.0    0.000    0.000  765.168  765.168
 scf_env_do_scf                       1  4.0    0.000    0.000  753.767  753.767
 scf_env_do_scf_inner_loop           32  5.0    0.005    0.005  753.767  753.767
 gspace_mixing                       31  6.0    4.351    4.351  289.964  289.964
 broyden_mixing                      31  7.0  258.469  258.469  258.469  258.469
 qs_scf_new_mos                      32  6.0    0.001    0.001  211.576  211.576
 eigensolver                         32  7.0    0.003    0.003  199.601  199.601
 pw_transfer                        428  9.9    0.041    0.041  149.955  149.955
 fft_wrap_pw1pw2                    362 10.9    0.006    0.006  145.815  145.815
 rebuild_ks_matrix                   33  6.9    0.000    0.000  143.334  143.334
 qs_ks_build_kohn_sham_matrix        33  7.9    0.011    0.011  143.334  143.334
 qs_ks_update_qs_env                 32  6.0    0.000    0.000  139.090  139.090
 cp_fm_syevd                         32  8.0  135.573  135.573  135.700  135.700
 fft_wrap_pw1pw2_70                 164 11.2   10.858   10.858  131.384  131.384
 qs_rho_update_rho                   33  6.0    0.000    0.000  115.816  115.816
 calculate_rho_elec                  33  7.0   42.747   42.747  115.816  115.816
 fft3d_s                            363 12.8   73.238   73.238   73.247   73.247
 density_rs2pw                       33  8.0    0.003    0.003   71.807   71.807
 cp_fm_cholesky_restore              96  8.0   63.788   63.788   63.788   63.788
 sum_up_and_integrate                33  8.9    2.135    2.135   47.085   47.085
 integrate_v_rspace                  33  9.9    2.767    2.767   44.950   44.950
 pw_scatter_s                       196 13.1   44.712   44.712   44.712   44.712
 pw_poisson_solve                    33  8.9   36.006   36.006   40.398   40.398
 potential_pw2rs                     33 10.9    0.275    0.275   38.565   38.565
 qs_vxc_create                       33  8.9    0.001    0.001   21.344   21.344
 xc_vxc_pw_create                    33  9.9    4.607    4.607   21.343   21.343
 xc_rho_set_and_dset_create          33 10.9    0.001    0.001   16.736   16.736
 -------------------------------------------------------------------------------

 The number of warnings for this run is : 0
 
 -------------------------------------------------------------------------------
  **** **** ******  **  PROGRAM ENDED AT                 2020-05-21 12:11:47.855
 ***** ** ***  *** **   PROGRAM RAN ON                                   gnode39
 **    ****   ******    PROGRAM RAN BY                               mayank.modi
 ***** **    ** ** **   PROGRAM PROCESS ID                                 16750
  **** **  *******  **  PROGRAM STOPPED IN /home/mayank.modi/ab-initio-thermodyn
                                           amics-of-water/mayank/cp2k_energy_cal
                                           culations
