 DBCSR| CPU Multiplication driver                                           XSMM
 DBCSR| Multrec recursion limit                                              512
 DBCSR| Multiplication stack size                                           1000
 DBCSR| Maximum elements for images                                    UNLIMITED
 DBCSR| Multiplicative factor virtual images                                   1
 DBCSR| Use multiplication densification                                       T
 DBCSR| Multiplication size stacks                                             3


  **** **** ******  **  PROGRAM STARTED AT               2020-05-21 10:41:04.346
 ***** ** ***  *** **   PROGRAM STARTED ON                               gnode39
 **    ****   ******    PROGRAM STARTED BY                           mayank.modi
 ***** **    ** ** **   PROGRAM PROCESS ID                                 15795
  **** **  *******  **  PROGRAM STARTED IN /home/mayank.modi/ab-initio-thermodyn
                                           amics-of-water/mayank/cp2k_energy_cal
                                           culations

 CP2K| version string:                                          CP2K version 7.1
 CP2K| source code revision number:                                  git:e635599
 CP2K| cp2kflags: omp libint fftw3 libxc xsmm spglib                            
 CP2K| is freely available from                            https://www.cp2k.org/
 CP2K| Program compiled at                          Mon Dec 23 19:23:12 CET 2019
 CP2K| Program compiled on                                                pc9404
 CP2K| Program compiled for                                Linux-x86-64-gfortran
 CP2K| Data directory path                                        /opt/cp2k/data
 CP2K| Input file name                                              ./input81.in

 GLOBAL| Force Environment number                                              1
 GLOBAL| Basis set file name                                           BASIS_SET
 GLOBAL| Potential file name                                      GTH_POTENTIALS
 GLOBAL| MM Potential file name                                     MM_POTENTIAL
 GLOBAL| Coordinate file name                                      __STD_INPUT__
 GLOBAL| Method name                                                        CP2K
 GLOBAL| Project name                                                   H2O_bulk
 GLOBAL| Preferred FFT library                                             FFTW3
 GLOBAL| Preferred diagonalization lib.                                       SL
 GLOBAL| Run type                                                   ENERGY_FORCE
 GLOBAL| All-to-all communication in single precision                          F
 GLOBAL| FFTs using library dependent lengths                                  F
 GLOBAL| Global print level                                                  LOW
 GLOBAL| MPI I/O enabled                                                       T
 GLOBAL| Total number of message passing processes                             1
 GLOBAL| Number of threads for this process                                   20
 GLOBAL| This output is from process                                           0
 GLOBAL| CPU model name                Intel(R) Xeon(R) CPU E5-2640 v4 @ 2.40GHz
 GLOBAL| CPUID                                                              1002
 GLOBAL| Compiled for CPUID                                                    0

 MEMORY| system memory details [Kb]
 MEMORY|                        rank 0           min           max       average
 MEMORY| MemTotal            131898148     131898148     131898148     131898148
 MEMORY| MemFree              88691724      88691724      88691724      88691724
 MEMORY| Buffers               3187120       3187120       3187120       3187120
 MEMORY| Cached               34125272      34125272      34125272      34125272
 MEMORY| Slab                  3929704       3929704       3929704       3929704
 MEMORY| SReclaimable          3268508       3268508       3268508       3268508
 MEMORY| MemLikelyFree       129272624     129272624     129272624     129272624


 GENERATE|  Preliminary Number of Bonds generated:                             0
 GENERATE|  Achieved consistency in connectivity generation.

 *******************************************************************************
 *******************************************************************************
 **                                                                           **
 **     #####                         ##              ##                      **
 **    ##   ##            ##          ##              ##                      **
 **   ##     ##                       ##            ######                    **
 **   ##     ##  ##   ##  ##   #####  ##  ##   ####   ##    #####    #####    **
 **   ##     ##  ##   ##  ##  ##      ## ##   ##      ##   ##   ##  ##   ##   **
 **   ##  ## ##  ##   ##  ##  ##      ####     ###    ##   ######   ######    **
 **    ##  ###   ##   ##  ##  ##      ## ##      ##   ##   ##       ##        **
 **     #######   #####   ##   #####  ##  ##  ####    ##    #####   ##        **
 **           ##                                                    ##        **
 **                                                                           **
 **                                                ... make the atoms dance   **
 **                                                                           **
 **            Copyright (C) by CP2K developers group (2000 - 2019)           **
 **                                                                           **
 *******************************************************************************


 TOTAL NUMBERS AND MAXIMUM NUMBERS

  Total number of            - Atomic kinds:                                   2
                             - Atoms:                                        192
                             - Shell sets:                                   384
                             - Shells:                                       704
                             - Primitive Cartesian functions:                960
                             - Cartesian basis functions:                   1536
                             - Spherical basis functions:                   1472

  Maximum angular momentum of- Orbital basis functions:                        2
                             - Local part of the GTH pseudopotential:          2
                             - Non-local part of the GTH pseudopotential:      0


 SCF PARAMETERS         Density guess:                                    ATOMIC
                        --------------------------------------------------------
                        max_scf:                                             300
                        max_scf_history:                                       0
                        max_diis:                                              4
                        --------------------------------------------------------
                        eps_scf:                                        1.00E-07
                        eps_scf_history:                                0.00E+00
                        eps_diis:                                       1.00E-01
                        eps_eigval:                                     1.00E-05
                        --------------------------------------------------------
                        level_shift [a.u.]:                                 0.00
                        --------------------------------------------------------
                        Mixing method:                            BROYDEN_MIXING
                                                charge density mixing in g-space
                        --------------------------------------------------------
                        No outer SCF

 Number of electrons:                                                        512
 Number of occupied orbitals:                                                256
 Number of molecular orbitals:                                               256

 Number of orbital functions:                                               1472
 Number of independent orbital functions:                                   1472

 Extrapolation method: initial_guess


 SCF WAVEFUNCTION OPTIMIZATION

  Step     Update method      Time    Convergence         Total energy    Change
  ------------------------------------------------------------------------------
     1 NoMix/Diag. 0.40E+00   11.0     0.99328485     -1087.4607142866 -1.09E+03
     2 Broy./Diag. 0.40E+00   16.1     0.29160555     -1013.0910116172  7.44E+01
     3 Broy./Diag. 0.40E+00   16.6     0.02614513     -1094.4850948142 -8.14E+01
     4 Broy./Diag. 0.40E+00   17.0     0.02840037     -1094.3094776683  1.76E-01
     5 Broy./Diag. 0.40E+00   18.0     0.00281476     -1095.2334820065 -9.24E-01
     6 Broy./Diag. 0.40E+00   21.1     0.00416621     -1095.2629888404 -2.95E-02
     7 Broy./Diag. 0.40E+00   23.1     0.00250181     -1095.4202168447 -1.57E-01
     8 Broy./Diag. 0.40E+00   23.5     0.00442074     -1095.5455844420 -1.25E-01
     9 Broy./Diag. 0.40E+00   23.5     0.00394351     -1095.6183673716 -7.28E-02
    10 Broy./Diag. 0.40E+00   24.3     0.00175576     -1095.6472578126 -2.89E-02
    11 Broy./Diag. 0.40E+00   26.2     0.00118933     -1095.6176491218  2.96E-02
    12 Broy./Diag. 0.40E+00   23.8     0.00058101     -1095.6280974502 -1.04E-02
    13 Broy./Diag. 0.40E+00   23.2     0.00058986     -1095.6479122126 -1.98E-02
    14 Broy./Diag. 0.40E+00   21.4     0.00024341     -1095.6491059163 -1.19E-03
    15 Broy./Diag. 0.40E+00   22.3     0.00028843     -1095.6433088408  5.80E-03
    16 Broy./Diag. 0.40E+00   21.8     0.00021247     -1095.6440222291 -7.13E-04
    17 Broy./Diag. 0.40E+00   21.6     0.00007036     -1095.6450118391 -9.90E-04
    18 Broy./Diag. 0.40E+00   21.4     0.00003364     -1095.6447636706  2.48E-04
    19 Broy./Diag. 0.40E+00   21.8     0.00001289     -1095.6445415000  2.22E-04
    20 Broy./Diag. 0.40E+00   21.1     0.00001300     -1095.6441372572  4.04E-04
    21 Broy./Diag. 0.40E+00   27.1     0.00001134     -1095.6443845216 -2.47E-04
    22 Broy./Diag. 0.40E+00   24.1     0.00000517     -1095.6445989344 -2.14E-04
    23 Broy./Diag. 0.40E+00   23.7     0.00000556     -1095.6445874063  1.15E-05
    24 Broy./Diag. 0.40E+00   21.8     0.00000202     -1095.6445333994  5.40E-05
    25 Broy./Diag. 0.40E+00   22.4     0.00000275     -1095.6445018334  3.16E-05
    26 Broy./Diag. 0.40E+00   21.9     0.00000151     -1095.6444979363  3.90E-06
    27 Broy./Diag. 0.40E+00   21.6     0.00000086     -1095.6444964666  1.47E-06
    28 Broy./Diag. 0.40E+00   22.3     0.00000065     -1095.6444904852  5.98E-06
    29 Broy./Diag. 0.40E+00   21.5     0.00000031     -1095.6444852311  5.25E-06
    30 Broy./Diag. 0.40E+00   25.0     0.00000030     -1095.6444832324  2.00E-06
    31 Broy./Diag. 0.40E+00   24.5     0.00000021     -1095.6444820161  1.22E-06
    32 Broy./Diag. 0.40E+00   23.3     0.00000013     -1095.6444821676 -1.51E-07
    33 Broy./Diag. 0.40E+00   23.3     0.00000014     -1095.6444832203 -1.05E-06
    34 Broy./Diag. 0.40E+00   21.4     0.00000005     -1095.6444840257 -8.05E-07

  *** SCF run converged in    34 steps ***


  Electronic density on regular grids:       -511.9995711664        0.0004288336
  Core density on regular grids:              511.9995716270       -0.0004283730
  Total charge density on r-space grids:        0.0000004606
  Total charge density g-space grids:           0.0000004606

  Overlap energy of the core charge distribution:               0.00000499771268
  Self energy of the core charge distribution:              -2838.21791979120962
  Core Hamiltonian energy:                                    822.03646031583662
  Hartree energy:                                            1185.47150461868819
  Exchange-correlation energy:                               -264.93453416676226

  Total energy:                                             -1095.64448402573453

 ENERGY| Total FORCE_EVAL ( QS ) energy (a.u.):            -1095.644484662639570


 ATOMIC FORCES in [a.u.]

 # Atom   Kind   Element          X              Y              Z
      1      1      O          -0.01046194     0.05710903     0.00301678
      2      2      H          -0.01641591     0.01965227     0.00911011
      3      2      H          -0.01466694    -0.00230574    -0.02851317
      4      1      O          -0.07003825     0.10324398     0.08657278
      5      2      H          -0.00188523    -0.00089149     0.00114578
      6      2      H           0.05589870    -0.02456122    -0.07257138
      7      1      O          -0.01767964     0.00162200     0.12884724
      8      2      H          -0.01163997    -0.01978557     0.00305763
      9      2      H          -0.00339112     0.00295833    -0.08501226
     10      1      O          -0.02880107    -0.06068015    -0.04357649
     11      2      H           0.00138859    -0.01709575     0.01364392
     12      2      H           0.02543593     0.01087894     0.02892166
     13      1      O           0.04595427     0.00856409    -0.14692573
     14      2      H           0.05848538     0.03173981     0.02866604
     15      2      H          -0.07740478     0.04588787     0.04283581
     16      1      O          -0.02579395     0.10911737    -0.14074141
     17      2      H           0.00417713    -0.02014726     0.04448069
     18      2      H          -0.01175577    -0.00998037     0.01031053
     19      1      O          -0.00886813    -0.00284189    -0.08398671
     20      2      H          -0.01575661     0.02638257     0.03445330
     21      2      H           0.00968370     0.02896124    -0.00951368
     22      1      O          -0.02908871    -0.03168947    -0.09189630
     23      2      H          -0.01814033     0.00059958    -0.01783066
     24      2      H          -0.00246232    -0.03108755     0.04734480
     25      1      O          -0.05935186    -0.02938506    -0.01675670
     26      2      H           0.00731292    -0.02060519    -0.01656211
     27      2      H           0.01841022     0.02238763    -0.08212299
     28      1      O          -0.04427253     0.08908700     0.10278245
     29      2      H           0.00309987     0.00900027     0.00571602
     30      2      H           0.00504463     0.00574718    -0.05163730
     31      1      O           0.05660494    -0.03546933     0.06540097
     32      2      H          -0.00963090    -0.02523622    -0.02321223
     33      2      H          -0.05219054    -0.01861761     0.02681959
     34      1      O           0.03399837     0.02155029    -0.09009481
     35      2      H          -0.00407534     0.00908964    -0.03143277
     36      2      H          -0.03793130     0.00543309     0.03932809
     37      1      O          -0.04378334     0.09352562     0.12367713
     38      2      H           0.02960998    -0.06818395    -0.06356651
     39      2      H          -0.02441250     0.01491651     0.00509289
     40      1      O          -0.07186294     0.00117709     0.09944345
     41      2      H           0.04971407    -0.02388180     0.01784958
     42      2      H           0.02324728     0.01137654    -0.08630408
     43      1      O          -0.06731699    -0.03251205     0.04251752
     44      2      H          -0.00295830     0.02996563    -0.02464453
     45      2      H           0.04384880    -0.01181549     0.03618390
     46      1      O          -0.04080061     0.08038768    -0.10517027
     47      2      H          -0.00851504    -0.00848087    -0.01268903
     48      2      H          -0.01039681     0.01929405    -0.03005587
     49      1      O           0.04349319     0.10054900     0.04010100
     50      2      H          -0.00610039     0.01000006     0.05894411
     51      2      H          -0.00989507     0.01582930    -0.04745584
     52      1      O          -0.01742755     0.05558591    -0.07025094
     53      2      H           0.03884286     0.01171401    -0.00171260
     54      2      H          -0.02631801     0.01302021    -0.02179360
     55      1      O           0.04803358     0.00584993     0.02376798
     56      2      H           0.00937690    -0.04377843    -0.00145728
     57      2      H          -0.02042509    -0.01621352     0.02435343
     58      1      O           0.05173915     0.10164725     0.15664351
     59      2      H          -0.03867124    -0.00776692     0.00853538
     60      2      H          -0.00451771    -0.00496537    -0.07426576
     61      1      O          -0.04974003    -0.04411882     0.05297012
     62      2      H           0.01264612    -0.03232010     0.01472782
     63      2      H           0.02592890    -0.02069886     0.05595827
     64      1      O           0.00803599    -0.09751242     0.11841351
     65      2      H           0.04621409     0.03688028     0.00789412
     66      2      H          -0.05230786    -0.02965716    -0.04532315
     67      1      O          -0.05099285    -0.10918851    -0.02736810
     68      2      H           0.00330335    -0.00621718     0.00826787
     69      2      H           0.07288589     0.03546740     0.03151902
     70      1      O           0.01841838    -0.10411173     0.00582996
     71      2      H          -0.00743418     0.01668396    -0.01173950
     72      2      H           0.00899986     0.01873295    -0.01796483
     73      1      O           0.02399159     0.10220112     0.07414148
     74      2      H           0.00340893    -0.03383269     0.00173950
     75      2      H           0.01875867    -0.01024863    -0.02707409
     76      1      O          -0.00643223     0.06297857    -0.10181938
     77      2      H          -0.00824812    -0.01010995     0.02450883
     78      2      H          -0.01579689    -0.02118010    -0.04121622
     79      1      O          -0.02657171     0.04174448     0.10245289
     80      2      H           0.00988807     0.00953784    -0.03717121
     81      2      H           0.01370910     0.01856929     0.00019756
     82      1      O           0.00300100     0.05348617     0.05190263
     83      2      H          -0.05193853    -0.02958002    -0.00915940
     84      2      H           0.03686960     0.00077932     0.07576649
     85      1      O          -0.01529667     0.03658673     0.11770337
     86      2      H           0.02617211    -0.00330309    -0.04415920
     87      2      H           0.00739344     0.00991754    -0.01223753
     88      1      O          -0.08101593    -0.00634440    -0.03971991
     89      2      H           0.01474741    -0.03320213     0.01753826
     90      2      H           0.03212750     0.04412122    -0.08096951
     91      1      O           0.04895750    -0.01094696     0.07309169
     92      2      H           0.00012484     0.02394958     0.00172698
     93      2      H          -0.03965947     0.01109566    -0.04767045
     94      1      O          -0.03963386     0.08202415    -0.01341648
     95      2      H           0.02649715     0.01478100    -0.00954770
     96      2      H           0.01719578    -0.01701720     0.04915563
     97      1      O          -0.04594776     0.05475463     0.05911224
     98      2      H           0.01150356     0.01766836     0.01626276
     99      2      H           0.00746465    -0.02631858    -0.01262463
    100      1      O          -0.01409136     0.11571447    -0.01564043
    101      2      H          -0.02361456    -0.06382407    -0.05500926
    102      2      H           0.00346629    -0.00765346     0.06821435
    103      1      O          -0.02852375    -0.00979408    -0.02893663
    104      2      H           0.01449820     0.02487175     0.00717041
    105      2      H          -0.00969898    -0.04393127    -0.07458754
    106      1      O           0.01039283     0.06062052     0.11096111
    107      2      H           0.00231371     0.01784029     0.01777495
    108      2      H          -0.00323651     0.00914694    -0.05001218
    109      1      O          -0.07492620    -0.00220807    -0.00011192
    110      2      H           0.02219253    -0.03362976    -0.02024696
    111      2      H           0.04147403     0.01185758    -0.01198168
    112      1      O          -0.03512133    -0.02641574     0.09948170
    113      2      H          -0.00464129     0.01477793     0.00568320
    114      2      H           0.04303410     0.01396555    -0.04035547
    115      1      O           0.02925989     0.08660044     0.05880201
    116      2      H           0.00188054    -0.02293223    -0.04731668
    117      2      H          -0.02423467    -0.03526276     0.06368177
    118      1      O          -0.04116184    -0.03334620     0.06163570
    119      2      H           0.03836932     0.01537649     0.02168933
    120      2      H          -0.01095000     0.01052107     0.00792366
    121      1      O          -0.00953281     0.07733243    -0.11468756
    122      2      H          -0.00814148    -0.06381658     0.06775517
    123      2      H          -0.02378515     0.07043500     0.00352026
    124      1      O          -0.00151137     0.07766460    -0.06218279
    125      2      H          -0.03984926    -0.00390516    -0.01280857
    126      2      H           0.01170563    -0.06254799     0.05574068
    127      1      O          -0.02158056     0.01248568     0.03798569
    128      2      H           0.01522276     0.01774573     0.06326287
    129      2      H          -0.04609591    -0.02510884    -0.00013210
    130      1      O          -0.03585361     0.01841495     0.02570402
    131      2      H          -0.01236958    -0.07518785    -0.04304046
    132      2      H           0.01991852    -0.00775636    -0.01950114
    133      1      O           0.00572465     0.07089331    -0.11465638
    134      2      H           0.01893380    -0.02520632     0.04009440
    135      2      H           0.00170109    -0.00608115     0.01142972
    136      1      O           0.00587879     0.05382519     0.11793198
    137      2      H          -0.01899312    -0.05209202    -0.03515967
    138      2      H           0.00661159    -0.02225607    -0.05396286
    139      1      O           0.05042615     0.04245551    -0.04816479
    140      2      H          -0.02494126    -0.01278871    -0.00031507
    141      2      H          -0.01651370    -0.01098472    -0.00993178
    142      1      O           0.00845679     0.02413440    -0.14377185
    143      2      H          -0.04172095    -0.06770650     0.07781621
    144      2      H           0.00260699    -0.03566858     0.02971349
    145      1      O          -0.03735061    -0.08858891     0.03033159
    146      2      H          -0.00118205    -0.00195021    -0.00194149
    147      2      H           0.01180885     0.03028885     0.02645335
    148      1      O          -0.07665503    -0.04179850    -0.06883659
    149      2      H           0.03136038     0.01972202     0.03149144
    150      2      H           0.01023271     0.00043472    -0.01327460
    151      1      O          -0.01292009     0.01950703     0.09630003
    152      2      H          -0.02630833    -0.02352655    -0.07028550
    153      2      H          -0.00708519     0.07083775    -0.01791671
    154      1      O           0.00592432     0.06222941    -0.07363919
    155      2      H           0.00403868     0.00193151    -0.02432184
    156      2      H          -0.02608551    -0.03026815    -0.05969664
    157      1      O          -0.07147278     0.00054816    -0.05731860
    158      2      H           0.09709560    -0.05429083     0.03307357
    159      2      H          -0.01935908     0.02464258     0.08102616
    160      1      O          -0.02726295    -0.02537196    -0.01026137
    161      2      H           0.00356688    -0.03103273    -0.02356463
    162      2      H           0.02028244    -0.03071973    -0.10346019
    163      1      O           0.04875683    -0.07547201    -0.06074607
    164      2      H          -0.04909547    -0.03609855     0.02549417
    165      2      H           0.02008161     0.01566280    -0.01929520
    166      1      O          -0.06441307    -0.04792168     0.02595223
    167      2      H           0.02499925    -0.00177878     0.02555952
    168      2      H           0.00158494    -0.03311161     0.01261778
    169      1      O           0.05555795    -0.04649548    -0.08467257
    170      2      H          -0.04584336    -0.03075696    -0.07488505
    171      2      H           0.00256436     0.06156340    -0.01320775
    172      1      O           0.01068876    -0.02039503    -0.07541348
    173      2      H           0.01344412    -0.02701568    -0.02951908
    174      2      H          -0.00012624     0.07479983    -0.01425633
    175      1      O           0.00562807     0.00095946     0.14615217
    176      2      H          -0.01087955    -0.00333761     0.03620884
    177      2      H           0.02988721     0.03614639    -0.06434573
    178      1      O           0.03168458     0.09108513    -0.03344364
    179      2      H          -0.01127855     0.00476638    -0.04941558
    180      2      H          -0.01062225     0.02018465     0.00208226
    181      1      O          -0.05995148    -0.03862518    -0.12235658
    182      2      H          -0.00651156     0.01385960     0.02491123
    183      2      H           0.03796011    -0.05225928     0.00904150
    184      1      O          -0.00844764     0.07690035     0.08177476
    185      2      H           0.05294740    -0.03720336    -0.01509233
    186      2      H          -0.01707747     0.01127925     0.05082204
    187      1      O          -0.05857557     0.02155776    -0.08066789
    188      2      H           0.01952896    -0.02995890    -0.01442242
    189      2      H          -0.00102996     0.02168700    -0.01811240
    190      1      O          -0.01002323     0.04155602     0.02684838
    191      2      H          -0.03881857     0.01916379     0.04823991
    192      2      H           0.00423731     0.00538570     0.08595649
 SUM OF ATOMIC FORCES          -0.66601217     0.68722163    -0.17306242     0.97252064

 -------------------------------------------------------------------------------
 -                                                                             -
 -                                DBCSR STATISTICS                             -
 -                                                                             -
 -------------------------------------------------------------------------------
 COUNTER                                    TOTAL       BLAS       SMM       ACC
 flops     5 x     5 x   256            898240000       0.0%    100.0%      0.0%
 flops     5 x    13 x   256           1131020800       0.0%    100.0%      0.0%
 flops    13 x     5 x   256           1143833600       0.0%    100.0%      0.0%
 flops    13 x    13 x   256           1589952000       0.0%    100.0%      0.0%
 flops inhomo. stacks                           0       0.0%      0.0%      0.0%
 flops total                         4.763046E+09       0.0%    100.0%      0.0%
 flops max/rank                      4.763046E+09       0.0%    100.0%      0.0%
 matmuls inhomo. stacks                         0       0.0%      0.0%      0.0%
 matmuls total                             156905       0.0%    100.0%      0.0%
 number of processed stacks                  2730       0.0%    100.0%      0.0%
 average stack size                                     0.0      57.5       0.0
 marketing flops                    38.828769E+09
 -------------------------------------------------------------------------------
 # multiplications                             35
 max memory usage/rank              25.807159E+09
 # max total images/rank                        1
 # max 3D layers                                1
 # MPI messages exchanged                       0
 MPI messages size (bytes):
  total size                         0.000000E+00
  min size                           0.000000E+00
  max size                           0.000000E+00
  average size                       0.000000E+00
 MPI breakdown and total messages size (bytes):
             size <=      128                   0                        0
       128 < size <=     8192                   0                        0
      8192 < size <=    32768                   0                        0
     32768 < size <=   131072                   0                        0
    131072 < size <=  4194304                   0                        0
   4194304 < size <= 16777216                   0                        0
  16777216 < size                               0                        0
 -------------------------------------------------------------------------------

 MEMORY| Estimated peak process memory [MiB]                               24614

 -------------------------------------------------------------------------------
 -                                                                             -
 -                           R E F E R E N C E S                               -
 -                                                                             -
 -------------------------------------------------------------------------------
 
 CP2K version 7.1, the CP2K developers group (2019).
 CP2K is freely available from https://www.cp2k.org/ .

 Schuett, Ole; Messmer, Peter; Hutter, Juerg; VandeVondele, Joost. 
 Electronic Structure Calculations on Graphics Processing Units, John
 Wiley & Sons, Ltd, 173-190 (2016). 
 GPU-Accelerated Sparse Matrix-Matrix Multiplication for
 Linear Scaling Density Functional Theory.
 https://dx.doi.org/10.1002/9781118670712.ch8

 Borstnik, U; VandeVondele, J; Weber, V; Hutter, J. 
 PARALLEL COMPUTING, 40 (5-6), 47-58 (2014). 
 Sparse matrix multiplication: The distributed block-compressed sparse
 row library.
 https://dx.doi.org/10.1016/j.parco.2014.03.012

 Hutter, J; Iannuzzi, M; Schiffmann, F; VandeVondele, J. 
 WIREs Comput Mol Sci., 4 (1), 15-25 (2014). 
 CP2K: atomistic simulations of condensed matter systems.
 https://dx.doi.org/10.1002/wcms.1159

 Krack, M. 
 THEORETICAL CHEMISTRY ACCOUNTS, 114 (1-3), 145-152 (2005). 
 Pseudopotentials for H to Kr optimized for gradient-corrected
 exchange-correlation functionals.
 https://dx.doi.org/10.1007/s00214-005-0655-y

 VandeVondele, J; Krack, M; Mohamed, F; Parrinello, M; Chassaing, T;
 Hutter, J. COMPUTER PHYSICS COMMUNICATIONS, 167 (2), 103-128 (2005). 
 QUICKSTEP: Fast and accurate density functional calculations using a
 mixed Gaussian and plane waves approach.
 https://dx.doi.org/10.1016/j.cpc.2004.12.014

 Frigo, M; Johnson, SG. 
 PROCEEDINGS OF THE IEEE, 93 (2), 216-231 (2005). 
 The design and implementation of FFTW3.
 https://dx.doi.org/10.1109/JPROC.2004.840301

 Hartwigsen, C; Goedecker, S; Hutter, J. 
 PHYSICAL REVIEW B, 58 (7), 3641-3662 (1998). 
 Relativistic separable dual-space Gaussian pseudopotentials from H to Rn.
 https://dx.doi.org/10.1103/PhysRevB.58.3641

 Lippert, G; Hutter, J; Parrinello, M. 
 MOLECULAR PHYSICS, 92 (3), 477-487 (1997). 
 A hybrid Gaussian and plane wave density functional scheme.
 https://dx.doi.org/10.1080/002689797170220

 Goedecker, S; Teter, M; Hutter, J. 
 PHYSICAL REVIEW B, 54 (3), 1703-1710 (1996). 
 Separable dual-space Gaussian pseudopotentials.
 https://dx.doi.org/10.1103/PhysRevB.54.1703


 -------------------------------------------------------------------------------
 -                                                                             -
 -                                T I M I N G                                  -
 -                                                                             -
 -------------------------------------------------------------------------------
 SUBROUTINE                       CALLS  ASD         SELF TIME        TOTAL TIME
                                MAXIMUM       AVERAGE  MAXIMUM  AVERAGE  MAXIMUM
 CP2K                                 1  1.0    0.659    0.659  772.634  772.634
 qs_forces                            1  2.0    0.000    0.000  761.262  761.262
 qs_energies                          1  3.0    0.000    0.000  757.639  757.639
 scf_env_do_scf                       1  4.0    0.000    0.000  745.439  745.439
 scf_env_do_scf_inner_loop           34  5.0    0.004    0.004  745.439  745.439
 gspace_mixing                       33  6.0    4.693    4.693  293.469  293.469
 broyden_mixing                      33  7.0  261.667  261.667  261.668  261.668
 qs_scf_new_mos                      34  6.0    0.001    0.001  217.374  217.374
 eigensolver                         34  7.0    0.004    0.004  214.137  214.137
 cp_fm_syevd                         34  8.0  145.953  145.953  146.087  146.087
 pw_transfer                        454  9.9    0.041    0.041  139.860  139.860
 fft_wrap_pw1pw2                    384 10.9    0.004    0.004  136.746  136.746
 rebuild_ks_matrix                   35  6.9    0.000    0.000  133.888  133.888
 qs_ks_build_kohn_sham_matrix        35  7.9    0.008    0.008  133.888  133.888
 qs_ks_update_qs_env                 34  6.0    0.000    0.000  130.428  130.428
 fft_wrap_pw1pw2_70                 174 11.2   10.448   10.448  126.493  126.493
 qs_rho_update_rho                   35  6.0    0.000    0.000  107.077  107.077
 calculate_rho_elec                  35  7.0   42.095   42.095  107.076  107.076
 cp_fm_cholesky_restore             102  8.0   67.902   67.902   67.902   67.902
 fft3d_s                            385 12.8   67.016   67.016   67.039   67.039
 density_rs2pw                       35  8.0    0.003    0.003   64.171   64.171
 pw_scatter_s                       208 13.1   46.547   46.547   46.547   46.547
 pw_poisson_solve                    35  8.9   39.591   39.591   43.055   43.055
 sum_up_and_integrate                35  8.9    2.146    2.146   38.068   38.068
 integrate_v_rspace                  35  9.9    2.341    2.341   35.922   35.922
 potential_pw2rs                     35 10.9    0.296    0.296   33.554   33.554
 qs_vxc_create                       35  8.9    0.001    0.001   18.837   18.837
 xc_vxc_pw_create                    35  9.9    4.918    4.918   18.837   18.837
 -------------------------------------------------------------------------------

 The number of warnings for this run is : 0
 
 -------------------------------------------------------------------------------
  **** **** ******  **  PROGRAM ENDED AT                 2020-05-21 10:53:57.094
 ***** ** ***  *** **   PROGRAM RAN ON                                   gnode39
 **    ****   ******    PROGRAM RAN BY                               mayank.modi
 ***** **    ** ** **   PROGRAM PROCESS ID                                 15795
  **** **  *******  **  PROGRAM STOPPED IN /home/mayank.modi/ab-initio-thermodyn
                                           amics-of-water/mayank/cp2k_energy_cal
                                           culations
