 DBCSR| CPU Multiplication driver                                           XSMM
 DBCSR| Multrec recursion limit                                              512
 DBCSR| Multiplication stack size                                           1000
 DBCSR| Maximum elements for images                                    UNLIMITED
 DBCSR| Multiplicative factor virtual images                                   1
 DBCSR| Use multiplication densification                                       T
 DBCSR| Multiplication size stacks                                             3


  **** **** ******  **  PROGRAM STARTED AT               2020-05-21 05:28:58.019
 ***** ** ***  *** **   PROGRAM STARTED ON                               gnode39
 **    ****   ******    PROGRAM STARTED BY                           mayank.modi
 ***** **    ** ** **   PROGRAM PROCESS ID                                 29353
  **** **  *******  **  PROGRAM STARTED IN /home/mayank.modi/ab-initio-thermodyn
                                           amics-of-water/mayank/cp2k_energy_cal
                                           culations

 CP2K| version string:                                          CP2K version 7.1
 CP2K| source code revision number:                                  git:e635599
 CP2K| cp2kflags: omp libint fftw3 libxc xsmm spglib                            
 CP2K| is freely available from                            https://www.cp2k.org/
 CP2K| Program compiled at                          Mon Dec 23 19:23:12 CET 2019
 CP2K| Program compiled on                                                pc9404
 CP2K| Program compiled for                                Linux-x86-64-gfortran
 CP2K| Data directory path                                        /opt/cp2k/data
 CP2K| Input file name                                              ./input57.in

 GLOBAL| Force Environment number                                              1
 GLOBAL| Basis set file name                                           BASIS_SET
 GLOBAL| Potential file name                                      GTH_POTENTIALS
 GLOBAL| MM Potential file name                                     MM_POTENTIAL
 GLOBAL| Coordinate file name                                      __STD_INPUT__
 GLOBAL| Method name                                                        CP2K
 GLOBAL| Project name                                                   H2O_bulk
 GLOBAL| Preferred FFT library                                             FFTW3
 GLOBAL| Preferred diagonalization lib.                                       SL
 GLOBAL| Run type                                                   ENERGY_FORCE
 GLOBAL| All-to-all communication in single precision                          F
 GLOBAL| FFTs using library dependent lengths                                  F
 GLOBAL| Global print level                                                  LOW
 GLOBAL| MPI I/O enabled                                                       T
 GLOBAL| Total number of message passing processes                             1
 GLOBAL| Number of threads for this process                                   20
 GLOBAL| This output is from process                                           0
 GLOBAL| CPU model name                Intel(R) Xeon(R) CPU E5-2640 v4 @ 2.40GHz
 GLOBAL| CPUID                                                              1002
 GLOBAL| Compiled for CPUID                                                    0

 MEMORY| system memory details [Kb]
 MEMORY|                        rank 0           min           max       average
 MEMORY| MemTotal            131898148     131898148     131898148     131898148
 MEMORY| MemFree              88709344      88709344      88709344      88709344
 MEMORY| Buffers               3187096       3187096       3187096       3187096
 MEMORY| Cached               34124420      34124420      34124420      34124420
 MEMORY| Slab                  3915844       3915844       3915844       3915844
 MEMORY| SReclaimable          3255692       3255692       3255692       3255692
 MEMORY| MemLikelyFree       129276552     129276552     129276552     129276552


 GENERATE|  Preliminary Number of Bonds generated:                             0
 GENERATE|  Achieved consistency in connectivity generation.

 *******************************************************************************
 *******************************************************************************
 **                                                                           **
 **     #####                         ##              ##                      **
 **    ##   ##            ##          ##              ##                      **
 **   ##     ##                       ##            ######                    **
 **   ##     ##  ##   ##  ##   #####  ##  ##   ####   ##    #####    #####    **
 **   ##     ##  ##   ##  ##  ##      ## ##   ##      ##   ##   ##  ##   ##   **
 **   ##  ## ##  ##   ##  ##  ##      ####     ###    ##   ######   ######    **
 **    ##  ###   ##   ##  ##  ##      ## ##      ##   ##   ##       ##        **
 **     #######   #####   ##   #####  ##  ##  ####    ##    #####   ##        **
 **           ##                                                    ##        **
 **                                                                           **
 **                                                ... make the atoms dance   **
 **                                                                           **
 **            Copyright (C) by CP2K developers group (2000 - 2019)           **
 **                                                                           **
 *******************************************************************************


 TOTAL NUMBERS AND MAXIMUM NUMBERS

  Total number of            - Atomic kinds:                                   2
                             - Atoms:                                        192
                             - Shell sets:                                   384
                             - Shells:                                       704
                             - Primitive Cartesian functions:                960
                             - Cartesian basis functions:                   1536
                             - Spherical basis functions:                   1472

  Maximum angular momentum of- Orbital basis functions:                        2
                             - Local part of the GTH pseudopotential:          2
                             - Non-local part of the GTH pseudopotential:      0


 SCF PARAMETERS         Density guess:                                    ATOMIC
                        --------------------------------------------------------
                        max_scf:                                             300
                        max_scf_history:                                       0
                        max_diis:                                              4
                        --------------------------------------------------------
                        eps_scf:                                        1.00E-07
                        eps_scf_history:                                0.00E+00
                        eps_diis:                                       1.00E-01
                        eps_eigval:                                     1.00E-05
                        --------------------------------------------------------
                        level_shift [a.u.]:                                 0.00
                        --------------------------------------------------------
                        Mixing method:                            BROYDEN_MIXING
                                                charge density mixing in g-space
                        --------------------------------------------------------
                        No outer SCF

 Number of electrons:                                                        512
 Number of occupied orbitals:                                                256
 Number of molecular orbitals:                                               256

 Number of orbital functions:                                               1472
 Number of independent orbital functions:                                   1472

 Extrapolation method: initial_guess


 SCF WAVEFUNCTION OPTIMIZATION

  Step     Update method      Time    Convergence         Total energy    Change
  ------------------------------------------------------------------------------
     1 NoMix/Diag. 0.40E+00   10.6     0.99845059     -1087.4158545219 -1.09E+03
     2 Broy./Diag. 0.40E+00   16.5     0.29970302     -1013.5675435227  7.38E+01
     3 Broy./Diag. 0.40E+00   17.5     0.02951041     -1094.8378447306 -8.13E+01
     4 Broy./Diag. 0.40E+00   18.2     0.02429592     -1094.4051173840  4.33E-01
     5 Broy./Diag. 0.40E+00   18.8     0.00263079     -1095.2914402326 -8.86E-01
     6 Broy./Diag. 0.40E+00   20.1     0.00459287     -1095.3226032672 -3.12E-02
     7 Broy./Diag. 0.40E+00   21.2     0.00289855     -1095.4612634790 -1.39E-01
     8 Broy./Diag. 0.40E+00   22.3     0.00415731     -1095.5918215278 -1.31E-01
     9 Broy./Diag. 0.40E+00   23.4     0.00308506     -1095.6691038913 -7.73E-02
    10 Broy./Diag. 0.40E+00   25.1     0.00168439     -1095.6943616868 -2.53E-02
    11 Broy./Diag. 0.40E+00   24.4     0.00135040     -1095.6720852758  2.23E-02
    12 Broy./Diag. 0.40E+00   24.8     0.00051503     -1095.6803745310 -8.29E-03
    13 Broy./Diag. 0.40E+00   24.4     0.00052833     -1095.7007263994 -2.04E-02
    14 Broy./Diag. 0.40E+00   24.5     0.00028232     -1095.7052336111 -4.51E-03
    15 Broy./Diag. 0.40E+00   25.4     0.00032819     -1095.6986052862  6.63E-03
    16 Broy./Diag. 0.40E+00   24.8     0.00014935     -1095.6996904385 -1.09E-03
    17 Broy./Diag. 0.40E+00   25.4     0.00005853     -1095.7007496939 -1.06E-03
    18 Broy./Diag. 0.40E+00   25.2     0.00004130     -1095.7003917560  3.58E-04
    19 Broy./Diag. 0.40E+00   24.4     0.00002106     -1095.7003061881  8.56E-05
    20 Broy./Diag. 0.40E+00   24.8     0.00001519     -1095.6999693228  3.37E-04
    21 Broy./Diag. 0.40E+00   25.0     0.00001617     -1095.7002760764 -3.07E-04
    22 Broy./Diag. 0.40E+00   25.1     0.00000729     -1095.7004666875 -1.91E-04
    23 Broy./Diag. 0.40E+00   24.5     0.00000540     -1095.7004267613  3.99E-05
    24 Broy./Diag. 0.40E+00   25.0     0.00000228     -1095.7003681003  5.87E-05
    25 Broy./Diag. 0.40E+00   24.6     0.00000291     -1095.7003374527  3.06E-05
    26 Broy./Diag. 0.40E+00   24.8     0.00000122     -1095.7003372391  2.14E-07
    27 Broy./Diag. 0.40E+00   25.3     0.00000069     -1095.7003435125 -6.27E-06
    28 Broy./Diag. 0.40E+00   24.6     0.00000058     -1095.7003373698  6.14E-06
    29 Broy./Diag. 0.40E+00   25.0     0.00000031     -1095.7003369797  3.90E-07
    30 Broy./Diag. 0.40E+00   25.1     0.00000028     -1095.7003404523 -3.47E-06
    31 Broy./Diag. 0.40E+00   24.6     0.00000021     -1095.7003430344 -2.58E-06
    32 Broy./Diag. 0.40E+00   25.2     0.00000010     -1095.7003441812 -1.15E-06

  *** SCF run converged in    32 steps ***


  Electronic density on regular grids:       -512.0003743620       -0.0003743620
  Core density on regular grids:              512.0002592280        0.0002592280
  Total charge density on r-space grids:       -0.0001151340
  Total charge density g-space grids:          -0.0001151340

  Overlap energy of the core charge distribution:               0.00000536092479
  Self energy of the core charge distribution:              -2838.21791979120962
  Core Hamiltonian energy:                                    821.49170912565205
  Hartree energy:                                            1185.79983192608620
  Exchange-correlation energy:                               -264.77397080265132

  Total energy:                                             -1095.70034418119803

 ENERGY| Total FORCE_EVAL ( QS ) energy (a.u.):            -1095.700347039694634


 ATOMIC FORCES in [a.u.]

 # Atom   Kind   Element          X              Y              Z
      1      1      O           0.00468067    -0.03345460    -0.02472895
      2      2      H           0.00180268     0.02635710    -0.05161119
      3      2      H           0.00690247    -0.03925037     0.03975108
      4      1      O           0.03005199    -0.01636915     0.12093312
      5      2      H           0.00569416     0.00606394    -0.04038236
      6      2      H          -0.00208419     0.00974005    -0.00102563
      7      1      O          -0.00767492     0.03532266     0.03213697
      8      2      H           0.01106776    -0.02957783     0.02630582
      9      2      H          -0.01095428     0.03072822     0.00971909
     10      1      O          -0.07906730     0.08461537    -0.00829657
     11      2      H           0.04429511     0.01415233     0.09547103
     12      2      H           0.03598888    -0.01468373    -0.02150618
     13      1      O           0.05241734     0.08373389    -0.01119347
     14      2      H           0.02580251     0.03928202     0.04701367
     15      2      H          -0.03384353    -0.05047536     0.02177080
     16      1      O           0.01346464     0.07076261     0.10006838
     17      2      H          -0.00685916    -0.02277005    -0.03856538
     18      2      H          -0.04594566    -0.00451611    -0.01468178
     19      1      O           0.04579572     0.08397887     0.09484871
     20      2      H          -0.05556206     0.00568024    -0.02179692
     21      2      H          -0.00640961    -0.00294488     0.04102651
     22      1      O           0.03017130    -0.05616195     0.12468531
     23      2      H           0.00396072    -0.01344486    -0.03614053
     24      2      H          -0.01481932    -0.02813231     0.00569251
     25      1      O           0.03988376     0.00925609     0.03570831
     26      2      H          -0.00537763    -0.01446990     0.06478910
     27      2      H          -0.00597071    -0.00627669     0.02915300
     28      1      O           0.03683064     0.03152686    -0.08438336
     29      2      H          -0.03467383     0.02876743    -0.01961189
     30      2      H           0.01556599     0.00591981    -0.01664214
     31      1      O           0.00058448     0.06696186    -0.11063947
     32      2      H           0.04904080    -0.01631046    -0.00311453
     33      2      H          -0.00842374    -0.03897057    -0.03097985
     34      1      O           0.05592011    -0.01670349     0.12272780
     35      2      H          -0.00313237    -0.01697344     0.00887673
     36      2      H          -0.01727282    -0.01426851    -0.03750299
     37      1      O           0.03494744     0.12204141     0.11775066
     38      2      H           0.01995979     0.02129395    -0.00109224
     39      2      H          -0.04135787    -0.00765294     0.00957218
     40      1      O          -0.07175081    -0.05447625     0.08107735
     41      2      H          -0.00154070    -0.01308346     0.03657055
     42      2      H           0.03431028     0.00039818     0.00365452
     43      1      O          -0.08026014    -0.04074696    -0.05345156
     44      2      H           0.02498789    -0.05543722     0.00030673
     45      2      H           0.02554259     0.03172009    -0.01482138
     46      1      O           0.06903111     0.07030589     0.12038925
     47      2      H          -0.08803273    -0.00754229    -0.13253626
     48      2      H          -0.00448504    -0.02475711     0.02881833
     49      1      O          -0.05171023    -0.05013434    -0.03030505
     50      2      H          -0.00138254     0.02028953    -0.01382205
     51      2      H           0.02508328    -0.03700152    -0.00285794
     52      1      O          -0.00891779    -0.03448382    -0.06531707
     53      2      H          -0.02019373     0.01807212    -0.04091188
     54      2      H          -0.00948037     0.01409077    -0.04157880
     55      1      O           0.04389178     0.00747497     0.02301527
     56      2      H           0.00767824     0.02272766     0.05039271
     57      2      H          -0.00405203    -0.03166833    -0.02703164
     58      1      O           0.08602739    -0.08153542     0.01568402
     59      2      H          -0.06191601     0.06878000     0.05217510
     60      2      H          -0.00311604     0.00884690    -0.02822316
     61      1      O           0.00662748    -0.04688471    -0.10897122
     62      2      H          -0.00706814    -0.03022561    -0.00184751
     63      2      H          -0.01214108     0.00297671     0.06258729
     64      1      O           0.01792248     0.09630490    -0.03259175
     65      2      H           0.01216758    -0.03068571    -0.04760058
     66      2      H          -0.00502765     0.00934935    -0.04813480
     67      1      O           0.01086372     0.01396233     0.05884320
     68      2      H          -0.02379497    -0.00852385     0.00244804
     69      2      H           0.00847815    -0.00627497     0.03820481
     70      1      O           0.01072113     0.02383359    -0.08207842
     71      2      H          -0.05556904     0.00149722    -0.02162870
     72      2      H           0.02398371     0.04197612    -0.04542920
     73      1      O          -0.02013278     0.08803238     0.10456786
     74      2      H           0.03705089    -0.02255094     0.03317730
     75      2      H          -0.01574215     0.02781982    -0.09305084
     76      1      O          -0.01312376     0.00023539    -0.07569274
     77      2      H           0.01766082    -0.00651389    -0.03607621
     78      2      H           0.00320544    -0.03121819    -0.02600757
     79      1      O           0.02348840    -0.00323046    -0.03152612
     80      2      H           0.00728550     0.02647917    -0.01411525
     81      2      H           0.00225619    -0.01200484     0.02358799
     82      1      O          -0.01912350     0.07538020    -0.00848851
     83      2      H           0.02079520     0.01329300    -0.04185551
     84      2      H           0.02115165     0.02163978    -0.00444597
     85      1      O          -0.07463866     0.02094740     0.06541134
     86      2      H           0.05663551     0.02373149     0.02575522
     87      2      H          -0.02503694     0.02506679     0.01252194
     88      1      O          -0.01659310    -0.05948209     0.01441778
     89      2      H          -0.00282640    -0.01973886     0.02537020
     90      2      H           0.03094716     0.06852000    -0.02954065
     91      1      O          -0.00572294     0.01561315    -0.10731711
     92      2      H          -0.01699578     0.04006067     0.05274637
     93      2      H          -0.00277972    -0.03416422     0.03640841
     94      1      O           0.02483507     0.06342473    -0.09845525
     95      2      H           0.00846307     0.02788091     0.01473046
     96      2      H          -0.01429407    -0.01626797     0.03278003
     97      1      O          -0.00289131     0.01426583     0.03622795
     98      2      H          -0.00276486    -0.02586039     0.00830336
     99      2      H           0.00754083     0.00816704     0.02633555
    100      1      O           0.06436301     0.01976585    -0.08013862
    101      2      H           0.01908665     0.02561427    -0.02648913
    102      2      H          -0.05694456     0.01414281     0.01594197
    103      1      O          -0.05292595    -0.03076308     0.08244963
    104      2      H           0.02581083    -0.01718928    -0.01404488
    105      2      H           0.00762698     0.05703231     0.05226886
    106      1      O          -0.00021275     0.07690554     0.00451708
    107      2      H           0.00542301     0.02254589    -0.05200207
    108      2      H           0.02868000    -0.00322674    -0.00194797
    109      1      O           0.00105496     0.07549896     0.01482888
    110      2      H           0.03144918    -0.00854697    -0.00810304
    111      2      H          -0.00474664    -0.00943719     0.02976347
    112      1      O          -0.01011611    -0.01907171    -0.02055183
    113      2      H           0.01248344     0.02953178     0.00969893
    114      2      H           0.00996020    -0.02706567     0.04173181
    115      1      O          -0.00340460     0.06207646     0.02954139
    116      2      H          -0.01489184    -0.00596187     0.03735028
    117      2      H           0.01296636    -0.04708066     0.01455353
    118      1      O          -0.00558927    -0.00214476    -0.10285276
    119      2      H           0.00958895    -0.02787240     0.04220649
    120      2      H           0.00863281     0.02790304    -0.03283625
    121      1      O           0.00883661    -0.00430918    -0.12519057
    122      2      H           0.01247271    -0.02960215     0.04473937
    123      2      H          -0.01733291     0.00276967    -0.00623320
    124      1      O           0.01360077    -0.08304529    -0.07956520
    125      2      H          -0.02951196     0.02214734     0.03882104
    126      2      H           0.04056867     0.00550742     0.04058450
    127      1      O           0.01641475     0.06677625     0.08311771
    128      2      H          -0.01305008    -0.03755300    -0.03829690
    129      2      H           0.00040118     0.01701170     0.05387464
    130      1      O          -0.01288669     0.04139824    -0.06230236
    131      2      H          -0.01984268    -0.03027338     0.00095645
    132      2      H           0.01095552     0.06202928    -0.04153077
    133      1      O           0.00647345     0.06214671     0.09268473
    134      2      H           0.03485954     0.03424039     0.00898596
    135      2      H          -0.01954076     0.01496779     0.00458295
    136      1      O           0.11801221     0.01777695     0.02720197
    137      2      H           0.00520442    -0.00725487    -0.01041014
    138      2      H          -0.09361033     0.00126798     0.05735436
    139      1      O           0.04005450     0.10355630    -0.06066680
    140      2      H          -0.03702224    -0.02737081    -0.00578737
    141      2      H           0.00048927    -0.03693736    -0.04102494
    142      1      O           0.01438761    -0.05329469    -0.02115970
    143      2      H          -0.00807989     0.03364744    -0.00145027
    144      2      H          -0.00761657    -0.06193150    -0.01073192
    145      1      O          -0.09223732     0.01751906     0.13812137
    146      2      H           0.08436523    -0.05300546    -0.07735605
    147      2      H           0.00303482     0.00969271    -0.01163683
    148      1      O          -0.05797263    -0.05427994     0.07829362
    149      2      H           0.01629123     0.00338836    -0.00935837
    150      2      H           0.00505042     0.06164928    -0.05568167
    151      1      O          -0.00158569     0.08698199    -0.03379830
    152      2      H          -0.00976924    -0.01385136    -0.03204180
    153      2      H          -0.02288426    -0.00587349     0.04804535
    154      1      O          -0.01951686     0.02193956    -0.03622200
    155      2      H           0.00391561     0.01923722    -0.03063335
    156      2      H          -0.01354254    -0.02694305    -0.03163046
    157      1      O          -0.04713492     0.09700493     0.07581173
    158      2      H           0.03223984    -0.00186963     0.04236028
    159      2      H           0.00138631    -0.01718927     0.05318772
    160      1      O           0.03160827     0.06387048     0.07758169
    161      2      H           0.02346419    -0.06582072    -0.01748497
    162      2      H          -0.01304383    -0.01716105     0.04107352
    163      1      O           0.04925915    -0.00919523    -0.13232418
    164      2      H          -0.01858643     0.01572695    -0.00322840
    165      2      H           0.01189273    -0.07515429     0.09934904
    166      1      O          -0.00671255    -0.08831777    -0.09074498
    167      2      H           0.02893956     0.01744830    -0.00785046
    168      2      H           0.01267590    -0.03297033     0.04123709
    169      1      O          -0.01594005    -0.05443238     0.15182215
    170      2      H          -0.02906252     0.02042814    -0.03860343
    171      2      H           0.03063825     0.03810711    -0.00136851
    172      1      O          -0.04472502     0.01554931     0.06282065
    173      2      H          -0.00690093    -0.02171118    -0.01090393
    174      2      H           0.02797541     0.03151700     0.00640476
    175      1      O          -0.03532817    -0.07348574    -0.04426117
    176      2      H          -0.00507417    -0.00386421    -0.03101100
    177      2      H           0.00027508    -0.01540985    -0.00449904
    178      1      O           0.02710178    -0.03975674    -0.06676425
    179      2      H          -0.02786385    -0.01879618     0.01635432
    180      2      H           0.01677826    -0.01264319    -0.00774557
    181      1      O           0.05031937     0.02894835     0.09352058
    182      2      H          -0.04543096     0.02726150     0.05416754
    183      2      H           0.01095516    -0.06218803    -0.03568937
    184      1      O           0.01783991     0.08925375    -0.08822369
    185      2      H           0.02441471     0.00709971    -0.03013236
    186      2      H          -0.04824256     0.01268750     0.03322287
    187      1      O           0.15284765    -0.06847856    -0.10149031
    188      2      H           0.00341248    -0.03322798     0.01106552
    189      2      H          -0.10227315     0.04374736    -0.00939174
    190      1      O           0.01616060    -0.02088821    -0.08599394
    191      2      H           0.01170772    -0.03605130    -0.00188213
    192      2      H           0.01867997    -0.01350150     0.00117340
 SUM OF ATOMIC FORCES           0.31286115     0.68076791     0.23700385     0.78581033

 -------------------------------------------------------------------------------
 -                                                                             -
 -                                DBCSR STATISTICS                             -
 -                                                                             -
 -------------------------------------------------------------------------------
 COUNTER                                    TOTAL       BLAS       SMM       ACC
 flops     5 x     5 x   256            867609600       0.0%    100.0%      0.0%
 flops     5 x    13 x   256           1088355840       0.0%    100.0%      0.0%
 flops    13 x     5 x   256           1103731200       0.0%    100.0%      0.0%
 flops    13 x    13 x   256           1530507264       0.0%    100.0%      0.0%
 flops inhomo. stacks                           0       0.0%      0.0%      0.0%
 flops total                         4.590204E+09       0.0%    100.0%      0.0%
 flops max/rank                      4.590204E+09       0.0%    100.0%      0.0%
 matmuls inhomo. stacks                         0       0.0%      0.0%      0.0%
 matmuls total                             151338       0.0%    100.0%      0.0%
 number of processed stacks                  2574       0.0%    100.0%      0.0%
 average stack size                                     0.0      58.8       0.0
 marketing flops                    36.609982E+09
 -------------------------------------------------------------------------------
 # multiplications                             33
 max memory usage/rank              25.807978E+09
 # max total images/rank                        1
 # max 3D layers                                1
 # MPI messages exchanged                       0
 MPI messages size (bytes):
  total size                         0.000000E+00
  min size                           0.000000E+00
  max size                           0.000000E+00
  average size                       0.000000E+00
 MPI breakdown and total messages size (bytes):
             size <=      128                   0                        0
       128 < size <=     8192                   0                        0
      8192 < size <=    32768                   0                        0
     32768 < size <=   131072                   0                        0
    131072 < size <=  4194304                   0                        0
   4194304 < size <= 16777216                   0                        0
  16777216 < size                               0                        0
 -------------------------------------------------------------------------------

 MEMORY| Estimated peak process memory [MiB]                               24615

 -------------------------------------------------------------------------------
 -                                                                             -
 -                           R E F E R E N C E S                               -
 -                                                                             -
 -------------------------------------------------------------------------------
 
 CP2K version 7.1, the CP2K developers group (2019).
 CP2K is freely available from https://www.cp2k.org/ .

 Schuett, Ole; Messmer, Peter; Hutter, Juerg; VandeVondele, Joost. 
 Electronic Structure Calculations on Graphics Processing Units, John
 Wiley & Sons, Ltd, 173-190 (2016). 
 GPU-Accelerated Sparse Matrix-Matrix Multiplication for
 Linear Scaling Density Functional Theory.
 https://dx.doi.org/10.1002/9781118670712.ch8

 Borstnik, U; VandeVondele, J; Weber, V; Hutter, J. 
 PARALLEL COMPUTING, 40 (5-6), 47-58 (2014). 
 Sparse matrix multiplication: The distributed block-compressed sparse
 row library.
 https://dx.doi.org/10.1016/j.parco.2014.03.012

 Hutter, J; Iannuzzi, M; Schiffmann, F; VandeVondele, J. 
 WIREs Comput Mol Sci., 4 (1), 15-25 (2014). 
 CP2K: atomistic simulations of condensed matter systems.
 https://dx.doi.org/10.1002/wcms.1159

 Krack, M. 
 THEORETICAL CHEMISTRY ACCOUNTS, 114 (1-3), 145-152 (2005). 
 Pseudopotentials for H to Kr optimized for gradient-corrected
 exchange-correlation functionals.
 https://dx.doi.org/10.1007/s00214-005-0655-y

 VandeVondele, J; Krack, M; Mohamed, F; Parrinello, M; Chassaing, T;
 Hutter, J. COMPUTER PHYSICS COMMUNICATIONS, 167 (2), 103-128 (2005). 
 QUICKSTEP: Fast and accurate density functional calculations using a
 mixed Gaussian and plane waves approach.
 https://dx.doi.org/10.1016/j.cpc.2004.12.014

 Frigo, M; Johnson, SG. 
 PROCEEDINGS OF THE IEEE, 93 (2), 216-231 (2005). 
 The design and implementation of FFTW3.
 https://dx.doi.org/10.1109/JPROC.2004.840301

 Hartwigsen, C; Goedecker, S; Hutter, J. 
 PHYSICAL REVIEW B, 58 (7), 3641-3662 (1998). 
 Relativistic separable dual-space Gaussian pseudopotentials from H to Rn.
 https://dx.doi.org/10.1103/PhysRevB.58.3641

 Lippert, G; Hutter, J; Parrinello, M. 
 MOLECULAR PHYSICS, 92 (3), 477-487 (1997). 
 A hybrid Gaussian and plane wave density functional scheme.
 https://dx.doi.org/10.1080/002689797170220

 Goedecker, S; Teter, M; Hutter, J. 
 PHYSICAL REVIEW B, 54 (3), 1703-1710 (1996). 
 Separable dual-space Gaussian pseudopotentials.
 https://dx.doi.org/10.1103/PhysRevB.54.1703


 -------------------------------------------------------------------------------
 -                                                                             -
 -                                T I M I N G                                  -
 -                                                                             -
 -------------------------------------------------------------------------------
 SUBROUTINE                       CALLS  ASD         SELF TIME        TOTAL TIME
                                MAXIMUM       AVERAGE  MAXIMUM  AVERAGE  MAXIMUM
 CP2K                                 1  1.0    0.643    0.643  773.260  773.260
 qs_forces                            1  2.0    0.000    0.000  762.299  762.299
 qs_energies                          1  3.0    0.000    0.000  756.326  756.326
 scf_env_do_scf                       1  4.0    0.000    0.000  744.349  744.349
 scf_env_do_scf_inner_loop           32  5.0    0.005    0.005  744.349  744.349
 gspace_mixing                       31  6.0    4.340    4.340  284.515  284.515
 broyden_mixing                      31  7.0  253.121  253.121  253.121  253.121
 qs_scf_new_mos                      32  6.0    0.001    0.001  211.136  211.136
 eigensolver                         32  7.0    0.004    0.004  200.560  200.560
 pw_transfer                        428  9.9    0.041    0.041  147.647  147.647
 fft_wrap_pw1pw2                    362 10.9    0.007    0.007  143.574  143.574
 rebuild_ks_matrix                   33  6.9    0.000    0.000  142.071  142.071
 qs_ks_build_kohn_sham_matrix        33  7.9    0.012    0.012  142.071  142.071
 qs_ks_update_qs_env                 32  6.0    0.000    0.000  137.758  137.758
 cp_fm_syevd                         32  8.0  136.939  136.939  137.082  137.082
 fft_wrap_pw1pw2_70                 164 11.2   10.631   10.631  129.458  129.458
 qs_rho_update_rho                   33  6.0    0.000    0.000  113.725  113.725
 calculate_rho_elec                  33  7.0   41.831   41.831  113.725  113.725
 fft3d_s                            363 12.8   71.455   71.455   71.472   71.472
 density_rs2pw                       33  8.0    0.004    0.004   70.664   70.664
 cp_fm_cholesky_restore              96  8.0   63.365   63.365   63.365   63.365
 sum_up_and_integrate                33  8.9    2.414    2.414   47.467   47.467
 integrate_v_rspace                  33  9.9    2.918    2.918   45.053   45.053
 pw_scatter_s                       196 13.1   44.499   44.499   44.499   44.499
 pw_poisson_solve                    33  8.9   35.856   35.856   40.187   40.187
 potential_pw2rs                     33 10.9    0.266    0.266   38.305   38.305
 qs_vxc_create                       33  8.9    0.001    0.001   20.481   20.481
 xc_vxc_pw_create                    33  9.9    4.662    4.662   20.480   20.480
 xc_rho_set_and_dset_create          33 10.9    0.001    0.001   15.817   15.817
 -------------------------------------------------------------------------------

 The number of warnings for this run is : 0
 
 -------------------------------------------------------------------------------
  **** **** ******  **  PROGRAM ENDED AT                 2020-05-21 05:41:51.464
 ***** ** ***  *** **   PROGRAM RAN ON                                   gnode39
 **    ****   ******    PROGRAM RAN BY                               mayank.modi
 ***** **    ** ** **   PROGRAM PROCESS ID                                 29353
  **** **  *******  **  PROGRAM STOPPED IN /home/mayank.modi/ab-initio-thermodyn
                                           amics-of-water/mayank/cp2k_energy_cal
                                           culations
