 DBCSR| CPU Multiplication driver                                           XSMM
 DBCSR| Multrec recursion limit                                              512
 DBCSR| Multiplication stack size                                           1000
 DBCSR| Maximum elements for images                                    UNLIMITED
 DBCSR| Multiplicative factor virtual images                                   1
 DBCSR| Use multiplication densification                                       T
 DBCSR| Multiplication size stacks                                             3


  **** **** ******  **  PROGRAM STARTED AT               2020-05-20 22:01:38.374
 ***** ** ***  *** **   PROGRAM STARTED ON                               gnode39
 **    ****   ******    PROGRAM STARTED BY                           mayank.modi
 ***** **    ** ** **   PROGRAM PROCESS ID                                 19288
  **** **  *******  **  PROGRAM STARTED IN /home/mayank.modi/ab-initio-thermodyn
                                           amics-of-water/mayank/cp2k_energy_cal
                                           culations

 CP2K| version string:                                          CP2K version 7.1
 CP2K| source code revision number:                                  git:e635599
 CP2K| cp2kflags: omp libint fftw3 libxc xsmm spglib                            
 CP2K| is freely available from                            https://www.cp2k.org/
 CP2K| Program compiled at                          Mon Dec 23 19:23:12 CET 2019
 CP2K| Program compiled on                                                pc9404
 CP2K| Program compiled for                                Linux-x86-64-gfortran
 CP2K| Data directory path                                        /opt/cp2k/data
 CP2K| Input file name                                              ./input23.in

 GLOBAL| Force Environment number                                              1
 GLOBAL| Basis set file name                                           BASIS_SET
 GLOBAL| Potential file name                                      GTH_POTENTIALS
 GLOBAL| MM Potential file name                                     MM_POTENTIAL
 GLOBAL| Coordinate file name                                      __STD_INPUT__
 GLOBAL| Method name                                                        CP2K
 GLOBAL| Project name                                                   H2O_bulk
 GLOBAL| Preferred FFT library                                             FFTW3
 GLOBAL| Preferred diagonalization lib.                                       SL
 GLOBAL| Run type                                                   ENERGY_FORCE
 GLOBAL| All-to-all communication in single precision                          F
 GLOBAL| FFTs using library dependent lengths                                  F
 GLOBAL| Global print level                                                  LOW
 GLOBAL| MPI I/O enabled                                                       T
 GLOBAL| Total number of message passing processes                             1
 GLOBAL| Number of threads for this process                                   20
 GLOBAL| This output is from process                                           0
 GLOBAL| CPU model name                Intel(R) Xeon(R) CPU E5-2640 v4 @ 2.40GHz
 GLOBAL| CPUID                                                              1002
 GLOBAL| Compiled for CPUID                                                    0

 MEMORY| system memory details [Kb]
 MEMORY|                        rank 0           min           max       average
 MEMORY| MemTotal            131898148     131898148     131898148     131898148
 MEMORY| MemFree              96078604      96078604      96078604      96078604
 MEMORY| Buffers               3186720       3186720       3186720       3186720
 MEMORY| Cached               28298924      28298924      28298924      28298924
 MEMORY| Slab                  3879524       3879524       3879524       3879524
 MEMORY| SReclaimable          3231952       3231952       3231952       3231952
 MEMORY| MemLikelyFree       130796200     130796200     130796200     130796200


 GENERATE|  Preliminary Number of Bonds generated:                             0
 GENERATE|  Achieved consistency in connectivity generation.

 *******************************************************************************
 *******************************************************************************
 **                                                                           **
 **     #####                         ##              ##                      **
 **    ##   ##            ##          ##              ##                      **
 **   ##     ##                       ##            ######                    **
 **   ##     ##  ##   ##  ##   #####  ##  ##   ####   ##    #####    #####    **
 **   ##     ##  ##   ##  ##  ##      ## ##   ##      ##   ##   ##  ##   ##   **
 **   ##  ## ##  ##   ##  ##  ##      ####     ###    ##   ######   ######    **
 **    ##  ###   ##   ##  ##  ##      ## ##      ##   ##   ##       ##        **
 **     #######   #####   ##   #####  ##  ##  ####    ##    #####   ##        **
 **           ##                                                    ##        **
 **                                                                           **
 **                                                ... make the atoms dance   **
 **                                                                           **
 **            Copyright (C) by CP2K developers group (2000 - 2019)           **
 **                                                                           **
 *******************************************************************************


 TOTAL NUMBERS AND MAXIMUM NUMBERS

  Total number of            - Atomic kinds:                                   2
                             - Atoms:                                        192
                             - Shell sets:                                   384
                             - Shells:                                       704
                             - Primitive Cartesian functions:                960
                             - Cartesian basis functions:                   1536
                             - Spherical basis functions:                   1472

  Maximum angular momentum of- Orbital basis functions:                        2
                             - Local part of the GTH pseudopotential:          2
                             - Non-local part of the GTH pseudopotential:      0


 SCF PARAMETERS         Density guess:                                    ATOMIC
                        --------------------------------------------------------
                        max_scf:                                             300
                        max_scf_history:                                       0
                        max_diis:                                              4
                        --------------------------------------------------------
                        eps_scf:                                        1.00E-07
                        eps_scf_history:                                0.00E+00
                        eps_diis:                                       1.00E-01
                        eps_eigval:                                     1.00E-05
                        --------------------------------------------------------
                        level_shift [a.u.]:                                 0.00
                        --------------------------------------------------------
                        Mixing method:                            BROYDEN_MIXING
                                                charge density mixing in g-space
                        --------------------------------------------------------
                        No outer SCF

 Number of electrons:                                                        512
 Number of occupied orbitals:                                                256
 Number of molecular orbitals:                                               256

 Number of orbital functions:                                               1472
 Number of independent orbital functions:                                   1472

 Extrapolation method: initial_guess


 SCF WAVEFUNCTION OPTIMIZATION

  Step     Update method      Time    Convergence         Total energy    Change
  ------------------------------------------------------------------------------
     1 NoMix/Diag. 0.40E+00   10.4     0.98792196     -1087.2901402624 -1.09E+03
     2 Broy./Diag. 0.40E+00   15.7     0.30264977     -1013.7479224628  7.35E+01
     3 Broy./Diag. 0.40E+00   16.9     0.02548093     -1095.0468128538 -8.13E+01
     4 Broy./Diag. 0.40E+00   17.6     0.02696136     -1094.4043360258  6.42E-01
     5 Broy./Diag. 0.40E+00   18.5     0.00254243     -1095.2870583670 -8.83E-01
     6 Broy./Diag. 0.40E+00   19.0     0.00412447     -1095.3054008054 -1.83E-02
     7 Broy./Diag. 0.40E+00   20.2     0.00231584     -1095.4395686595 -1.34E-01
     8 Broy./Diag. 0.40E+00   21.4     0.00352976     -1095.5533844549 -1.14E-01
     9 Broy./Diag. 0.40E+00   22.5     0.00302000     -1095.6315924929 -7.82E-02
    10 Broy./Diag. 0.40E+00   24.7     0.00198319     -1095.6588896726 -2.73E-02
    11 Broy./Diag. 0.40E+00   23.8     0.00186142     -1095.6336184102  2.53E-02
    12 Broy./Diag. 0.40E+00   23.5     0.00077026     -1095.6451248917 -1.15E-02
    13 Broy./Diag. 0.40E+00   24.4     0.00059390     -1095.6654981917 -2.04E-02
    14 Broy./Diag. 0.40E+00   23.7     0.00026426     -1095.6691385888 -3.64E-03
    15 Broy./Diag. 0.40E+00   23.4     0.00030970     -1095.6618131130  7.33E-03
    16 Broy./Diag. 0.40E+00   23.7     0.00012120     -1095.6611265260  6.87E-04
    17 Broy./Diag. 0.40E+00   23.9     0.00007060     -1095.6623354366 -1.21E-03
    18 Broy./Diag. 0.40E+00   25.0     0.00003542     -1095.6630161345 -6.81E-04
    19 Broy./Diag. 0.40E+00   23.3     0.00001659     -1095.6629309952  8.51E-05
    20 Broy./Diag. 0.40E+00   24.1     0.00001474     -1095.6622697787  6.61E-04
    21 Broy./Diag. 0.40E+00   23.7     0.00000935     -1095.6623715378 -1.02E-04
    22 Broy./Diag. 0.40E+00   23.3     0.00000553     -1095.6625511585 -1.80E-04
    23 Broy./Diag. 0.40E+00   23.4     0.00000601     -1095.6625735089 -2.24E-05
    24 Broy./Diag. 0.40E+00   25.0     0.00000264     -1095.6625282237  4.53E-05
    25 Broy./Diag. 0.40E+00   23.6     0.00000368     -1095.6624674892  6.07E-05
    26 Broy./Diag. 0.40E+00   24.0     0.00000126     -1095.6624676804 -1.91E-07
    27 Broy./Diag. 0.40E+00   24.1     0.00000096     -1095.6624699491 -2.27E-06
    28 Broy./Diag. 0.40E+00   23.3     0.00000085     -1095.6624728213 -2.87E-06
    29 Broy./Diag. 0.40E+00   23.3     0.00000034     -1095.6624668296  5.99E-06
    30 Broy./Diag. 0.40E+00   23.9     0.00000031     -1095.6624587441  8.09E-06
    31 Broy./Diag. 0.40E+00   24.3     0.00000018     -1095.6624567003  2.04E-06
    32 Broy./Diag. 0.40E+00   23.8     0.00000012     -1095.6624581230 -1.42E-06
    33 Broy./Diag. 0.40E+00   22.5     0.00000012     -1095.6624612327 -3.11E-06
    34 Broy./Diag. 0.40E+00   23.6     0.00000007     -1095.6624633959 -2.16E-06

  *** SCF run converged in    34 steps ***


  Electronic density on regular grids:       -511.9997980125        0.0002019875
  Core density on regular grids:              511.9999559964       -0.0000440036
  Total charge density on r-space grids:        0.0001579839
  Total charge density g-space grids:           0.0001579839

  Overlap energy of the core charge distribution:               0.00000473185830
  Self energy of the core charge distribution:              -2838.21791979120962
  Core Hamiltonian energy:                                    821.04111816760394
  Hartree energy:                                            1186.16089592029925
  Exchange-correlation energy:                               -264.64656242444124

  Total energy:                                             -1095.66246339588952

 ENERGY| Total FORCE_EVAL ( QS ) energy (a.u.):            -1095.662464363128265


 ATOMIC FORCES in [a.u.]

 # Atom   Kind   Element          X              Y              Z
      1      1      O          -0.03024579    -0.08895537     0.02952397
      2      2      H           0.01015841    -0.01457072    -0.03508978
      3      2      H          -0.00142312     0.01823710     0.01152438
      4      1      O           0.06281027    -0.06619527    -0.05942440
      5      2      H          -0.06157694     0.05090974    -0.06516314
      6      2      H           0.00252313    -0.04492278    -0.00661350
      7      1      O           0.00401708    -0.07249214     0.03658935
      8      2      H          -0.01724551    -0.00472504     0.00331995
      9      2      H           0.00976989    -0.00490916    -0.05271207
     10      1      O          -0.09203903    -0.01372331    -0.11878010
     11      2      H           0.06024560     0.01701662     0.03681537
     12      2      H           0.03441852    -0.01724174    -0.00568165
     13      1      O          -0.03881394    -0.06538086     0.10061899
     14      2      H           0.03649767     0.05618638     0.01406161
     15      2      H          -0.01241983    -0.01475529     0.02508334
     16      1      O           0.01660895    -0.03334203    -0.06472294
     17      2      H           0.03417621    -0.01058767    -0.03826962
     18      2      H          -0.02676906    -0.03848322    -0.03688081
     19      1      O           0.01937756     0.02675640    -0.03372779
     20      2      H          -0.04736500    -0.01200643     0.00035738
     21      2      H          -0.01775009    -0.02025935     0.02983297
     22      1      O           0.01342657     0.06129717    -0.00871785
     23      2      H          -0.01070385     0.02450433    -0.04670410
     24      2      H           0.02772162    -0.01009464     0.06664433
     25      1      O           0.01245882    -0.03896292     0.05285214
     26      2      H          -0.00315287    -0.04493878    -0.02554106
     27      2      H          -0.01214913    -0.01064001     0.00250071
     28      1      O           0.02992465    -0.01519555     0.10001999
     29      2      H          -0.04430167    -0.02809089     0.04337157
     30      2      H           0.00206692     0.01678458    -0.06576341
     31      1      O          -0.00094612     0.01942924    -0.05388751
     32      2      H           0.01473377    -0.04022479     0.03553786
     33      2      H          -0.00457598     0.03435027     0.03848489
     34      1      O           0.01438255     0.07676900     0.09222997
     35      2      H           0.00293688     0.00873307    -0.04169014
     36      2      H          -0.01758188     0.00698181    -0.02528587
     37      1      O           0.02068684     0.07649032     0.04177750
     38      2      H          -0.04273264    -0.02796040    -0.08826761
     39      2      H           0.00536298     0.02313466    -0.01601947
     40      1      O          -0.06247895    -0.05774443     0.09980797
     41      2      H           0.02991123     0.01999833     0.04103550
     42      2      H          -0.01229525    -0.00136240    -0.01165117
     43      1      O          -0.02422260     0.07327356     0.05916859
     44      2      H           0.05354370    -0.00857540     0.00765094
     45      2      H          -0.00659544     0.03361557    -0.03394148
     46      1      O           0.00392434    -0.02632401     0.01650179
     47      2      H           0.00937963     0.02785101    -0.01272809
     48      2      H           0.02027967     0.02935931     0.01134824
     49      1      O           0.01785832    -0.06013801    -0.05571808
     50      2      H          -0.03944206    -0.02349765    -0.04187997
     51      2      H           0.03497152    -0.01218967    -0.02956334
     52      1      O          -0.02108290    -0.00113695     0.05034754
     53      2      H           0.02791261    -0.01009139     0.01142574
     54      2      H           0.01622340     0.03415902     0.06026591
     55      1      O          -0.02629056    -0.03609296     0.08260507
     56      2      H          -0.00240868    -0.00286580    -0.01259827
     57      2      H          -0.00724130     0.01998056    -0.00095652
     58      1      O           0.03450361     0.00390118     0.12317094
     59      2      H           0.01971721    -0.02469699     0.00642919
     60      2      H          -0.04246327    -0.02315769    -0.03762726
     61      1      O           0.03548942    -0.03311726     0.03955307
     62      2      H           0.00541650    -0.01462209     0.01514090
     63      2      H           0.00530987     0.02148566    -0.04017164
     64      1      O           0.03425425    -0.02053073    -0.02680820
     65      2      H           0.00401342    -0.07604292    -0.09006774
     66      2      H          -0.01101874     0.01316144    -0.05089893
     67      1      O          -0.01452708     0.06030846    -0.06112890
     68      2      H           0.02190778    -0.03542898     0.01220950
     69      2      H           0.01949954     0.01038467     0.06036357
     70      1      O           0.00866127    -0.10686730    -0.13139141
     71      2      H          -0.04782142     0.02226669    -0.03162112
     72      2      H           0.00626778     0.05125812     0.03813538
     73      1      O          -0.01310149     0.07892351     0.14889749
     74      2      H           0.02021375    -0.06513492    -0.04420683
     75      2      H           0.02591039     0.03235321    -0.06483764
     76      1      O           0.03345013     0.19977376    -0.07624559
     77      2      H          -0.02329871    -0.12124577     0.03922965
     78      2      H           0.01050149     0.01764571    -0.05198660
     79      1      O           0.00672305    -0.10237981    -0.02308227
     80      2      H          -0.04869823     0.03719771    -0.05169558
     81      2      H           0.04342174     0.01229314     0.01611382
     82      1      O          -0.04297449     0.00407811    -0.03059489
     83      2      H          -0.00333366    -0.00475440    -0.00983126
     84      2      H           0.00449002     0.02527596    -0.04413714
     85      1      O           0.02119323    -0.12483243     0.01426078
     86      2      H           0.04050327     0.01440230     0.00929841
     87      2      H          -0.04895840     0.03593137     0.03220841
     88      1      O          -0.03153333    -0.03138103     0.04286048
     89      2      H          -0.00410252    -0.05397411     0.04641488
     90      2      H           0.01406340     0.03605560    -0.02376226
     91      1      O           0.02449965     0.04833650     0.07144757
     92      2      H           0.02050386    -0.00872147     0.06089403
     93      2      H          -0.00503180    -0.01039229    -0.04095692
     94      1      O          -0.04560796     0.02516728    -0.11427182
     95      2      H           0.06764213    -0.03045253    -0.01134508
     96      2      H           0.00429210     0.01199324    -0.02592031
     97      1      O          -0.05170887    -0.06204956     0.08209093
     98      2      H           0.01231276     0.06703044     0.01856139
     99      2      H           0.04437487    -0.02254600     0.03039980
    100      1      O          -0.01168362     0.03670763    -0.08374676
    101      2      H           0.03427743    -0.00861315    -0.00352248
    102      2      H          -0.00213215     0.02630594    -0.02421414
    103      1      O          -0.10923564    -0.00159640    -0.07889240
    104      2      H           0.09570090    -0.01118118    -0.02352490
    105      2      H           0.01267684     0.00575136    -0.01617388
    106      1      O          -0.04813859     0.05531414    -0.03940413
    107      2      H           0.02625375     0.00501225    -0.05047871
    108      2      H          -0.01547935     0.01334957    -0.03715059
    109      1      O          -0.03409179     0.02151266     0.13342508
    110      2      H           0.01412741    -0.00398441     0.02942983
    111      2      H          -0.01525202    -0.04133468     0.00248311
    112      1      O          -0.04633550     0.02957624     0.01769555
    113      2      H           0.02668935     0.00857999     0.07632684
    114      2      H           0.00246074    -0.00317081     0.02287506
    115      1      O          -0.02304418     0.04493074    -0.00297387
    116      2      H           0.02623370     0.00336704     0.01945717
    117      2      H          -0.01468701    -0.02650660    -0.00399024
    118      1      O          -0.00146695    -0.07943622    -0.01802499
    119      2      H           0.00555626    -0.00685242     0.00231779
    120      2      H           0.01876492    -0.02900656    -0.04617277
    121      1      O           0.05029006     0.10514753     0.10021766
    122      2      H          -0.01257137    -0.02679632     0.01549652
    123      2      H          -0.01527564     0.02902239     0.00079928
    124      1      O           0.01570455    -0.05076047    -0.10032070
    125      2      H          -0.00618358    -0.00573448    -0.02406022
    126      2      H          -0.02424652     0.00336092     0.00948543
    127      1      O           0.02318701    -0.12725760     0.02405605
    128      2      H          -0.03033052     0.02888594    -0.02720439
    129      2      H          -0.03256749     0.00753451     0.02648405
    130      1      O          -0.01002070    -0.11844393     0.10426881
    131      2      H          -0.01095014     0.03647818     0.04755368
    132      2      H           0.03972562    -0.01120399    -0.00271624
    133      1      O          -0.01113666    -0.06570892    -0.08562965
    134      2      H           0.05696452     0.03877405     0.03452017
    135      2      H           0.00352775    -0.04468572     0.01017576
    136      1      O          -0.01406885     0.07146529    -0.13735179
    137      2      H          -0.02993948    -0.02833066    -0.03148972
    138      2      H           0.00496659    -0.03514829     0.02341957
    139      1      O           0.03702644    -0.02326505     0.03696646
    140      2      H          -0.03473863     0.01922080     0.05814837
    141      2      H          -0.00856015    -0.01384276    -0.02179794
    142      1      O           0.01457748    -0.03979043    -0.06732260
    143      2      H           0.01397207     0.01310126     0.00611437
    144      2      H          -0.00106450    -0.02884213    -0.01365863
    145      1      O          -0.04412590     0.05642123     0.07750669
    146      2      H           0.03830179    -0.04931715    -0.04839312
    147      2      H          -0.01801830     0.01270183     0.03595041
    148      1      O          -0.06809176     0.02432682     0.15910849
    149      2      H           0.00087829     0.05168065    -0.07200652
    150      2      H           0.03621237    -0.05433330     0.00894070
    151      1      O          -0.01042814     0.02303955    -0.03895507
    152      2      H          -0.02558038    -0.01004647    -0.05954081
    153      2      H          -0.00802575    -0.03433142    -0.00519431
    154      1      O           0.04990837    -0.05325416     0.11176545
    155      2      H          -0.00416315     0.07542375     0.02170506
    156      2      H          -0.02186586    -0.03118516     0.02509006
    157      1      O          -0.00505468     0.01488378     0.10587449
    158      2      H           0.00415727     0.02754436     0.03938133
    159      2      H          -0.00986187    -0.02886445     0.02456584
    160      1      O           0.04179162     0.08094216     0.13060765
    161      2      H          -0.00610318    -0.05869992    -0.03043485
    162      2      H          -0.00362915    -0.01726815    -0.02185081
    163      1      O          -0.02101191     0.08765566     0.05905720
    164      2      H           0.04977995    -0.03585260    -0.01940826
    165      2      H           0.00863268     0.01450285     0.01714273
    166      1      O          -0.05458800    -0.06321179    -0.13850926
    167      2      H           0.02758343     0.02037254     0.00382120
    168      2      H           0.02890633    -0.02595466    -0.00017594
    169      1      O          -0.02568193    -0.12197055    -0.02037658
    170      2      H          -0.05102474     0.01060192    -0.05225679
    171      2      H           0.03980164     0.01122027     0.01348437
    172      1      O           0.03218214     0.01320567    -0.12912829
    173      2      H           0.01730871     0.01311861     0.03315586
    174      2      H          -0.02626218    -0.00322785    -0.01974298
    175      1      O           0.00191621     0.07968371     0.02210776
    176      2      H          -0.02750797    -0.00338111    -0.04927152
    177      2      H           0.00969028    -0.01553032    -0.02780476
    178      1      O           0.02307283     0.11762124    -0.09025289
    179      2      H           0.00377600     0.02822389    -0.04016647
    180      2      H          -0.00341004    -0.05887219    -0.02883183
    181      1      O           0.02434921     0.00968574    -0.08749731
    182      2      H          -0.00591112     0.02335799    -0.02411697
    183      2      H          -0.01820411    -0.04081154    -0.01953791
    184      1      O          -0.02254775    -0.06637854    -0.09661715
    185      2      H           0.00440148    -0.03229117     0.00293122
    186      2      H          -0.00168174     0.02225850     0.01220607
    187      1      O           0.05688487     0.08140041    -0.05158786
    188      2      H          -0.02396797    -0.02526255    -0.04974721
    189      2      H           0.01547708    -0.04437280    -0.04097074
    190      1      O           0.00449963    -0.01264066     0.01104707
    191      2      H           0.01720818    -0.01343174     0.03467775
    192      2      H           0.03218103    -0.03781855     0.10784443
 SUM OF ATOMIC FORCES           0.14105185    -0.63249363    -0.40409486     0.76369921

 -------------------------------------------------------------------------------
 -                                                                             -
 -                                DBCSR STATISTICS                             -
 -                                                                             -
 -------------------------------------------------------------------------------
 COUNTER                                    TOTAL       BLAS       SMM       ACC
 flops     5 x     5 x   256            949760000       0.0%    100.0%      0.0%
 flops     5 x    13 x   256           1200908800       0.0%    100.0%      0.0%
 flops    13 x     5 x   256           1217216000       0.0%    100.0%      0.0%
 flops    13 x    13 x   256           1668692480       0.0%    100.0%      0.0%
 flops inhomo. stacks                           0       0.0%      0.0%      0.0%
 flops total                         5.036577E+09       0.0%    100.0%      0.0%
 flops max/rank                      5.036577E+09       0.0%    100.0%      0.0%
 matmuls inhomo. stacks                         0       0.0%      0.0%      0.0%
 matmuls total                             166145       0.0%    100.0%      0.0%
 number of processed stacks                  2730       0.0%    100.0%      0.0%
 average stack size                                     0.0      60.9       0.0
 marketing flops                    38.828769E+09
 -------------------------------------------------------------------------------
 # multiplications                             35
 max memory usage/rank              25.808191E+09
 # max total images/rank                        1
 # max 3D layers                                1
 # MPI messages exchanged                       0
 MPI messages size (bytes):
  total size                         0.000000E+00
  min size                           0.000000E+00
  max size                           0.000000E+00
  average size                       0.000000E+00
 MPI breakdown and total messages size (bytes):
             size <=      128                   0                        0
       128 < size <=     8192                   0                        0
      8192 < size <=    32768                   0                        0
     32768 < size <=   131072                   0                        0
    131072 < size <=  4194304                   0                        0
   4194304 < size <= 16777216                   0                        0
  16777216 < size                               0                        0
 -------------------------------------------------------------------------------

 MEMORY| Estimated peak process memory [MiB]                               24615

 -------------------------------------------------------------------------------
 -                                                                             -
 -                           R E F E R E N C E S                               -
 -                                                                             -
 -------------------------------------------------------------------------------
 
 CP2K version 7.1, the CP2K developers group (2019).
 CP2K is freely available from https://www.cp2k.org/ .

 Schuett, Ole; Messmer, Peter; Hutter, Juerg; VandeVondele, Joost. 
 Electronic Structure Calculations on Graphics Processing Units, John
 Wiley & Sons, Ltd, 173-190 (2016). 
 GPU-Accelerated Sparse Matrix-Matrix Multiplication for
 Linear Scaling Density Functional Theory.
 https://dx.doi.org/10.1002/9781118670712.ch8

 Borstnik, U; VandeVondele, J; Weber, V; Hutter, J. 
 PARALLEL COMPUTING, 40 (5-6), 47-58 (2014). 
 Sparse matrix multiplication: The distributed block-compressed sparse
 row library.
 https://dx.doi.org/10.1016/j.parco.2014.03.012

 Hutter, J; Iannuzzi, M; Schiffmann, F; VandeVondele, J. 
 WIREs Comput Mol Sci., 4 (1), 15-25 (2014). 
 CP2K: atomistic simulations of condensed matter systems.
 https://dx.doi.org/10.1002/wcms.1159

 Krack, M. 
 THEORETICAL CHEMISTRY ACCOUNTS, 114 (1-3), 145-152 (2005). 
 Pseudopotentials for H to Kr optimized for gradient-corrected
 exchange-correlation functionals.
 https://dx.doi.org/10.1007/s00214-005-0655-y

 VandeVondele, J; Krack, M; Mohamed, F; Parrinello, M; Chassaing, T;
 Hutter, J. COMPUTER PHYSICS COMMUNICATIONS, 167 (2), 103-128 (2005). 
 QUICKSTEP: Fast and accurate density functional calculations using a
 mixed Gaussian and plane waves approach.
 https://dx.doi.org/10.1016/j.cpc.2004.12.014

 Frigo, M; Johnson, SG. 
 PROCEEDINGS OF THE IEEE, 93 (2), 216-231 (2005). 
 The design and implementation of FFTW3.
 https://dx.doi.org/10.1109/JPROC.2004.840301

 Hartwigsen, C; Goedecker, S; Hutter, J. 
 PHYSICAL REVIEW B, 58 (7), 3641-3662 (1998). 
 Relativistic separable dual-space Gaussian pseudopotentials from H to Rn.
 https://dx.doi.org/10.1103/PhysRevB.58.3641

 Lippert, G; Hutter, J; Parrinello, M. 
 MOLECULAR PHYSICS, 92 (3), 477-487 (1997). 
 A hybrid Gaussian and plane wave density functional scheme.
 https://dx.doi.org/10.1080/002689797170220

 Goedecker, S; Teter, M; Hutter, J. 
 PHYSICAL REVIEW B, 54 (3), 1703-1710 (1996). 
 Separable dual-space Gaussian pseudopotentials.
 https://dx.doi.org/10.1103/PhysRevB.54.1703


 -------------------------------------------------------------------------------
 -                                                                             -
 -                                T I M I N G                                  -
 -                                                                             -
 -------------------------------------------------------------------------------
 SUBROUTINE                       CALLS  ASD         SELF TIME        TOTAL TIME
                                MAXIMUM       AVERAGE  MAXIMUM  AVERAGE  MAXIMUM
 CP2K                                 1  1.0    0.664    0.664  787.521  787.521
 qs_forces                            1  2.0    0.000    0.000  776.464  776.464
 qs_energies                          1  3.0    0.000    0.000  772.438  772.438
 scf_env_do_scf                       1  4.0    0.000    0.000  760.976  760.976
 scf_env_do_scf_inner_loop           34  5.0    0.005    0.005  760.976  760.976
 gspace_mixing                       33  6.0    4.660    4.660  305.651  305.651
 broyden_mixing                      33  7.0  273.332  273.332  273.333  273.333
 qs_scf_new_mos                      34  6.0    0.001    0.001  216.231  216.231
 eigensolver                         34  7.0    0.004    0.004  212.580  212.580
 cp_fm_syevd                         34  8.0  145.313  145.313  145.480  145.480
 pw_transfer                        454  9.9    0.042    0.042  143.190  143.190
 fft_wrap_pw1pw2                    384 10.9    0.005    0.005  139.912  139.912
 rebuild_ks_matrix                   35  6.9    0.000    0.000  138.824  138.824
 qs_ks_build_kohn_sham_matrix        35  7.9    0.009    0.009  138.824  138.824
 qs_ks_update_qs_env                 34  6.0    0.000    0.000  134.995  134.995
 fft_wrap_pw1pw2_70                 174 11.2   10.986   10.986  128.136  128.136
 qs_rho_update_rho                   35  6.0    0.000    0.000  106.860  106.860
 calculate_rho_elec                  35  7.0   36.907   36.907  106.860  106.860
 density_rs2pw                       35  8.0    0.003    0.003   68.998   68.998
 fft3d_s                            385 12.8   67.891   67.891   67.899   67.899
 cp_fm_cholesky_restore             102  8.0   66.972   66.972   66.972   66.972
 pw_scatter_s                       208 13.1   46.666   46.666   46.666   46.666
 pw_poisson_solve                    35  8.9   40.480   40.480   44.018   44.018
 sum_up_and_integrate                35  8.9    2.131    2.131   39.916   39.916
 integrate_v_rspace                  35  9.9    2.557    2.557   37.785   37.785
 potential_pw2rs                     35 10.9    0.283    0.283   35.171   35.171
 qs_vxc_create                       35  8.9    0.001    0.001   21.073   21.073
 xc_vxc_pw_create                    35  9.9    4.917    4.917   21.072   21.072
 xc_rho_set_and_dset_create          35 10.9    0.001    0.001   16.154   16.154
 -------------------------------------------------------------------------------

 The number of warnings for this run is : 0
 
 -------------------------------------------------------------------------------
  **** **** ******  **  PROGRAM ENDED AT                 2020-05-20 22:14:46.009
 ***** ** ***  *** **   PROGRAM RAN ON                                   gnode39
 **    ****   ******    PROGRAM RAN BY                               mayank.modi
 ***** **    ** ** **   PROGRAM PROCESS ID                                 19288
  **** **  *******  **  PROGRAM STOPPED IN /home/mayank.modi/ab-initio-thermodyn
                                           amics-of-water/mayank/cp2k_energy_cal
                                           culations
