 DBCSR| CPU Multiplication driver                                           XSMM
 DBCSR| Multrec recursion limit                                              512
 DBCSR| Multiplication stack size                                           1000
 DBCSR| Maximum elements for images                                    UNLIMITED
 DBCSR| Multiplicative factor virtual images                                   1
 DBCSR| Use multiplication densification                                       T
 DBCSR| Multiplication size stacks                                             3


  **** **** ******  **  PROGRAM STARTED AT               2020-05-21 19:06:03.150
 ***** ** ***  *** **   PROGRAM STARTED ON                               gnode39
 **    ****   ******    PROGRAM STARTED BY                           mayank.modi
 ***** **    ** ** **   PROGRAM PROCESS ID                                 29271
  **** **  *******  **  PROGRAM STARTED IN /home/mayank.modi/ab-initio-thermodyn
                                           amics-of-water/mayank/cp2k_energy_cal
                                           culations

 CP2K| version string:                                          CP2K version 7.1
 CP2K| source code revision number:                                  git:e635599
 CP2K| cp2kflags: omp libint fftw3 libxc xsmm spglib                            
 CP2K| is freely available from                            https://www.cp2k.org/
 CP2K| Program compiled at                          Mon Dec 23 19:23:12 CET 2019
 CP2K| Program compiled on                                                pc9404
 CP2K| Program compiled for                                Linux-x86-64-gfortran
 CP2K| Data directory path                                        /opt/cp2k/data
 CP2K| Input file name                                             ./input119.in

 GLOBAL| Force Environment number                                              1
 GLOBAL| Basis set file name                                           BASIS_SET
 GLOBAL| Potential file name                                      GTH_POTENTIALS
 GLOBAL| MM Potential file name                                     MM_POTENTIAL
 GLOBAL| Coordinate file name                                      __STD_INPUT__
 GLOBAL| Method name                                                        CP2K
 GLOBAL| Project name                                                   H2O_bulk
 GLOBAL| Preferred FFT library                                             FFTW3
 GLOBAL| Preferred diagonalization lib.                                       SL
 GLOBAL| Run type                                                   ENERGY_FORCE
 GLOBAL| All-to-all communication in single precision                          F
 GLOBAL| FFTs using library dependent lengths                                  F
 GLOBAL| Global print level                                                  LOW
 GLOBAL| MPI I/O enabled                                                       T
 GLOBAL| Total number of message passing processes                             1
 GLOBAL| Number of threads for this process                                   20
 GLOBAL| This output is from process                                           0
 GLOBAL| CPU model name                Intel(R) Xeon(R) CPU E5-2640 v4 @ 2.40GHz
 GLOBAL| CPUID                                                              1002
 GLOBAL| Compiled for CPUID                                                    0

 MEMORY| system memory details [Kb]
 MEMORY|                        rank 0           min           max       average
 MEMORY| MemTotal            131898148     131898148     131898148     131898148
 MEMORY| MemFree              81282348      81282348      81282348      81282348
 MEMORY| Buffers               3188104       3188104       3188104       3188104
 MEMORY| Cached               33742964      33742964      33742964      33742964
 MEMORY| Slab                  4007608       4007608       4007608       4007608
 MEMORY| SReclaimable          3294708       3294708       3294708       3294708
 MEMORY| MemLikelyFree       121508124     121508124     121508124     121508124


 GENERATE|  Preliminary Number of Bonds generated:                             0
 GENERATE|  Achieved consistency in connectivity generation.

 *******************************************************************************
 *******************************************************************************
 **                                                                           **
 **     #####                         ##              ##                      **
 **    ##   ##            ##          ##              ##                      **
 **   ##     ##                       ##            ######                    **
 **   ##     ##  ##   ##  ##   #####  ##  ##   ####   ##    #####    #####    **
 **   ##     ##  ##   ##  ##  ##      ## ##   ##      ##   ##   ##  ##   ##   **
 **   ##  ## ##  ##   ##  ##  ##      ####     ###    ##   ######   ######    **
 **    ##  ###   ##   ##  ##  ##      ## ##      ##   ##   ##       ##        **
 **     #######   #####   ##   #####  ##  ##  ####    ##    #####   ##        **
 **           ##                                                    ##        **
 **                                                                           **
 **                                                ... make the atoms dance   **
 **                                                                           **
 **            Copyright (C) by CP2K developers group (2000 - 2019)           **
 **                                                                           **
 *******************************************************************************


 TOTAL NUMBERS AND MAXIMUM NUMBERS

  Total number of            - Atomic kinds:                                   2
                             - Atoms:                                        192
                             - Shell sets:                                   384
                             - Shells:                                       704
                             - Primitive Cartesian functions:                960
                             - Cartesian basis functions:                   1536
                             - Spherical basis functions:                   1472

  Maximum angular momentum of- Orbital basis functions:                        2
                             - Local part of the GTH pseudopotential:          2
                             - Non-local part of the GTH pseudopotential:      0


 SCF PARAMETERS         Density guess:                                    ATOMIC
                        --------------------------------------------------------
                        max_scf:                                             300
                        max_scf_history:                                       0
                        max_diis:                                              4
                        --------------------------------------------------------
                        eps_scf:                                        1.00E-07
                        eps_scf_history:                                0.00E+00
                        eps_diis:                                       1.00E-01
                        eps_eigval:                                     1.00E-05
                        --------------------------------------------------------
                        level_shift [a.u.]:                                 0.00
                        --------------------------------------------------------
                        Mixing method:                            BROYDEN_MIXING
                                                charge density mixing in g-space
                        --------------------------------------------------------
                        No outer SCF

 Number of electrons:                                                        512
 Number of occupied orbitals:                                                256
 Number of molecular orbitals:                                               256

 Number of orbital functions:                                               1472
 Number of independent orbital functions:                                   1472

 Extrapolation method: initial_guess


 SCF WAVEFUNCTION OPTIMIZATION

  Step     Update method      Time    Convergence         Total energy    Change
  ------------------------------------------------------------------------------
     1 NoMix/Diag. 0.40E+00   11.2     0.98427519     -1087.4234169648 -1.09E+03
     2 Broy./Diag. 0.40E+00   16.4     0.29839348     -1013.5219776276  7.39E+01
     3 Broy./Diag. 0.40E+00   17.5     0.02364139     -1094.5252720322 -8.10E+01
     4 Broy./Diag. 0.40E+00   19.7     0.02861175     -1094.2667945653  2.58E-01
     5 Broy./Diag. 0.40E+00   21.0     0.00254476     -1095.1976131021 -9.31E-01
     6 Broy./Diag. 0.40E+00   22.5     0.00464121     -1095.2300699392 -3.25E-02
     7 Broy./Diag. 0.40E+00   22.8     0.00297652     -1095.3993343774 -1.69E-01
     8 Broy./Diag. 0.40E+00   23.0     0.00383023     -1095.5330170130 -1.34E-01
     9 Broy./Diag. 0.40E+00   25.0     0.00386395     -1095.6033830104 -7.04E-02
    10 Broy./Diag. 0.40E+00   27.9     0.00163173     -1095.6384833927 -3.51E-02
    11 Broy./Diag. 0.40E+00   28.8     0.00149919     -1095.6045153841  3.40E-02
    12 Broy./Diag. 0.40E+00   28.6     0.00064530     -1095.6158367159 -1.13E-02
    13 Broy./Diag. 0.40E+00   25.3     0.00058342     -1095.6369567133 -2.11E-02
    14 Broy./Diag. 0.40E+00   27.8     0.00025282     -1095.6383229338 -1.37E-03
    15 Broy./Diag. 0.40E+00   28.2     0.00024424     -1095.6319666768  6.36E-03
    16 Broy./Diag. 0.40E+00   27.0     0.00016856     -1095.6317839250  1.83E-04
    17 Broy./Diag. 0.40E+00   25.7     0.00007900     -1095.6331821995 -1.40E-03
    18 Broy./Diag. 0.40E+00   27.4     0.00004887     -1095.6339705963 -7.88E-04
    19 Broy./Diag. 0.40E+00   28.5     0.00001650     -1095.6336335056  3.37E-04
    20 Broy./Diag. 0.40E+00   28.3     0.00001499     -1095.6329207084  7.13E-04
    21 Broy./Diag. 0.40E+00   26.4     0.00001020     -1095.6329793542 -5.86E-05
    22 Broy./Diag. 0.40E+00   27.8     0.00000470     -1095.6331631506 -1.84E-04
    23 Broy./Diag. 0.40E+00   27.4     0.00000697     -1095.6332437668 -8.06E-05
    24 Broy./Diag. 0.40E+00   27.0     0.00000164     -1095.6331647362  7.90E-05
    25 Broy./Diag. 0.40E+00   26.9     0.00000282     -1095.6330795693  8.52E-05
    26 Broy./Diag. 0.40E+00   27.5     0.00000145     -1095.6331023923 -2.28E-05
    27 Broy./Diag. 0.40E+00   28.3     0.00000092     -1095.6331274966 -2.51E-05
    28 Broy./Diag. 0.40E+00   26.3     0.00000071     -1095.6331274544  4.22E-08
    29 Broy./Diag. 0.40E+00   26.5     0.00000040     -1095.6331216602  5.79E-06
    30 Broy./Diag. 0.40E+00   26.8     0.00000023     -1095.6331211394  5.21E-07
    31 Broy./Diag. 0.40E+00   27.7     0.00000015     -1095.6331237373 -2.60E-06
    32 Broy./Diag. 0.40E+00   27.3     0.00000009     -1095.6331260192 -2.28E-06

  *** SCF run converged in    32 steps ***


  Electronic density on regular grids:       -511.9991908503        0.0008091497
  Core density on regular grids:              511.9999207612       -0.0000792388
  Total charge density on r-space grids:        0.0007299109
  Total charge density g-space grids:           0.0007299109

  Overlap energy of the core charge distribution:               0.00000469854035
  Self energy of the core charge distribution:              -2838.21791979120962
  Core Hamiltonian energy:                                    821.55231410354941
  Hartree energy:                                            1185.85157245205710
  Exchange-correlation energy:                               -264.81909748215702

  Total energy:                                             -1095.63312601922007

 ENERGY| Total FORCE_EVAL ( QS ) energy (a.u.):            -1095.633127625175575


 ATOMIC FORCES in [a.u.]

 # Atom   Kind   Element          X              Y              Z
      1      1      O           0.02150883    -0.09270194     0.01088622
      2      2      H          -0.05529984     0.03200145     0.07780719
      3      2      H           0.01347433     0.03840736     0.01268870
      4      1      O           0.02683709    -0.11952071     0.11959276
      5      2      H          -0.03644365     0.08813465    -0.04988232
      6      2      H          -0.00200807    -0.03299216     0.03113821
      7      1      O           0.07945523     0.00557630    -0.06719498
      8      2      H          -0.05263732    -0.03869709     0.04151375
      9      2      H          -0.01886860     0.02649726     0.02429481
     10      1      O          -0.01685856     0.06306574    -0.00655961
     11      2      H           0.04301393     0.03906072     0.07064764
     12      2      H          -0.00293741     0.00198264    -0.03877850
     13      1      O          -0.06167083     0.04093616     0.15256369
     14      2      H           0.02996193     0.02114306    -0.02751565
     15      2      H          -0.01143138    -0.02506688     0.01929903
     16      1      O           0.01291942    -0.05881322    -0.12142246
     17      2      H           0.00962457    -0.03592910    -0.00276263
     18      2      H          -0.02995929    -0.00692520    -0.01495992
     19      1      O          -0.01255686    -0.07842078    -0.01444985
     20      2      H           0.01092814     0.02724417    -0.02144241
     21      2      H          -0.01686833    -0.00860966    -0.03734655
     22      1      O           0.01403641    -0.01457991    -0.09339045
     23      2      H           0.03052417     0.01576716    -0.03295739
     24      2      H          -0.00992127    -0.00635730    -0.03941113
     25      1      O           0.05974358     0.06897773    -0.05328438
     26      2      H          -0.00510082    -0.00286187     0.01505756
     27      2      H          -0.04343131    -0.00565023     0.06392521
     28      1      O           0.00226851    -0.04440912    -0.05902096
     29      2      H           0.03623217    -0.00001043    -0.05031101
     30      2      H          -0.03474465     0.01882558    -0.01134309
     31      1      O           0.05160432    -0.01183291    -0.12439909
     32      2      H          -0.03656164     0.06480992    -0.01195837
     33      2      H          -0.00862433     0.01708182    -0.01669898
     34      1      O           0.05488301    -0.00765248     0.09058666
     35      2      H          -0.05392382     0.00206573    -0.04614912
     36      2      H           0.01072925    -0.01534689    -0.00190211
     37      1      O          -0.03146933     0.01144384     0.01270693
     38      2      H           0.05518122    -0.01976342     0.07689436
     39      2      H          -0.00445392     0.02133301    -0.00695829
     40      1      O          -0.06347233    -0.10180706    -0.11106360
     41      2      H           0.01664119     0.00057982     0.03690830
     42      2      H           0.02730196     0.01472680    -0.02911724
     43      1      O           0.03277839    -0.02925125     0.03884519
     44      2      H          -0.00203224     0.00359129     0.04278664
     45      2      H           0.00936856    -0.03089000    -0.01116714
     46      1      O           0.00505690    -0.00696609    -0.07606324
     47      2      H          -0.00406338    -0.04946956     0.02117731
     48      2      H           0.00246050    -0.02435404    -0.03809122
     49      1      O          -0.05195479     0.08047105    -0.09303883
     50      2      H           0.01606492     0.01645897    -0.03728536
     51      2      H           0.03063893     0.01433032     0.01186329
     52      1      O           0.00240561    -0.04042977    -0.02812828
     53      2      H           0.02387475    -0.03308470    -0.02955948
     54      2      H          -0.00665098     0.02184490     0.03760684
     55      1      O           0.08690133    -0.02211231     0.00716407
     56      2      H          -0.01644489    -0.02610501    -0.00912541
     57      2      H          -0.05205083    -0.01209325     0.04512392
     58      1      O           0.02823698     0.02844801     0.04461627
     59      2      H          -0.02313949     0.03773817     0.01683955
     60      2      H          -0.01132619    -0.05585942    -0.02275957
     61      1      O           0.00310956     0.09511763     0.08656314
     62      2      H           0.01720199    -0.02929681    -0.03151028
     63      2      H           0.01011173    -0.02194062     0.02027810
     64      1      O           0.02919167    -0.04656438    -0.04460558
     65      2      H           0.01706224     0.02353719    -0.00413619
     66      2      H          -0.01998529     0.02780056    -0.01366486
     67      1      O           0.00015603     0.07455133     0.05195997
     68      2      H           0.01280770     0.03678385    -0.02680800
     69      2      H           0.00791641    -0.04428138     0.00025894
     70      1      O          -0.00471263    -0.03300757     0.00359660
     71      2      H          -0.00233073     0.02513934    -0.06034393
     72      2      H          -0.02036577     0.04557518    -0.01589211
     73      1      O          -0.03322996     0.12691512     0.05881639
     74      2      H          -0.00763550    -0.05156069     0.03277321
     75      2      H          -0.00303337    -0.03098127    -0.04940797
     76      1      O          -0.01559924     0.09439537    -0.07634073
     77      2      H          -0.01534348    -0.03101759    -0.04451470
     78      2      H           0.01024273    -0.03434129     0.03971330
     79      1      O           0.02836752    -0.07789618     0.09003223
     80      2      H          -0.02400196     0.02482517    -0.09244265
     81      2      H          -0.00419232     0.02134580    -0.00794336
     82      1      O          -0.03750909     0.02842454    -0.10723868
     83      2      H          -0.01353747    -0.01883774     0.03061784
     84      2      H           0.04954600    -0.04013336     0.10448642
     85      1      O           0.03993603    -0.11337525     0.13192285
     86      2      H           0.02379765     0.03383032    -0.01063177
     87      2      H          -0.02423286     0.01567189     0.02124605
     88      1      O          -0.05186550     0.08646736    -0.09174427
     89      2      H           0.04743560    -0.03521172     0.02098127
     90      2      H           0.01300110    -0.01144393     0.02681998
     91      1      O           0.02678661     0.03363285     0.05624715
     92      2      H          -0.00491372     0.02870668     0.04037487
     93      2      H          -0.01132741     0.00619364    -0.01671218
     94      1      O          -0.02141365     0.08002403     0.05429137
     95      2      H           0.02125449     0.00605361    -0.01908502
     96      2      H          -0.00837440    -0.02276154    -0.00898113
     97      1      O          -0.06763530    -0.02999956    -0.01031024
     98      2      H          -0.00051922     0.06507414     0.01523626
     99      2      H           0.01331090     0.00215543    -0.00828416
    100      1      O           0.01663153     0.04765387     0.14727064
    101      2      H          -0.01719491     0.00390185    -0.03902981
    102      2      H          -0.00508939    -0.03784300     0.04962276
    103      1      O           0.03187886     0.00093998     0.01329629
    104      2      H          -0.00864500    -0.02015262    -0.06361842
    105      2      H           0.00278051     0.04965873     0.02719699
    106      1      O          -0.03465839    -0.02683358    -0.00898860
    107      2      H           0.03365507     0.06049278    -0.04963512
    108      2      H           0.00970103     0.02821747    -0.01024331
    109      1      O           0.00915149     0.04039510     0.03575813
    110      2      H          -0.01754228    -0.03105269     0.06428534
    111      2      H          -0.00647814    -0.02979943    -0.00820521
    112      1      O          -0.02871646     0.04683781    -0.15538736
    113      2      H          -0.02218011     0.00873646     0.01503044
    114      2      H           0.01722354     0.00594897    -0.02899048
    115      1      O           0.00773871     0.08249450    -0.06549708
    116      2      H          -0.04380708    -0.01081080    -0.04065333
    117      2      H          -0.00074636     0.00205782    -0.03959462
    118      1      O          -0.02206581     0.02327826     0.04624159
    119      2      H           0.02631486    -0.01553732     0.03907963
    120      2      H          -0.01314497    -0.01693934     0.01678265
    121      1      O           0.00796760     0.03549461     0.05384596
    122      2      H          -0.00604113    -0.04862724    -0.03647919
    123      2      H          -0.01400228     0.00976436     0.05228620
    124      1      O          -0.02463843     0.03949399     0.07112465
    125      2      H          -0.03647737     0.01142447    -0.02437658
    126      2      H           0.02211056     0.04623466     0.00335080
    127      1      O           0.01928463     0.08859764    -0.05710931
    128      2      H           0.00137464     0.01043457     0.00708736
    129      2      H          -0.03854449    -0.03436523    -0.01965346
    130      1      O           0.01226733     0.02991761    -0.07149145
    131      2      H           0.01274606    -0.03840110     0.02627051
    132      2      H          -0.00703872    -0.01177337    -0.00765120
    133      1      O          -0.03657145     0.05081528     0.00934921
    134      2      H          -0.00190101     0.00836485     0.00274833
    135      2      H          -0.00124637    -0.05724062    -0.04054016
    136      1      O          -0.05137447    -0.06205314     0.01204655
    137      2      H          -0.00070596     0.04760580     0.02846159
    138      2      H           0.02910627    -0.03286550     0.01871499
    139      1      O           0.00620915     0.07284185     0.08475135
    140      2      H          -0.02968696     0.00927325    -0.02362276
    141      2      H          -0.01652320     0.00443381    -0.10274024
    142      1      O          -0.00824944    -0.06574983    -0.01441874
    143      2      H          -0.01964550    -0.00061575    -0.04732241
    144      2      H          -0.01942086     0.02788020    -0.02613091
    145      1      O          -0.00889419     0.06179120     0.10524688
    146      2      H          -0.01212627    -0.03248804    -0.03341431
    147      2      H           0.03169195     0.01668939     0.00008344
    148      1      O          -0.01911971    -0.00985790    -0.01162573
    149      2      H          -0.01497742     0.00964118     0.02553859
    150      2      H           0.02071508     0.04822664     0.03437427
    151      1      O          -0.01008444     0.01521154    -0.10890484
    152      2      H           0.00699701     0.00395360     0.03353201
    153      2      H          -0.02320088     0.03033258     0.03413097
    154      1      O           0.00322624     0.10158107     0.10836241
    155      2      H           0.00739969    -0.02103862    -0.03638473
    156      2      H          -0.02047420    -0.06698981    -0.02914662
    157      1      O          -0.04174464     0.10988550    -0.10906380
    158      2      H           0.02842423    -0.04735398     0.00798635
    159      2      H           0.00775727    -0.02881722    -0.02503268
    160      1      O           0.01854253     0.05324542    -0.04727698
    161      2      H          -0.00847076    -0.01030942     0.03070974
    162      2      H           0.02075801     0.03071733    -0.02736790
    163      1      O          -0.03784861     0.00387149    -0.02728655
    164      2      H           0.00048093    -0.02557435     0.02205996
    165      2      H           0.00895458     0.07238237    -0.10132710
    166      1      O          -0.03980418    -0.05508420     0.05701384
    167      2      H          -0.01468745     0.02915287     0.03022414
    168      2      H           0.01049517    -0.03607613     0.04915799
    169      1      O           0.06939328    -0.02954087    -0.06532647
    170      2      H          -0.05113521     0.04550075    -0.01811359
    171      2      H           0.00542806     0.00559268    -0.01933878
    172      1      O          -0.02750032     0.02350679     0.00290599
    173      2      H          -0.01119068     0.00340424    -0.00946068
    174      2      H           0.01860446    -0.02925274    -0.02821068
    175      1      O           0.00207200    -0.02826476     0.09951650
    176      2      H          -0.00423677     0.01600342    -0.04220524
    177      2      H          -0.00194255     0.06091285     0.00010572
    178      1      O           0.00368118     0.01215160     0.03621878
    179      2      H          -0.03099032     0.01496005     0.03820156
    180      2      H          -0.01612040     0.04423409    -0.07148800
    181      1      O           0.00823927     0.08829269    -0.05192503
    182      2      H           0.02349819    -0.03883379     0.05241896
    183      2      H           0.00216861    -0.04583393    -0.04178215
    184      1      O           0.04397254    -0.02119898    -0.03597166
    185      2      H          -0.04115208    -0.05201943     0.01384651
    186      2      H          -0.03097086     0.05542022    -0.01833427
    187      1      O          -0.00156443     0.00469698     0.04559565
    188      2      H           0.03011993    -0.04348198     0.03572750
    189      2      H          -0.00980888     0.02382733    -0.05105261
    190      1      O           0.00425668    -0.01898563     0.02411188
    191      2      H           0.00572218     0.03760554     0.03883541
    192      2      H           0.02257693    -0.08233396     0.03948126
 SUM OF ATOMIC FORCES          -0.29183711     0.72553565    -0.36877827     0.86462031

 -------------------------------------------------------------------------------
 -                                                                             -
 -                                DBCSR STATISTICS                             -
 -                                                                             -
 -------------------------------------------------------------------------------
 COUNTER                                    TOTAL       BLAS       SMM       ACC
 flops     5 x     5 x   256            797068800       0.0%    100.0%      0.0%
 flops     5 x    13 x   256            985121280       0.0%    100.0%      0.0%
 flops    13 x     5 x   256           1018068480       0.0%    100.0%      0.0%
 flops    13 x    13 x   256           1427712000       0.0%    100.0%      0.0%
 flops inhomo. stacks                           0       0.0%      0.0%      0.0%
 flops total                         4.227971E+09       0.0%    100.0%      0.0%
 flops max/rank                      4.227971E+09       0.0%    100.0%      0.0%
 matmuls inhomo. stacks                         0       0.0%      0.0%      0.0%
 matmuls total                             138963       0.0%    100.0%      0.0%
 number of processed stacks                  2574       0.0%    100.0%      0.0%
 average stack size                                     0.0      54.0       0.0
 marketing flops                    36.609982E+09
 -------------------------------------------------------------------------------
 # multiplications                             33
 max memory usage/rank              25.806848E+09
 # max total images/rank                        1
 # max 3D layers                                1
 # MPI messages exchanged                       0
 MPI messages size (bytes):
  total size                         0.000000E+00
  min size                           0.000000E+00
  max size                           0.000000E+00
  average size                       0.000000E+00
 MPI breakdown and total messages size (bytes):
             size <=      128                   0                        0
       128 < size <=     8192                   0                        0
      8192 < size <=    32768                   0                        0
     32768 < size <=   131072                   0                        0
    131072 < size <=  4194304                   0                        0
   4194304 < size <= 16777216                   0                        0
  16777216 < size                               0                        0
 -------------------------------------------------------------------------------

 MEMORY| Estimated peak process memory [MiB]                               24613

 -------------------------------------------------------------------------------
 -                                                                             -
 -                           R E F E R E N C E S                               -
 -                                                                             -
 -------------------------------------------------------------------------------
 
 CP2K version 7.1, the CP2K developers group (2019).
 CP2K is freely available from https://www.cp2k.org/ .

 Schuett, Ole; Messmer, Peter; Hutter, Juerg; VandeVondele, Joost. 
 Electronic Structure Calculations on Graphics Processing Units, John
 Wiley & Sons, Ltd, 173-190 (2016). 
 GPU-Accelerated Sparse Matrix-Matrix Multiplication for
 Linear Scaling Density Functional Theory.
 https://dx.doi.org/10.1002/9781118670712.ch8

 Borstnik, U; VandeVondele, J; Weber, V; Hutter, J. 
 PARALLEL COMPUTING, 40 (5-6), 47-58 (2014). 
 Sparse matrix multiplication: The distributed block-compressed sparse
 row library.
 https://dx.doi.org/10.1016/j.parco.2014.03.012

 Hutter, J; Iannuzzi, M; Schiffmann, F; VandeVondele, J. 
 WIREs Comput Mol Sci., 4 (1), 15-25 (2014). 
 CP2K: atomistic simulations of condensed matter systems.
 https://dx.doi.org/10.1002/wcms.1159

 Krack, M. 
 THEORETICAL CHEMISTRY ACCOUNTS, 114 (1-3), 145-152 (2005). 
 Pseudopotentials for H to Kr optimized for gradient-corrected
 exchange-correlation functionals.
 https://dx.doi.org/10.1007/s00214-005-0655-y

 VandeVondele, J; Krack, M; Mohamed, F; Parrinello, M; Chassaing, T;
 Hutter, J. COMPUTER PHYSICS COMMUNICATIONS, 167 (2), 103-128 (2005). 
 QUICKSTEP: Fast and accurate density functional calculations using a
 mixed Gaussian and plane waves approach.
 https://dx.doi.org/10.1016/j.cpc.2004.12.014

 Frigo, M; Johnson, SG. 
 PROCEEDINGS OF THE IEEE, 93 (2), 216-231 (2005). 
 The design and implementation of FFTW3.
 https://dx.doi.org/10.1109/JPROC.2004.840301

 Hartwigsen, C; Goedecker, S; Hutter, J. 
 PHYSICAL REVIEW B, 58 (7), 3641-3662 (1998). 
 Relativistic separable dual-space Gaussian pseudopotentials from H to Rn.
 https://dx.doi.org/10.1103/PhysRevB.58.3641

 Lippert, G; Hutter, J; Parrinello, M. 
 MOLECULAR PHYSICS, 92 (3), 477-487 (1997). 
 A hybrid Gaussian and plane wave density functional scheme.
 https://dx.doi.org/10.1080/002689797170220

 Goedecker, S; Teter, M; Hutter, J. 
 PHYSICAL REVIEW B, 54 (3), 1703-1710 (1996). 
 Separable dual-space Gaussian pseudopotentials.
 https://dx.doi.org/10.1103/PhysRevB.54.1703


 -------------------------------------------------------------------------------
 -                                                                             -
 -                                T I M I N G                                  -
 -                                                                             -
 -------------------------------------------------------------------------------
 SUBROUTINE                       CALLS  ASD         SELF TIME        TOTAL TIME
                                MAXIMUM       AVERAGE  MAXIMUM  AVERAGE  MAXIMUM
 CP2K                                 1  1.0    0.760    0.760  842.476  842.476
 qs_forces                            1  2.0    0.000    0.000  830.234  830.234
 qs_energies                          1  3.0    0.000    0.000  825.557  825.557
 scf_env_do_scf                       1  4.0    0.000    0.000  812.741  812.741
 scf_env_do_scf_inner_loop           32  5.0    0.006    0.006  812.740  812.740
 gspace_mixing                       31  6.0    4.813    4.813  323.144  323.144
 broyden_mixing                      31  7.0  287.185  287.185  287.186  287.186
 qs_scf_new_mos                      32  6.0    0.001    0.001  226.084  226.084
 eigensolver                         32  7.0    0.004    0.004  221.503  221.503
 pw_transfer                        428  9.9    0.042    0.042  160.250  160.250
 fft_wrap_pw1pw2                    362 10.9    0.005    0.005  156.095  156.095
 cp_fm_syevd                         32  8.0  151.164  151.164  151.346  151.346
 rebuild_ks_matrix                   33  6.9    0.000    0.000  150.222  150.222
 qs_ks_build_kohn_sham_matrix        33  7.9    0.010    0.010  150.222  150.222
 qs_ks_update_qs_env                 32  6.0    0.000    0.000  145.727  145.727
 fft_wrap_pw1pw2_70                 164 11.2   12.450   12.450  143.135  143.135
 qs_rho_update_rho                   33  6.0    0.000    0.000  121.006  121.006
 calculate_rho_elec                  33  7.0   43.168   43.168  121.006  121.006
 fft3d_s                            363 12.8   77.319   77.319   77.334   77.334
 density_rs2pw                       33  8.0    0.003    0.003   76.734   76.734
 cp_fm_cholesky_restore              96  8.0   70.014   70.014   70.014   70.014
 pw_scatter_s                       196 13.1   49.832   49.832   49.832   49.832
 pw_poisson_solve                    33  8.9   40.913   40.913   45.353   45.353
 sum_up_and_integrate                33  8.9    2.295    2.295   44.358   44.358
 integrate_v_rspace                  33  9.9    2.384    2.384   42.063   42.063
 potential_pw2rs                     33 10.9    0.314    0.314   39.589   39.589
 qs_vxc_create                       33  8.9    0.001    0.001   22.674   22.674
 xc_vxc_pw_create                    33  9.9    5.153    5.153   22.673   22.673
 xc_rho_set_and_dset_create          33 10.9    0.001    0.001   17.520   17.520
 -------------------------------------------------------------------------------

 The number of warnings for this run is : 0
 
 -------------------------------------------------------------------------------
  **** **** ******  **  PROGRAM ENDED AT                 2020-05-21 19:20:05.820
 ***** ** ***  *** **   PROGRAM RAN ON                                   gnode39
 **    ****   ******    PROGRAM RAN BY                               mayank.modi
 ***** **    ** ** **   PROGRAM PROCESS ID                                 29271
  **** **  *******  **  PROGRAM STOPPED IN /home/mayank.modi/ab-initio-thermodyn
                                           amics-of-water/mayank/cp2k_energy_cal
                                           culations
