 DBCSR| CPU Multiplication driver                                           XSMM
 DBCSR| Multrec recursion limit                                              512
 DBCSR| Multiplication stack size                                           1000
 DBCSR| Maximum elements for images                                    UNLIMITED
 DBCSR| Multiplicative factor virtual images                                   1
 DBCSR| Use multiplication densification                                       T
 DBCSR| Multiplication size stacks                                             3


  **** **** ******  **  PROGRAM STARTED AT               2020-05-20 21:18:53.551
 ***** ** ***  *** **   PROGRAM STARTED ON                               gnode39
 **    ****   ******    PROGRAM STARTED BY                           mayank.modi
 ***** **    ** ** **   PROGRAM PROCESS ID                                 18715
  **** **  *******  **  PROGRAM STARTED IN /home/mayank.modi/ab-initio-thermodyn
                                           amics-of-water/mayank/cp2k_energy_cal
                                           culations

 CP2K| version string:                                          CP2K version 7.1
 CP2K| source code revision number:                                  git:e635599
 CP2K| cp2kflags: omp libint fftw3 libxc xsmm spglib                            
 CP2K| is freely available from                            https://www.cp2k.org/
 CP2K| Program compiled at                          Mon Dec 23 19:23:12 CET 2019
 CP2K| Program compiled on                                                pc9404
 CP2K| Program compiled for                                Linux-x86-64-gfortran
 CP2K| Data directory path                                        /opt/cp2k/data
 CP2K| Input file name                                              ./input20.in

 GLOBAL| Force Environment number                                              1
 GLOBAL| Basis set file name                                           BASIS_SET
 GLOBAL| Potential file name                                      GTH_POTENTIALS
 GLOBAL| MM Potential file name                                     MM_POTENTIAL
 GLOBAL| Coordinate file name                                      __STD_INPUT__
 GLOBAL| Method name                                                        CP2K
 GLOBAL| Project name                                                   H2O_bulk
 GLOBAL| Preferred FFT library                                             FFTW3
 GLOBAL| Preferred diagonalization lib.                                       SL
 GLOBAL| Run type                                                   ENERGY_FORCE
 GLOBAL| All-to-all communication in single precision                          F
 GLOBAL| FFTs using library dependent lengths                                  F
 GLOBAL| Global print level                                                  LOW
 GLOBAL| MPI I/O enabled                                                       T
 GLOBAL| Total number of message passing processes                             1
 GLOBAL| Number of threads for this process                                   20
 GLOBAL| This output is from process                                           0
 GLOBAL| CPU model name                Intel(R) Xeon(R) CPU E5-2640 v4 @ 2.40GHz
 GLOBAL| CPUID                                                              1002
 GLOBAL| Compiled for CPUID                                                    0

 MEMORY| system memory details [Kb]
 MEMORY|                        rank 0           min           max       average
 MEMORY| MemTotal            131898148     131898148     131898148     131898148
 MEMORY| MemFree              94724920      94724920      94724920      94724920
 MEMORY| Buffers               3186720       3186720       3186720       3186720
 MEMORY| Cached               28759208      28759208      28759208      28759208
 MEMORY| Slab                  3897620       3897620       3897620       3897620
 MEMORY| SReclaimable          3234392       3234392       3234392       3234392
 MEMORY| MemLikelyFree       129905240     129905240     129905240     129905240


 GENERATE|  Preliminary Number of Bonds generated:                             0
 GENERATE|  Achieved consistency in connectivity generation.

 *******************************************************************************
 *******************************************************************************
 **                                                                           **
 **     #####                         ##              ##                      **
 **    ##   ##            ##          ##              ##                      **
 **   ##     ##                       ##            ######                    **
 **   ##     ##  ##   ##  ##   #####  ##  ##   ####   ##    #####    #####    **
 **   ##     ##  ##   ##  ##  ##      ## ##   ##      ##   ##   ##  ##   ##   **
 **   ##  ## ##  ##   ##  ##  ##      ####     ###    ##   ######   ######    **
 **    ##  ###   ##   ##  ##  ##      ## ##      ##   ##   ##       ##        **
 **     #######   #####   ##   #####  ##  ##  ####    ##    #####   ##        **
 **           ##                                                    ##        **
 **                                                                           **
 **                                                ... make the atoms dance   **
 **                                                                           **
 **            Copyright (C) by CP2K developers group (2000 - 2019)           **
 **                                                                           **
 *******************************************************************************


 TOTAL NUMBERS AND MAXIMUM NUMBERS

  Total number of            - Atomic kinds:                                   2
                             - Atoms:                                        192
                             - Shell sets:                                   384
                             - Shells:                                       704
                             - Primitive Cartesian functions:                960
                             - Cartesian basis functions:                   1536
                             - Spherical basis functions:                   1472

  Maximum angular momentum of- Orbital basis functions:                        2
                             - Local part of the GTH pseudopotential:          2
                             - Non-local part of the GTH pseudopotential:      0


 SCF PARAMETERS         Density guess:                                    ATOMIC
                        --------------------------------------------------------
                        max_scf:                                             300
                        max_scf_history:                                       0
                        max_diis:                                              4
                        --------------------------------------------------------
                        eps_scf:                                        1.00E-07
                        eps_scf_history:                                0.00E+00
                        eps_diis:                                       1.00E-01
                        eps_eigval:                                     1.00E-05
                        --------------------------------------------------------
                        level_shift [a.u.]:                                 0.00
                        --------------------------------------------------------
                        Mixing method:                            BROYDEN_MIXING
                                                charge density mixing in g-space
                        --------------------------------------------------------
                        No outer SCF

 Number of electrons:                                                        512
 Number of occupied orbitals:                                                256
 Number of molecular orbitals:                                               256

 Number of orbital functions:                                               1472
 Number of independent orbital functions:                                   1472

 Extrapolation method: initial_guess


 SCF WAVEFUNCTION OPTIMIZATION

  Step     Update method      Time    Convergence         Total energy    Change
  ------------------------------------------------------------------------------
     1 NoMix/Diag. 0.40E+00   11.2     0.98041131     -1087.5560204477 -1.09E+03
     2 Broy./Diag. 0.40E+00   18.0     0.29631267     -1013.7449752428  7.38E+01
     3 Broy./Diag. 0.40E+00   19.9     0.03073082     -1094.7654691187 -8.10E+01
     4 Broy./Diag. 0.40E+00   20.1     0.02963262     -1094.4785880685  2.87E-01
     5 Broy./Diag. 0.40E+00   20.2     0.00265432     -1095.3841710407 -9.06E-01
     6 Broy./Diag. 0.40E+00   21.4     0.00441916     -1095.3930436935 -8.87E-03
     7 Broy./Diag. 0.40E+00   23.4     0.00235964     -1095.5349927458 -1.42E-01
     8 Broy./Diag. 0.40E+00   23.1     0.00440200     -1095.6402355428 -1.05E-01
     9 Broy./Diag. 0.40E+00   24.7     0.00409837     -1095.7307088022 -9.05E-02
    10 Broy./Diag. 0.40E+00   25.8     0.00250109     -1095.7470520600 -1.63E-02
    11 Broy./Diag. 0.40E+00   25.4     0.00155307     -1095.7271317955  1.99E-02
    12 Broy./Diag. 0.40E+00   26.3     0.00080176     -1095.7317201680 -4.59E-03
    13 Broy./Diag. 0.40E+00   25.9     0.00062673     -1095.7509006382 -1.92E-02
    14 Broy./Diag. 0.40E+00   26.9     0.00025398     -1095.7553443373 -4.44E-03
    15 Broy./Diag. 0.40E+00   25.5     0.00025534     -1095.7473058080  8.04E-03
    16 Broy./Diag. 0.40E+00   25.7     0.00012029     -1095.7466560901  6.50E-04
    17 Broy./Diag. 0.40E+00   24.9     0.00007642     -1095.7478718219 -1.22E-03
    18 Broy./Diag. 0.40E+00   26.2     0.00004143     -1095.7486654406 -7.94E-04
    19 Broy./Diag. 0.40E+00   25.9     0.00002015     -1095.7488548973 -1.89E-04
    20 Broy./Diag. 0.40E+00   26.2     0.00002154     -1095.7481226946  7.32E-04
    21 Broy./Diag. 0.40E+00   26.2     0.00001192     -1095.7481355861 -1.29E-05
    22 Broy./Diag. 0.40E+00   25.5     0.00000669     -1095.7482799733 -1.44E-04
    23 Broy./Diag. 0.40E+00   26.0     0.00000940     -1095.7482520909  2.79E-05
    24 Broy./Diag. 0.40E+00   25.1     0.00000318     -1095.7482289817  2.31E-05
    25 Broy./Diag. 0.40E+00   26.2     0.00000361     -1095.7481605137  6.85E-05
    26 Broy./Diag. 0.40E+00   26.1     0.00000122     -1095.7482106913 -5.02E-05
    27 Broy./Diag. 0.40E+00   25.7     0.00000144     -1095.7482373566 -2.67E-05
    28 Broy./Diag. 0.40E+00   26.9     0.00000105     -1095.7482354464  1.91E-06
    29 Broy./Diag. 0.40E+00   25.7     0.00000057     -1095.7482252555  1.02E-05
    30 Broy./Diag. 0.40E+00   25.7     0.00000040     -1095.7482196116  5.64E-06
    31 Broy./Diag. 0.40E+00   26.6     0.00000019     -1095.7482200884 -4.77E-07
    32 Broy./Diag. 0.40E+00   25.9     0.00000020     -1095.7482182350  1.85E-06
    33 Broy./Diag. 0.40E+00   27.3     0.00000019     -1095.7482216225 -3.39E-06
    34 Broy./Diag. 0.40E+00   26.0     0.00000015     -1095.7482248154 -3.19E-06
    35 Broy./Diag. 0.40E+00   27.0     0.00000014     -1095.7482259073 -1.09E-06
    36 Broy./Diag. 0.40E+00   24.9     0.00000007     -1095.7482247138  1.19E-06

  *** SCF run converged in    36 steps ***


  Electronic density on regular grids:       -512.0006385807       -0.0006385807
  Core density on regular grids:              511.9999336580       -0.0000663420
  Total charge density on r-space grids:       -0.0007049227
  Total charge density g-space grids:          -0.0007049227

  Overlap energy of the core charge distribution:               0.00000473147571
  Self energy of the core charge distribution:              -2838.21791979120962
  Core Hamiltonian energy:                                    821.56373851220678
  Hartree energy:                                            1185.70794246996070
  Exchange-correlation energy:                               -264.80199063626725

  Total energy:                                             -1095.74822471383368

 ENERGY| Total FORCE_EVAL ( QS ) energy (a.u.):            -1095.748226266207212


 ATOMIC FORCES in [a.u.]

 # Atom   Kind   Element          X              Y              Z
      1      1      O          -0.02903907     0.06750703     0.04667367
      2      2      H           0.01222137     0.00923691     0.00866539
      3      2      H           0.03422462    -0.03006344     0.03441731
      4      1      O          -0.00843472    -0.00463289     0.08769436
      5      2      H          -0.02879774     0.03351277    -0.01343313
      6      2      H          -0.00029745    -0.03773401     0.02554198
      7      1      O          -0.09001298     0.10838254     0.04597160
      8      2      H           0.11957809    -0.01469865    -0.00865680
      9      2      H          -0.00474653     0.01424119    -0.00633196
     10      1      O           0.03112083     0.07270401    -0.02916750
     11      2      H           0.00215170     0.01979321     0.02661687
     12      2      H           0.00786031     0.01180134    -0.01687959
     13      1      O          -0.02842588    -0.06786112     0.09889128
     14      2      H           0.01581433     0.02739024    -0.01458222
     15      2      H          -0.00534620     0.03237582     0.00909156
     16      1      O          -0.00831048    -0.01618997     0.13669664
     17      2      H           0.00485930     0.02278743    -0.02275528
     18      2      H          -0.00856142    -0.02852852    -0.00725402
     19      1      O           0.02142239     0.06323045    -0.01348459
     20      2      H          -0.01993841     0.02004204     0.00407184
     21      2      H           0.01309152     0.00066867    -0.00242999
     22      1      O          -0.04805999    -0.11314834    -0.12856743
     23      2      H          -0.00968790     0.08637356    -0.01982260
     24      2      H           0.00857124    -0.04779765    -0.00029889
     25      1      O           0.03598545    -0.06693746    -0.07464419
     26      2      H          -0.00807161    -0.02954058     0.00074273
     27      2      H           0.00357063     0.00383595     0.05887782
     28      1      O          -0.01155999    -0.08296495     0.00676193
     29      2      H          -0.02860811     0.01676506     0.02398224
     30      2      H           0.00608547     0.03070161    -0.03856265
     31      1      O          -0.00245797    -0.06624431    -0.05444313
     32      2      H          -0.00927566    -0.05224141     0.05050258
     33      2      H           0.00468283     0.01688722     0.01661108
     34      1      O           0.02138627     0.04785010    -0.01766190
     35      2      H          -0.01158395     0.00851135     0.02693783
     36      2      H          -0.01335388    -0.03420728     0.03037717
     37      1      O           0.05397277    -0.08012917    -0.11029227
     38      2      H          -0.01024079     0.02734623    -0.05010448
     39      2      H          -0.05993351    -0.00391575     0.01459264
     40      1      O          -0.01278396    -0.07987245     0.07303135
     41      2      H           0.00447831     0.02854105    -0.00205746
     42      2      H           0.02437935     0.02768345     0.01116039
     43      1      O          -0.03579656    -0.06355817     0.06767936
     44      2      H           0.08782932     0.00682797    -0.01842481
     45      2      H          -0.02096686     0.03165556     0.00323260
     46      1      O          -0.01073870    -0.10286772     0.09343051
     47      2      H          -0.05239398     0.03899481    -0.01706354
     48      2      H           0.05164731     0.00959471    -0.04818624
     49      1      O          -0.00549061     0.03231545    -0.03098082
     50      2      H          -0.00869779     0.02010997     0.03337912
     51      2      H          -0.01979765     0.02053471    -0.01959130
     52      1      O          -0.01639822     0.02465591     0.00026033
     53      2      H          -0.01016815    -0.01436726    -0.03781201
     54      2      H          -0.00231581     0.02878150     0.04045429
     55      1      O           0.02445097    -0.08459461    -0.10816095
     56      2      H           0.01591811     0.04971889    -0.01168553
     57      2      H          -0.04786754     0.00005271     0.04096395
     58      1      O          -0.01274980    -0.06572953     0.02218819
     59      2      H          -0.00757691    -0.01908908     0.02841113
     60      2      H          -0.00499009    -0.04008428    -0.04789886
     61      1      O          -0.00223971     0.09922107     0.03487609
     62      2      H          -0.00502304     0.02277423     0.03714687
     63      2      H          -0.01502461    -0.04649527     0.06612937
     64      1      O           0.01402654     0.03438614     0.15946726
     65      2      H           0.03059525    -0.01269612     0.00453545
     66      2      H          -0.04237984     0.03794391    -0.01936256
     67      1      O          -0.08248909    -0.02319385     0.04360387
     68      2      H           0.01291378    -0.01923247     0.00742264
     69      2      H           0.04845264     0.03613570     0.06433443
     70      1      O           0.04371802    -0.01248072     0.03437793
     71      2      H          -0.03765772     0.02284181    -0.03804496
     72      2      H           0.02165913     0.00015805     0.03769099
     73      1      O          -0.00287383     0.01771260     0.14318722
     74      2      H          -0.00796558    -0.06288161    -0.01940143
     75      2      H           0.02275428    -0.01564330    -0.02924349
     76      1      O          -0.00067717     0.06697090    -0.02350539
     77      2      H           0.00408811    -0.08768121    -0.00507827
     78      2      H           0.02090382     0.02592688    -0.10040752
     79      1      O          -0.00013809    -0.07658681    -0.02491121
     80      2      H          -0.02718866     0.02942537    -0.08184799
     81      2      H           0.04462671     0.01270603    -0.04534551
     82      1      O          -0.01909572    -0.03698611    -0.02067632
     83      2      H          -0.01125017    -0.03464694    -0.02499896
     84      2      H           0.03931234    -0.01491453    -0.02915424
     85      1      O          -0.03118503     0.07547946     0.03146731
     86      2      H           0.01675171     0.02801770     0.01942240
     87      2      H           0.00363357     0.01460040    -0.00128018
     88      1      O          -0.04537436     0.06546580     0.05781318
     89      2      H           0.02126837    -0.03354649    -0.02810012
     90      2      H          -0.00752566    -0.02157913     0.01004019
     91      1      O           0.05230765    -0.02781472    -0.11744473
     92      2      H          -0.03163259     0.06324146    -0.00707786
     93      2      H          -0.01719903    -0.06207378    -0.03093598
     94      1      O           0.02540434     0.02996658     0.08497584
     95      2      H           0.01902134    -0.03682557     0.04997083
     96      2      H          -0.02589162     0.02215249    -0.01423787
     97      1      O           0.00489051    -0.06620439    -0.09448415
     98      2      H          -0.00451137     0.03955078     0.03071657
     99      2      H          -0.00672402    -0.01901403     0.01060244
    100      1      O           0.01059756     0.01882757    -0.13467539
    101      2      H           0.02459843    -0.00606732     0.02405708
    102      2      H          -0.03158810     0.01647203     0.05442919
    103      1      O          -0.00292201    -0.04608299    -0.09628038
    104      2      H           0.02283466    -0.02105205    -0.03955013
    105      2      H           0.01123478    -0.03231662     0.01912189
    106      1      O           0.03164530    -0.00162138     0.09645701
    107      2      H          -0.01061699     0.02469278     0.02716435
    108      2      H          -0.02180663     0.00448728     0.01567161
    109      1      O          -0.01367215     0.10552968    -0.11195001
    110      2      H           0.00355757     0.02898533     0.02860226
    111      2      H          -0.00861823    -0.00789419     0.00017695
    112      1      O          -0.04949168     0.01677509     0.05660808
    113      2      H           0.00096451    -0.03186789     0.01417432
    114      2      H           0.04649069    -0.03825282    -0.02728782
    115      1      O           0.04847742    -0.07445915    -0.04251038
    116      2      H          -0.01893055     0.01096051    -0.01168624
    117      2      H           0.00233673     0.02150804     0.00354798
    118      1      O           0.00401638    -0.04655018    -0.02365280
    119      2      H          -0.00434790     0.01404957    -0.01203893
    120      2      H          -0.00137449     0.00538323    -0.04547415
    121      1      O          -0.01247660     0.00005318     0.08590898
    122      2      H           0.02018280    -0.05048218     0.01420574
    123      2      H          -0.03441626    -0.02403926    -0.01723059
    124      1      O           0.00086086    -0.01127209    -0.05475337
    125      2      H          -0.03395415     0.03922675    -0.00910310
    126      2      H           0.02178264    -0.02382463     0.01460081
    127      1      O          -0.01144025    -0.04433931    -0.10846566
    128      2      H           0.01852961     0.01125786     0.03152865
    129      2      H          -0.01217128    -0.01814005    -0.01186250
    130      1      O          -0.00482797     0.01511552    -0.03084605
    131      2      H          -0.01260174     0.02091370    -0.02675375
    132      2      H           0.00502901     0.00811667     0.01157424
    133      1      O          -0.02849813     0.06237503     0.02781124
    134      2      H           0.03350516    -0.01768514     0.00868590
    135      2      H          -0.01692091     0.00304434     0.02096404
    136      1      O          -0.00621752     0.01823610     0.04775098
    137      2      H          -0.01904817    -0.04200265    -0.02234932
    138      2      H           0.01185363     0.02543149     0.01951122
    139      1      O           0.00099061    -0.07311052     0.11152316
    140      2      H          -0.01422911    -0.00538920     0.04348102
    141      2      H          -0.02125272    -0.03473002    -0.01002557
    142      1      O          -0.07556550    -0.07438260    -0.09662165
    143      2      H           0.05079677     0.01638342    -0.03753841
    144      2      H           0.01041188    -0.01527797    -0.01500549
    145      1      O          -0.02819941    -0.07228421     0.05728734
    146      2      H           0.01665333    -0.00387745    -0.03580927
    147      2      H          -0.01353882     0.02369113     0.03230550
    148      1      O           0.01606440    -0.02008291    -0.13896299
    149      2      H          -0.02688269     0.01178831     0.08056830
    150      2      H           0.00253183    -0.04693955    -0.02074355
    151      1      O           0.01455977     0.05263914     0.08871744
    152      2      H          -0.02084830    -0.00120879    -0.09457413
    153      2      H          -0.00382407    -0.01872982     0.03127608
    154      1      O          -0.01303312     0.04657228     0.08812881
    155      2      H           0.02792352     0.02707389    -0.01060957
    156      2      H          -0.04349249     0.02603545    -0.04069083
    157      1      O          -0.09537991     0.08647568     0.01554989
    158      2      H           0.09035974     0.00589092     0.05712310
    159      2      H           0.00972740     0.01552208     0.00249365
    160      1      O          -0.00317762    -0.08437884     0.10880050
    161      2      H           0.00627754     0.01370309    -0.04659117
    162      2      H          -0.02371976     0.05680891    -0.00404477
    163      1      O          -0.03325722    -0.03015551     0.08813915
    164      2      H           0.04649892    -0.01057974     0.02771053
    165      2      H           0.01407750     0.02067233    -0.00033515
    166      1      O          -0.02273000    -0.05012452    -0.09518632
    167      2      H           0.00139563    -0.01636268    -0.01704665
    168      2      H           0.01567747    -0.05351668    -0.00681807
    169      1      O           0.04499060    -0.05559017    -0.03477481
    170      2      H          -0.04446450     0.02658779    -0.03877890
    171      2      H           0.02955452     0.01653177    -0.01391070
    172      1      O          -0.08709635     0.01441697     0.02315132
    173      2      H           0.02806267    -0.04341154     0.02762932
    174      2      H           0.05214125     0.06567653    -0.08613465
    175      1      O          -0.00635280    -0.00028522     0.08805564
    176      2      H          -0.03445247     0.05483999    -0.04153738
    177      2      H           0.01370250    -0.02524838     0.01832400
    178      1      O          -0.04467633     0.01300078     0.15544363
    179      2      H           0.00346420     0.01522058     0.02325907
    180      2      H           0.00560175     0.06234015    -0.08052547
    181      1      O          -0.01989041     0.05076071    -0.09915801
    182      2      H          -0.00686774    -0.01427020    -0.01808649
    183      2      H          -0.00027886    -0.03143559    -0.00593345
    184      1      O          -0.01885952     0.00837625    -0.06705288
    185      2      H           0.04104134    -0.02227192     0.00306579
    186      2      H          -0.06238552    -0.04828010    -0.04130599
    187      1      O           0.03268122     0.07324785     0.15287029
    188      2      H          -0.02937242    -0.02223855    -0.08543627
    189      2      H           0.02328062    -0.02207655     0.02152886
    190      1      O          -0.00268947     0.04640783    -0.14970994
    191      2      H          -0.01492426    -0.04909959    -0.02314171
    192      2      H           0.01149676    -0.02600106    -0.00589861
 SUM OF ATOMIC FORCES          -0.32481483    -0.33859115     0.04944328     0.47179792

 -------------------------------------------------------------------------------
 -                                                                             -
 -                                DBCSR STATISTICS                             -
 -                                                                             -
 -------------------------------------------------------------------------------
 COUNTER                                    TOTAL       BLAS       SMM       ACC
 flops     5 x     5 x   256           1039078400       0.0%    100.0%      0.0%
 flops     5 x    13 x   256           1318786560       0.0%    100.0%      0.0%
 flops    13 x     5 x   256           1322480640       0.0%    100.0%      0.0%
 flops    13 x    13 x   256           1802464768       0.0%    100.0%      0.0%
 flops inhomo. stacks                           0       0.0%      0.0%      0.0%
 flops total                         5.482810E+09       0.0%    100.0%      0.0%
 flops max/rank                      5.482810E+09       0.0%    100.0%      0.0%
 matmuls inhomo. stacks                         0       0.0%      0.0%      0.0%
 matmuls total                             181374       0.0%    100.0%      0.0%
 number of processed stacks                  2886       0.0%    100.0%      0.0%
 average stack size                                     0.0      62.8       0.0
 marketing flops                    41.047556E+09
 -------------------------------------------------------------------------------
 # multiplications                             37
 max memory usage/rank              25.809396E+09
 # max total images/rank                        1
 # max 3D layers                                1
 # MPI messages exchanged                       0
 MPI messages size (bytes):
  total size                         0.000000E+00
  min size                           0.000000E+00
  max size                           0.000000E+00
  average size                       0.000000E+00
 MPI breakdown and total messages size (bytes):
             size <=      128                   0                        0
       128 < size <=     8192                   0                        0
      8192 < size <=    32768                   0                        0
     32768 < size <=   131072                   0                        0
    131072 < size <=  4194304                   0                        0
   4194304 < size <= 16777216                   0                        0
  16777216 < size                               0                        0
 -------------------------------------------------------------------------------

 MEMORY| Estimated peak process memory [MiB]                               24616

 -------------------------------------------------------------------------------
 -                                                                             -
 -                           R E F E R E N C E S                               -
 -                                                                             -
 -------------------------------------------------------------------------------
 
 CP2K version 7.1, the CP2K developers group (2019).
 CP2K is freely available from https://www.cp2k.org/ .

 Schuett, Ole; Messmer, Peter; Hutter, Juerg; VandeVondele, Joost. 
 Electronic Structure Calculations on Graphics Processing Units, John
 Wiley & Sons, Ltd, 173-190 (2016). 
 GPU-Accelerated Sparse Matrix-Matrix Multiplication for
 Linear Scaling Density Functional Theory.
 https://dx.doi.org/10.1002/9781118670712.ch8

 Borstnik, U; VandeVondele, J; Weber, V; Hutter, J. 
 PARALLEL COMPUTING, 40 (5-6), 47-58 (2014). 
 Sparse matrix multiplication: The distributed block-compressed sparse
 row library.
 https://dx.doi.org/10.1016/j.parco.2014.03.012

 Hutter, J; Iannuzzi, M; Schiffmann, F; VandeVondele, J. 
 WIREs Comput Mol Sci., 4 (1), 15-25 (2014). 
 CP2K: atomistic simulations of condensed matter systems.
 https://dx.doi.org/10.1002/wcms.1159

 Krack, M. 
 THEORETICAL CHEMISTRY ACCOUNTS, 114 (1-3), 145-152 (2005). 
 Pseudopotentials for H to Kr optimized for gradient-corrected
 exchange-correlation functionals.
 https://dx.doi.org/10.1007/s00214-005-0655-y

 VandeVondele, J; Krack, M; Mohamed, F; Parrinello, M; Chassaing, T;
 Hutter, J. COMPUTER PHYSICS COMMUNICATIONS, 167 (2), 103-128 (2005). 
 QUICKSTEP: Fast and accurate density functional calculations using a
 mixed Gaussian and plane waves approach.
 https://dx.doi.org/10.1016/j.cpc.2004.12.014

 Frigo, M; Johnson, SG. 
 PROCEEDINGS OF THE IEEE, 93 (2), 216-231 (2005). 
 The design and implementation of FFTW3.
 https://dx.doi.org/10.1109/JPROC.2004.840301

 Hartwigsen, C; Goedecker, S; Hutter, J. 
 PHYSICAL REVIEW B, 58 (7), 3641-3662 (1998). 
 Relativistic separable dual-space Gaussian pseudopotentials from H to Rn.
 https://dx.doi.org/10.1103/PhysRevB.58.3641

 Lippert, G; Hutter, J; Parrinello, M. 
 MOLECULAR PHYSICS, 92 (3), 477-487 (1997). 
 A hybrid Gaussian and plane wave density functional scheme.
 https://dx.doi.org/10.1080/002689797170220

 Goedecker, S; Teter, M; Hutter, J. 
 PHYSICAL REVIEW B, 54 (3), 1703-1710 (1996). 
 Separable dual-space Gaussian pseudopotentials.
 https://dx.doi.org/10.1103/PhysRevB.54.1703


 -------------------------------------------------------------------------------
 -                                                                             -
 -                                T I M I N G                                  -
 -                                                                             -
 -------------------------------------------------------------------------------
 SUBROUTINE                       CALLS  ASD         SELF TIME        TOTAL TIME
                                MAXIMUM       AVERAGE  MAXIMUM  AVERAGE  MAXIMUM
 CP2K                                 1  1.0    0.617    0.617  915.587  915.587
 qs_forces                            1  2.0    0.000    0.000  904.644  904.644
 qs_energies                          1  3.0    0.000    0.000  899.827  899.827
 scf_env_do_scf                       1  4.0    0.000    0.000  887.259  887.259
 scf_env_do_scf_inner_loop           36  5.0    0.006    0.006  887.258  887.258
 gspace_mixing                       35  6.0    4.890    4.890  333.692  333.692
 broyden_mixing                      35  7.0  297.474  297.474  297.474  297.474
 qs_scf_new_mos                      36  6.0    0.001    0.001  248.352  248.352
 eigensolver                         36  7.0    0.004    0.004  230.171  230.171
 pw_transfer                        480  9.9    0.056    0.056  184.297  184.297
 fft_wrap_pw1pw2                    406 10.9    0.008    0.008  180.490  180.490
 rebuild_ks_matrix                   37  6.9    0.000    0.000  173.900  173.900
 qs_ks_build_kohn_sham_matrix        37  7.9    0.017    0.017  173.900  173.900
 qs_ks_update_qs_env                 36  6.0    0.001    0.001  169.607  169.607
 fft_wrap_pw1pw2_70                 184 11.2   11.637   11.637  163.391  163.391
 cp_fm_syevd                         36  8.0  155.307  155.307  155.463  155.463
 qs_rho_update_rho                   37  6.0    0.000    0.000  138.639  138.639
 calculate_rho_elec                  37  7.0   48.669   48.669  138.638  138.638
 fft3d_s                            407 12.9   95.299   95.299   95.308   95.308
 density_rs2pw                       37  8.0    0.003    0.003   88.455   88.455
 cp_fm_cholesky_restore             108  8.0   74.568   74.568   74.568   74.568
 sum_up_and_integrate                37  8.9    2.408    2.408   63.146   63.146
 integrate_v_rspace                  37  9.9    5.817    5.817   60.738   60.738
 pw_scatter_s                       220 13.1   51.114   51.114   51.114   51.114
 potential_pw2rs                     37 10.9    0.299    0.299   47.969   47.969
 pw_poisson_solve                    37  8.9   40.874   40.874   44.923   44.923
 qs_vxc_create                       37  8.9    0.001    0.001   25.492   25.492
 xc_vxc_pw_create                    37  9.9    5.490    5.490   25.491   25.491
 pw_gather_s                        186 12.6   20.382   20.382   20.382   20.382
 xc_rho_set_and_dset_create          37 10.9    0.002    0.002   20.001   20.001
 -------------------------------------------------------------------------------

 The number of warnings for this run is : 0
 
 -------------------------------------------------------------------------------
  **** **** ******  **  PROGRAM ENDED AT                 2020-05-20 21:34:09.305
 ***** ** ***  *** **   PROGRAM RAN ON                                   gnode39
 **    ****   ******    PROGRAM RAN BY                               mayank.modi
 ***** **    ** ** **   PROGRAM PROCESS ID                                 18715
  **** **  *******  **  PROGRAM STOPPED IN /home/mayank.modi/ab-initio-thermodyn
                                           amics-of-water/mayank/cp2k_energy_cal
                                           culations
