 DBCSR| CPU Multiplication driver                                           XSMM
 DBCSR| Multrec recursion limit                                              512
 DBCSR| Multiplication stack size                                           1000
 DBCSR| Maximum elements for images                                    UNLIMITED
 DBCSR| Multiplicative factor virtual images                                   1
 DBCSR| Use multiplication densification                                       T
 DBCSR| Multiplication size stacks                                             3


  **** **** ******  **  PROGRAM STARTED AT               2020-05-21 07:51:51.012
 ***** ** ***  *** **   PROGRAM STARTED ON                               gnode39
 **    ****   ******    PROGRAM STARTED BY                           mayank.modi
 ***** **    ** ** **   PROGRAM PROCESS ID                                 13600
  **** **  *******  **  PROGRAM STARTED IN /home/mayank.modi/ab-initio-thermodyn
                                           amics-of-water/mayank/cp2k_energy_cal
                                           culations

 CP2K| version string:                                          CP2K version 7.1
 CP2K| source code revision number:                                  git:e635599
 CP2K| cp2kflags: omp libint fftw3 libxc xsmm spglib                            
 CP2K| is freely available from                            https://www.cp2k.org/
 CP2K| Program compiled at                          Mon Dec 23 19:23:12 CET 2019
 CP2K| Program compiled on                                                pc9404
 CP2K| Program compiled for                                Linux-x86-64-gfortran
 CP2K| Data directory path                                        /opt/cp2k/data
 CP2K| Input file name                                              ./input68.in

 GLOBAL| Force Environment number                                              1
 GLOBAL| Basis set file name                                           BASIS_SET
 GLOBAL| Potential file name                                      GTH_POTENTIALS
 GLOBAL| MM Potential file name                                     MM_POTENTIAL
 GLOBAL| Coordinate file name                                      __STD_INPUT__
 GLOBAL| Method name                                                        CP2K
 GLOBAL| Project name                                                   H2O_bulk
 GLOBAL| Preferred FFT library                                             FFTW3
 GLOBAL| Preferred diagonalization lib.                                       SL
 GLOBAL| Run type                                                   ENERGY_FORCE
 GLOBAL| All-to-all communication in single precision                          F
 GLOBAL| FFTs using library dependent lengths                                  F
 GLOBAL| Global print level                                                  LOW
 GLOBAL| MPI I/O enabled                                                       T
 GLOBAL| Total number of message passing processes                             1
 GLOBAL| Number of threads for this process                                   20
 GLOBAL| This output is from process                                           0
 GLOBAL| CPU model name                Intel(R) Xeon(R) CPU E5-2640 v4 @ 2.40GHz
 GLOBAL| CPUID                                                              1002
 GLOBAL| Compiled for CPUID                                                    0

 MEMORY| system memory details [Kb]
 MEMORY|                        rank 0           min           max       average
 MEMORY| MemTotal            131898148     131898148     131898148     131898148
 MEMORY| MemFree              88690680      88690680      88690680      88690680
 MEMORY| Buffers               3187120       3187120       3187120       3187120
 MEMORY| Cached               34124632      34124632      34124632      34124632
 MEMORY| Slab                  3928540       3928540       3928540       3928540
 MEMORY| SReclaimable          3268444       3268444       3268444       3268444
 MEMORY| MemLikelyFree       129270876     129270876     129270876     129270876


 GENERATE|  Preliminary Number of Bonds generated:                             0
 GENERATE|  Achieved consistency in connectivity generation.

 *******************************************************************************
 *******************************************************************************
 **                                                                           **
 **     #####                         ##              ##                      **
 **    ##   ##            ##          ##              ##                      **
 **   ##     ##                       ##            ######                    **
 **   ##     ##  ##   ##  ##   #####  ##  ##   ####   ##    #####    #####    **
 **   ##     ##  ##   ##  ##  ##      ## ##   ##      ##   ##   ##  ##   ##   **
 **   ##  ## ##  ##   ##  ##  ##      ####     ###    ##   ######   ######    **
 **    ##  ###   ##   ##  ##  ##      ## ##      ##   ##   ##       ##        **
 **     #######   #####   ##   #####  ##  ##  ####    ##    #####   ##        **
 **           ##                                                    ##        **
 **                                                                           **
 **                                                ... make the atoms dance   **
 **                                                                           **
 **            Copyright (C) by CP2K developers group (2000 - 2019)           **
 **                                                                           **
 *******************************************************************************


 TOTAL NUMBERS AND MAXIMUM NUMBERS

  Total number of            - Atomic kinds:                                   2
                             - Atoms:                                        192
                             - Shell sets:                                   384
                             - Shells:                                       704
                             - Primitive Cartesian functions:                960
                             - Cartesian basis functions:                   1536
                             - Spherical basis functions:                   1472

  Maximum angular momentum of- Orbital basis functions:                        2
                             - Local part of the GTH pseudopotential:          2
                             - Non-local part of the GTH pseudopotential:      0


 SCF PARAMETERS         Density guess:                                    ATOMIC
                        --------------------------------------------------------
                        max_scf:                                             300
                        max_scf_history:                                       0
                        max_diis:                                              4
                        --------------------------------------------------------
                        eps_scf:                                        1.00E-07
                        eps_scf_history:                                0.00E+00
                        eps_diis:                                       1.00E-01
                        eps_eigval:                                     1.00E-05
                        --------------------------------------------------------
                        level_shift [a.u.]:                                 0.00
                        --------------------------------------------------------
                        Mixing method:                            BROYDEN_MIXING
                                                charge density mixing in g-space
                        --------------------------------------------------------
                        No outer SCF

 Number of electrons:                                                        512
 Number of occupied orbitals:                                                256
 Number of molecular orbitals:                                               256

 Number of orbital functions:                                               1472
 Number of independent orbital functions:                                   1472

 Extrapolation method: initial_guess


 SCF WAVEFUNCTION OPTIMIZATION

  Step     Update method      Time    Convergence         Total energy    Change
  ------------------------------------------------------------------------------
     1 NoMix/Diag. 0.40E+00   11.0     0.98214775     -1087.3300371929 -1.09E+03
     2 Broy./Diag. 0.40E+00   16.5     0.29166701     -1014.2096915622  7.31E+01
     3 Broy./Diag. 0.40E+00   17.5     0.02414223     -1095.1276992454 -8.09E+01
     4 Broy./Diag. 0.40E+00   17.7     0.02745613     -1094.4542877913  6.73E-01
     5 Broy./Diag. 0.40E+00   19.4     0.00256423     -1095.3390206159 -8.85E-01
     6 Broy./Diag. 0.40E+00   20.0     0.00402463     -1095.3621060769 -2.31E-02
     7 Broy./Diag. 0.40E+00   20.7     0.00275219     -1095.5071017203 -1.45E-01
     8 Broy./Diag. 0.40E+00   22.4     0.00378107     -1095.6237608576 -1.17E-01
     9 Broy./Diag. 0.40E+00   22.8     0.00344140     -1095.7084652300 -8.47E-02
    10 Broy./Diag. 0.40E+00   24.2     0.00196048     -1095.7362900505 -2.78E-02
    11 Broy./Diag. 0.40E+00   26.5     0.00139723     -1095.7106817967  2.56E-02
    12 Broy./Diag. 0.40E+00   25.8     0.00058153     -1095.7170377438 -6.36E-03
    13 Broy./Diag. 0.40E+00   24.3     0.00045277     -1095.7373231436 -2.03E-02
    14 Broy./Diag. 0.40E+00   24.6     0.00024059     -1095.7414134461 -4.09E-03
    15 Broy./Diag. 0.40E+00   25.2     0.00029565     -1095.7345525988  6.86E-03
    16 Broy./Diag. 0.40E+00   25.3     0.00015381     -1095.7352036944 -6.51E-04
    17 Broy./Diag. 0.40E+00   24.5     0.00007782     -1095.7364002866 -1.20E-03
    18 Broy./Diag. 0.40E+00   25.1     0.00003375     -1095.7364212660 -2.10E-05
    19 Broy./Diag. 0.40E+00   24.7     0.00001535     -1095.7363354133  8.59E-05
    20 Broy./Diag. 0.40E+00   24.5     0.00001442     -1095.7357814488  5.54E-04
    21 Broy./Diag. 0.40E+00   25.7     0.00000955     -1095.7359041040 -1.23E-04
    22 Broy./Diag. 0.40E+00   24.9     0.00000731     -1095.7360570253 -1.53E-04
    23 Broy./Diag. 0.40E+00   25.6     0.00000801     -1095.7360545866  2.44E-06
    24 Broy./Diag. 0.40E+00   24.7     0.00000161     -1095.7360209251  3.37E-05
    25 Broy./Diag. 0.40E+00   24.7     0.00000286     -1095.7359730976  4.78E-05
    26 Broy./Diag. 0.40E+00   26.3     0.00000137     -1095.7359926780 -1.96E-05
    27 Broy./Diag. 0.40E+00   26.1     0.00000086     -1095.7360075244 -1.48E-05
    28 Broy./Diag. 0.40E+00   24.7     0.00000082     -1095.7360149090 -7.38E-06
    29 Broy./Diag. 0.40E+00   25.3     0.00000031     -1095.7360093777  5.53E-06
    30 Broy./Diag. 0.40E+00   24.9     0.00000026     -1095.7360044942  4.88E-06
    31 Broy./Diag. 0.40E+00   24.2     0.00000017     -1095.7360040006  4.94E-07
    32 Broy./Diag. 0.40E+00   26.0     0.00000010     -1095.7360045323 -5.32E-07

  *** SCF run converged in    32 steps ***


  Electronic density on regular grids:       -511.9999136619        0.0000863381
  Core density on regular grids:              511.9995848647       -0.0004151353
  Total charge density on r-space grids:       -0.0003287972
  Total charge density g-space grids:          -0.0003287972

  Overlap energy of the core charge distribution:               0.00000400419207
  Self energy of the core charge distribution:              -2838.21791979120962
  Core Hamiltonian energy:                                    820.58529672859993
  Hartree energy:                                            1186.42359822942399
  Exchange-correlation energy:                               -264.52698370327795

  Total energy:                                             -1095.73600453227164

 ENERGY| Total FORCE_EVAL ( QS ) energy (a.u.):            -1095.736006785456311


 ATOMIC FORCES in [a.u.]

 # Atom   Kind   Element          X              Y              Z
      1      1      O          -0.02276476    -0.07896778    -0.08537441
      2      2      H           0.00067695    -0.01757075    -0.03379045
      3      2      H           0.00396935     0.02332662     0.04758026
      4      1      O           0.07912816     0.02470915     0.13503509
      5      2      H          -0.05471153     0.01118106    -0.05140291
      6      2      H          -0.00929834     0.01346115    -0.00105950
      7      1      O           0.03461646     0.02342698    -0.05883050
      8      2      H           0.00772971    -0.02549933    -0.00201116
      9      2      H          -0.00015851     0.02833260    -0.04210018
     10      1      O          -0.05634052     0.07402770    -0.02112620
     11      2      H           0.03576033    -0.01411978     0.02155950
     12      2      H           0.03553249    -0.05537812    -0.02220149
     13      1      O           0.02497520    -0.02887609    -0.06045371
     14      2      H          -0.01596640     0.01457678    -0.03593333
     15      2      H           0.02808447    -0.04097587     0.00441825
     16      1      O           0.03602224     0.05714775    -0.18265583
     17      2      H           0.01374796    -0.03454219    -0.00269178
     18      2      H          -0.00710189     0.00320359     0.04915565
     19      1      O          -0.01498169     0.04156106     0.10272155
     20      2      H          -0.00972975     0.01857579     0.01394927
     21      2      H           0.01190858     0.02428049    -0.06308716
     22      1      O          -0.05916550    -0.07206230    -0.06835223
     23      2      H           0.06079914     0.05923762     0.02214409
     24      2      H          -0.01618787    -0.01283540     0.04243515
     25      1      O          -0.06211006     0.06051639    -0.05776931
     26      2      H           0.02219093    -0.00789082     0.02926823
     27      2      H           0.01693872     0.01744543    -0.03626523
     28      1      O          -0.03933053     0.04957203     0.11076817
     29      2      H           0.00041611    -0.00132452    -0.03232839
     30      2      H           0.00987520     0.00905007    -0.03629729
     31      1      O          -0.00936288    -0.10418099     0.03298961
     32      2      H          -0.01923032     0.01207400    -0.02101184
     33      2      H           0.03229219     0.01486540    -0.01964140
     34      1      O           0.00206129     0.07515748     0.10624435
     35      2      H          -0.01226936     0.01166962    -0.08007985
     36      2      H          -0.03525125     0.00455232     0.01610801
     37      1      O           0.03916632    -0.05398774     0.07488801
     38      2      H          -0.02101085    -0.03753913    -0.01701255
     39      2      H          -0.03249825     0.00963294    -0.00227498
     40      1      O          -0.00045501     0.03520958     0.03603338
     41      2      H          -0.00012236    -0.02142857     0.00969514
     42      2      H           0.03034379     0.02554175    -0.03121309
     43      1      O          -0.02988297     0.04058160     0.07928754
     44      2      H          -0.00858891    -0.01292628     0.02312816
     45      2      H           0.01037986     0.02703005     0.02010946
     46      1      O           0.01743536    -0.07929572    -0.01476339
     47      2      H           0.00193401    -0.02721767    -0.05063026
     48      2      H           0.00195640    -0.00164906     0.01962988
     49      1      O          -0.00847900    -0.03106739     0.08588344
     50      2      H          -0.01095256    -0.00523638    -0.03735536
     51      2      H           0.02386026    -0.01387313     0.03163126
     52      1      O           0.04704824     0.03796480    -0.04113028
     53      2      H          -0.02884110    -0.05680396    -0.03862803
     54      2      H          -0.00357333     0.02499569    -0.00115170
     55      1      O           0.03646594     0.06543936    -0.00873320
     56      2      H          -0.00702650    -0.01896027     0.03533307
     57      2      H          -0.03106325     0.00888491    -0.02340878
     58      1      O           0.05673083     0.04781448    -0.11692472
     59      2      H          -0.01553346     0.01354983     0.03094835
     60      2      H          -0.01214302     0.01151791    -0.01140081
     61      1      O          -0.02169192     0.09921719    -0.03327703
     62      2      H          -0.01555687    -0.00886590    -0.04662583
     63      2      H           0.00480860     0.00192576     0.05031858
     64      1      O           0.01102803     0.05403434    -0.06212886
     65      2      H          -0.00917675    -0.01230258    -0.01056047
     66      2      H          -0.03329341    -0.03151623    -0.00539363
     67      1      O           0.02900653    -0.05866262    -0.12476851
     68      2      H          -0.01923836    -0.01596949     0.00904972
     69      2      H           0.03646986    -0.01052514    -0.04101785
     70      1      O          -0.01737565     0.00112587     0.13007537
     71      2      H          -0.03657785    -0.00053635     0.00577102
     72      2      H           0.03090879     0.01537578    -0.01081553
     73      1      O           0.00792924    -0.00830952     0.02258977
     74      2      H           0.00225236    -0.02483485    -0.00709297
     75      2      H          -0.00467540    -0.03605858     0.02262647
     76      1      O           0.05340611     0.05267882    -0.09561855
     77      2      H          -0.03448596    -0.04288778     0.02549085
     78      2      H          -0.00356011     0.03646792     0.00054559
     79      1      O           0.00158487    -0.01902895     0.14999109
     80      2      H           0.00644940    -0.01988904     0.02088521
     81      2      H          -0.00145186     0.01575529    -0.05173613
     82      1      O          -0.04443520    -0.03635340    -0.05642020
     83      2      H           0.01104075    -0.03282605    -0.04367309
     84      2      H           0.03488222    -0.02481403     0.03782078
     85      1      O          -0.01579383    -0.10366780     0.12643912
     86      2      H           0.05487288     0.03107937    -0.04135177
     87      2      H           0.00680008     0.03454729     0.00569910
     88      1      O           0.02485006     0.00621316    -0.02953371
     89      2      H          -0.01024982     0.02400740     0.03437572
     90      2      H           0.00528600     0.00263787     0.01605285
     91      1      O           0.05244725     0.03363026     0.06902429
     92      2      H          -0.00745799     0.01589774     0.01941775
     93      2      H          -0.02148583    -0.00808617     0.03639766
     94      1      O          -0.01554880    -0.00257634    -0.03979502
     95      2      H           0.02045332    -0.03841285    -0.01611266
     96      2      H          -0.00266794    -0.01094573     0.04138703
     97      1      O          -0.05127345     0.06013594     0.08879923
     98      2      H          -0.00803105     0.03079529    -0.03717238
     99      2      H           0.01025615     0.00735374     0.02851139
    100      1      O           0.03648062     0.04377544    -0.12686413
    101      2      H           0.01461192     0.03851268    -0.00258018
    102      2      H          -0.00593450    -0.00339217     0.02363751
    103      1      O          -0.04777795    -0.06252613    -0.07131660
    104      2      H           0.06330532    -0.01409649    -0.01803826
    105      2      H          -0.01116187     0.02514827     0.00866249
    106      1      O           0.00228831     0.05731230     0.13684035
    107      2      H           0.00190257     0.00950327    -0.03905053
    108      2      H           0.00463170    -0.01483989     0.04224548
    109      1      O          -0.02469111    -0.04128517     0.10132438
    110      2      H          -0.01029555    -0.00738721    -0.02921535
    111      2      H          -0.00534994    -0.02514524    -0.02051996
    112      1      O          -0.00257808     0.07435355     0.03966055
    113      2      H          -0.00340396    -0.01216353     0.01384621
    114      2      H          -0.00686212     0.01111718     0.01235733
    115      1      O          -0.01442611    -0.03401152    -0.06784804
    116      2      H          -0.01048488     0.01613362     0.01017793
    117      2      H           0.01480137     0.01755271     0.06350919
    118      1      O           0.00837218    -0.07853254     0.05727812
    119      2      H           0.02144041     0.00394315     0.04169649
    120      2      H           0.00341264     0.02155021     0.01507959
    121      1      O           0.01366261    -0.02654367     0.04186261
    122      2      H           0.01225608     0.02032701    -0.02008920
    123      2      H          -0.02847889     0.00487562     0.02134935
    124      1      O           0.05420287    -0.04406674    -0.14193872
    125      2      H          -0.05227793    -0.02109335     0.06039589
    126      2      H           0.02147808    -0.03453169    -0.02752806
    127      1      O           0.00936334     0.04695928    -0.13229978
    128      2      H          -0.03520137     0.04227505     0.00109955
    129      2      H          -0.01570920    -0.00319367     0.04262725
    130      1      O          -0.03020492     0.00244181    -0.06426329
    131      2      H          -0.00005708    -0.06586737     0.00268141
    132      2      H           0.02573834    -0.02807429    -0.02493745
    133      1      O          -0.02056908    -0.00591438    -0.07898358
    134      2      H           0.01355891    -0.02771129    -0.04153377
    135      2      H          -0.00111450     0.02465685     0.02785922
    136      1      O          -0.02591622     0.10527638     0.04655490
    137      2      H           0.00295215    -0.00842151    -0.04014988
    138      2      H           0.03041615    -0.04207717    -0.06003107
    139      1      O           0.02524385     0.00934634     0.11369975
    140      2      H          -0.02671842    -0.01904657    -0.01410120
    141      2      H           0.00954500    -0.03346661    -0.05382055
    142      1      O           0.00208688     0.10101356    -0.00127365
    143      2      H           0.03260641     0.01253307    -0.01191832
    144      2      H           0.00555885    -0.00847730     0.00453167
    145      1      O          -0.06208508    -0.10352858    -0.11322803
    146      2      H          -0.01092669     0.03021335    -0.01448271
    147      2      H           0.02701306    -0.00771493    -0.02062469
    148      1      O          -0.01786313     0.00531573    -0.06410720
    149      2      H           0.00575425     0.02869760    -0.02195648
    150      2      H           0.01790985    -0.00374769     0.01320625
    151      1      O          -0.03586687     0.00292547     0.05205117
    152      2      H           0.04011766    -0.04397221    -0.06484926
    153      2      H          -0.01649417     0.02550782     0.00890316
    154      1      O           0.05504565     0.09978885    -0.05269439
    155      2      H           0.00634461     0.03663698    -0.00743869
    156      2      H          -0.04360036    -0.10398398     0.02816190
    157      1      O          -0.03632907    -0.08447588    -0.11796271
    158      2      H           0.02227373    -0.03711124     0.01836668
    159      2      H           0.01129056     0.00833240     0.03569421
    160      1      O           0.00015431     0.13007228     0.07627845
    161      2      H          -0.01918108    -0.03692966     0.00515692
    162      2      H           0.02883992    -0.03720073    -0.00211609
    163      1      O           0.02190573    -0.05628584     0.01335646
    164      2      H          -0.05096799     0.00713516     0.04502172
    165      2      H           0.01521648     0.03219841     0.01788863
    166      1      O          -0.06136104     0.05318247    -0.02102777
    167      2      H           0.01593719     0.03012994    -0.04426147
    168      2      H           0.03577292     0.00583462    -0.01689838
    169      1      O           0.07297973     0.02309466    -0.04958680
    170      2      H          -0.02058127     0.02514321    -0.02152020
    171      2      H          -0.01163559     0.01679220     0.02016637
    172      1      O          -0.04447716    -0.09269472    -0.11609897
    173      2      H           0.06707219    -0.03538717     0.04165956
    174      2      H           0.01921534     0.01369847    -0.03861101
    175      1      O           0.00151467    -0.02985379     0.02544135
    176      2      H          -0.00822274    -0.01678186    -0.00784468
    177      2      H          -0.00250977     0.01813200     0.01453497
    178      1      O           0.00520788     0.05810109     0.03721357
    179      2      H           0.00429215     0.00003714    -0.02388980
    180      2      H           0.00184492     0.00810298    -0.03511038
    181      1      O          -0.02998593    -0.06797584    -0.08137974
    182      2      H           0.01081030     0.03104878    -0.01554357
    183      2      H           0.00852699    -0.02802649    -0.02738585
    184      1      O          -0.04466382    -0.12848648     0.05587073
    185      2      H          -0.04980185     0.07277035    -0.05129181
    186      2      H           0.06009964    -0.04206521    -0.08633204
    187      1      O           0.07279427     0.09338916     0.14114499
    188      2      H           0.00340866    -0.03619004     0.01171769
    189      2      H          -0.05734980     0.01050837    -0.00033731
    190      1      O          -0.02412229     0.00356822     0.01088021
    191      2      H          -0.03115663    -0.00404784    -0.04561614
    192      2      H           0.02948892    -0.01864387     0.04763053
 SUM OF ATOMIC FORCES           0.13097132     0.02370989    -0.64114707     0.65481693

 -------------------------------------------------------------------------------
 -                                                                             -
 -                                DBCSR STATISTICS                             -
 -                                                                             -
 -------------------------------------------------------------------------------
 COUNTER                                    TOTAL       BLAS       SMM       ACC
 flops     5 x     5 x   256            833395200       0.0%    100.0%      0.0%
 flops     5 x    13 x   256           1055408640       0.0%    100.0%      0.0%
 flops    13 x     5 x   256           1059801600       0.0%    100.0%      0.0%
 flops    13 x    13 x   256           1481965056       0.0%    100.0%      0.0%
 flops inhomo. stacks                           0       0.0%      0.0%      0.0%
 flops total                         4.430570E+09       0.0%    100.0%      0.0%
 flops max/rank                      4.430570E+09       0.0%    100.0%      0.0%
 matmuls inhomo. stacks                         0       0.0%      0.0%      0.0%
 matmuls total                             145794       0.0%    100.0%      0.0%
 number of processed stacks                  2574       0.0%    100.0%      0.0%
 average stack size                                     0.0      56.6       0.0
 marketing flops                    36.609982E+09
 -------------------------------------------------------------------------------
 # multiplications                             33
 max memory usage/rank              25.807004E+09
 # max total images/rank                        1
 # max 3D layers                                1
 # MPI messages exchanged                       0
 MPI messages size (bytes):
  total size                         0.000000E+00
  min size                           0.000000E+00
  max size                           0.000000E+00
  average size                       0.000000E+00
 MPI breakdown and total messages size (bytes):
             size <=      128                   0                        0
       128 < size <=     8192                   0                        0
      8192 < size <=    32768                   0                        0
     32768 < size <=   131072                   0                        0
    131072 < size <=  4194304                   0                        0
   4194304 < size <= 16777216                   0                        0
  16777216 < size                               0                        0
 -------------------------------------------------------------------------------

 MEMORY| Estimated peak process memory [MiB]                               24614

 -------------------------------------------------------------------------------
 -                                                                             -
 -                           R E F E R E N C E S                               -
 -                                                                             -
 -------------------------------------------------------------------------------
 
 CP2K version 7.1, the CP2K developers group (2019).
 CP2K is freely available from https://www.cp2k.org/ .

 Schuett, Ole; Messmer, Peter; Hutter, Juerg; VandeVondele, Joost. 
 Electronic Structure Calculations on Graphics Processing Units, John
 Wiley & Sons, Ltd, 173-190 (2016). 
 GPU-Accelerated Sparse Matrix-Matrix Multiplication for
 Linear Scaling Density Functional Theory.
 https://dx.doi.org/10.1002/9781118670712.ch8

 Borstnik, U; VandeVondele, J; Weber, V; Hutter, J. 
 PARALLEL COMPUTING, 40 (5-6), 47-58 (2014). 
 Sparse matrix multiplication: The distributed block-compressed sparse
 row library.
 https://dx.doi.org/10.1016/j.parco.2014.03.012

 Hutter, J; Iannuzzi, M; Schiffmann, F; VandeVondele, J. 
 WIREs Comput Mol Sci., 4 (1), 15-25 (2014). 
 CP2K: atomistic simulations of condensed matter systems.
 https://dx.doi.org/10.1002/wcms.1159

 Krack, M. 
 THEORETICAL CHEMISTRY ACCOUNTS, 114 (1-3), 145-152 (2005). 
 Pseudopotentials for H to Kr optimized for gradient-corrected
 exchange-correlation functionals.
 https://dx.doi.org/10.1007/s00214-005-0655-y

 VandeVondele, J; Krack, M; Mohamed, F; Parrinello, M; Chassaing, T;
 Hutter, J. COMPUTER PHYSICS COMMUNICATIONS, 167 (2), 103-128 (2005). 
 QUICKSTEP: Fast and accurate density functional calculations using a
 mixed Gaussian and plane waves approach.
 https://dx.doi.org/10.1016/j.cpc.2004.12.014

 Frigo, M; Johnson, SG. 
 PROCEEDINGS OF THE IEEE, 93 (2), 216-231 (2005). 
 The design and implementation of FFTW3.
 https://dx.doi.org/10.1109/JPROC.2004.840301

 Hartwigsen, C; Goedecker, S; Hutter, J. 
 PHYSICAL REVIEW B, 58 (7), 3641-3662 (1998). 
 Relativistic separable dual-space Gaussian pseudopotentials from H to Rn.
 https://dx.doi.org/10.1103/PhysRevB.58.3641

 Lippert, G; Hutter, J; Parrinello, M. 
 MOLECULAR PHYSICS, 92 (3), 477-487 (1997). 
 A hybrid Gaussian and plane wave density functional scheme.
 https://dx.doi.org/10.1080/002689797170220

 Goedecker, S; Teter, M; Hutter, J. 
 PHYSICAL REVIEW B, 54 (3), 1703-1710 (1996). 
 Separable dual-space Gaussian pseudopotentials.
 https://dx.doi.org/10.1103/PhysRevB.54.1703


 -------------------------------------------------------------------------------
 -                                                                             -
 -                                T I M I N G                                  -
 -                                                                             -
 -------------------------------------------------------------------------------
 SUBROUTINE                       CALLS  ASD         SELF TIME        TOTAL TIME
                                MAXIMUM       AVERAGE  MAXIMUM  AVERAGE  MAXIMUM
 CP2K                                 1  1.0    0.678    0.678  776.901  776.901
 qs_forces                            1  2.0    0.000    0.000  765.964  765.964
 qs_energies                          1  3.0    0.000    0.000  761.031  761.031
 scf_env_do_scf                       1  4.0    0.000    0.000  749.115  749.115
 scf_env_do_scf_inner_loop           32  5.0    0.005    0.005  749.114  749.114
 gspace_mixing                       31  6.0    4.308    4.308  293.139  293.139
 broyden_mixing                      31  7.0  261.260  261.260  261.260  261.260
 qs_scf_new_mos                      32  6.0    0.001    0.001  208.579  208.579
 eigensolver                         32  7.0    0.003    0.003  198.251  198.251
 pw_transfer                        428  9.9    0.040    0.040  147.448  147.448
 fft_wrap_pw1pw2                    362 10.9    0.007    0.007  143.268  143.268
 rebuild_ks_matrix                   33  6.9    0.000    0.000  140.981  140.981
 qs_ks_build_kohn_sham_matrix        33  7.9    0.010    0.010  140.981  140.981
 qs_ks_update_qs_env                 32  6.0    0.000    0.000  136.619  136.619
 cp_fm_syevd                         32  8.0  135.040  135.040  135.203  135.203
 fft_wrap_pw1pw2_70                 164 11.2   10.607   10.607  129.200  129.200
 qs_rho_update_rho                   33  6.0    0.000    0.000  113.554  113.554
 calculate_rho_elec                  33  7.0   41.447   41.447  113.554  113.554
 fft3d_s                            363 12.8   72.035   72.035   72.044   72.044
 density_rs2pw                       33  8.0    0.003    0.003   70.779   70.779
 cp_fm_cholesky_restore              96  8.0   62.933   62.933   62.933   62.933
 sum_up_and_integrate                33  8.9    1.962    1.962   45.901   45.901
 pw_scatter_s                       196 13.1   44.333   44.333   44.333   44.333
 integrate_v_rspace                  33  9.9    2.869    2.869   43.939   43.939
 pw_poisson_solve                    33  8.9   36.298   36.298   40.735   40.735
 potential_pw2rs                     33 10.9    0.269    0.269   37.127   37.127
 qs_vxc_create                       33  8.9    0.001    0.001   20.474   20.474
 xc_vxc_pw_create                    33  9.9    4.667    4.667   20.473   20.473
 xc_rho_set_and_dset_create          33 10.9    0.001    0.001   15.806   15.806
 -------------------------------------------------------------------------------

 The number of warnings for this run is : 0
 
 -------------------------------------------------------------------------------
  **** **** ******  **  PROGRAM ENDED AT                 2020-05-21 08:04:48.054
 ***** ** ***  *** **   PROGRAM RAN ON                                   gnode39
 **    ****   ******    PROGRAM RAN BY                               mayank.modi
 ***** **    ** ** **   PROGRAM PROCESS ID                                 13600
  **** **  *******  **  PROGRAM STOPPED IN /home/mayank.modi/ab-initio-thermodyn
                                           amics-of-water/mayank/cp2k_energy_cal
                                           culations
