 DBCSR| CPU Multiplication driver                                           XSMM
 DBCSR| Multrec recursion limit                                              512
 DBCSR| Multiplication stack size                                           1000
 DBCSR| Maximum elements for images                                    UNLIMITED
 DBCSR| Multiplicative factor virtual images                                   1
 DBCSR| Use multiplication densification                                       T
 DBCSR| Multiplication size stacks                                             3


  **** **** ******  **  PROGRAM STARTED AT               2020-05-20 22:55:59.968
 ***** ** ***  *** **   PROGRAM STARTED ON                               gnode39
 **    ****   ******    PROGRAM STARTED BY                           mayank.modi
 ***** **    ** ** **   PROGRAM PROCESS ID                                 20544
  **** **  *******  **  PROGRAM STARTED IN /home/mayank.modi/ab-initio-thermodyn
                                           amics-of-water/mayank/cp2k_energy_cal
                                           culations

 CP2K| version string:                                          CP2K version 7.1
 CP2K| source code revision number:                                  git:e635599
 CP2K| cp2kflags: omp libint fftw3 libxc xsmm spglib                            
 CP2K| is freely available from                            https://www.cp2k.org/
 CP2K| Program compiled at                          Mon Dec 23 19:23:12 CET 2019
 CP2K| Program compiled on                                                pc9404
 CP2K| Program compiled for                                Linux-x86-64-gfortran
 CP2K| Data directory path                                        /opt/cp2k/data
 CP2K| Input file name                                              ./input27.in

 GLOBAL| Force Environment number                                              1
 GLOBAL| Basis set file name                                           BASIS_SET
 GLOBAL| Potential file name                                      GTH_POTENTIALS
 GLOBAL| MM Potential file name                                     MM_POTENTIAL
 GLOBAL| Coordinate file name                                      __STD_INPUT__
 GLOBAL| Method name                                                        CP2K
 GLOBAL| Project name                                                   H2O_bulk
 GLOBAL| Preferred FFT library                                             FFTW3
 GLOBAL| Preferred diagonalization lib.                                       SL
 GLOBAL| Run type                                                   ENERGY_FORCE
 GLOBAL| All-to-all communication in single precision                          F
 GLOBAL| FFTs using library dependent lengths                                  F
 GLOBAL| Global print level                                                  LOW
 GLOBAL| MPI I/O enabled                                                       T
 GLOBAL| Total number of message passing processes                             1
 GLOBAL| Number of threads for this process                                   20
 GLOBAL| This output is from process                                           0
 GLOBAL| CPU model name                Intel(R) Xeon(R) CPU E5-2640 v4 @ 2.40GHz
 GLOBAL| CPUID                                                              1002
 GLOBAL| Compiled for CPUID                                                    0

 MEMORY| system memory details [Kb]
 MEMORY|                        rank 0           min           max       average
 MEMORY| MemTotal            131898148     131898148     131898148     131898148
 MEMORY| MemFree              88840304      88840304      88840304      88840304
 MEMORY| Buffers               3186748       3186748       3186748       3186748
 MEMORY| Cached               33995808      33995808      33995808      33995808
 MEMORY| Slab                  3911752       3911752       3911752       3911752
 MEMORY| SReclaimable          3253904       3253904       3253904       3253904
 MEMORY| MemLikelyFree       129276764     129276764     129276764     129276764


 GENERATE|  Preliminary Number of Bonds generated:                             0
 GENERATE|  Achieved consistency in connectivity generation.

 *******************************************************************************
 *******************************************************************************
 **                                                                           **
 **     #####                         ##              ##                      **
 **    ##   ##            ##          ##              ##                      **
 **   ##     ##                       ##            ######                    **
 **   ##     ##  ##   ##  ##   #####  ##  ##   ####   ##    #####    #####    **
 **   ##     ##  ##   ##  ##  ##      ## ##   ##      ##   ##   ##  ##   ##   **
 **   ##  ## ##  ##   ##  ##  ##      ####     ###    ##   ######   ######    **
 **    ##  ###   ##   ##  ##  ##      ## ##      ##   ##   ##       ##        **
 **     #######   #####   ##   #####  ##  ##  ####    ##    #####   ##        **
 **           ##                                                    ##        **
 **                                                                           **
 **                                                ... make the atoms dance   **
 **                                                                           **
 **            Copyright (C) by CP2K developers group (2000 - 2019)           **
 **                                                                           **
 *******************************************************************************


 TOTAL NUMBERS AND MAXIMUM NUMBERS

  Total number of            - Atomic kinds:                                   2
                             - Atoms:                                        192
                             - Shell sets:                                   384
                             - Shells:                                       704
                             - Primitive Cartesian functions:                960
                             - Cartesian basis functions:                   1536
                             - Spherical basis functions:                   1472

  Maximum angular momentum of- Orbital basis functions:                        2
                             - Local part of the GTH pseudopotential:          2
                             - Non-local part of the GTH pseudopotential:      0


 SCF PARAMETERS         Density guess:                                    ATOMIC
                        --------------------------------------------------------
                        max_scf:                                             300
                        max_scf_history:                                       0
                        max_diis:                                              4
                        --------------------------------------------------------
                        eps_scf:                                        1.00E-07
                        eps_scf_history:                                0.00E+00
                        eps_diis:                                       1.00E-01
                        eps_eigval:                                     1.00E-05
                        --------------------------------------------------------
                        level_shift [a.u.]:                                 0.00
                        --------------------------------------------------------
                        Mixing method:                            BROYDEN_MIXING
                                                charge density mixing in g-space
                        --------------------------------------------------------
                        No outer SCF

 Number of electrons:                                                        512
 Number of occupied orbitals:                                                256
 Number of molecular orbitals:                                               256

 Number of orbital functions:                                               1472
 Number of independent orbital functions:                                   1472

 Extrapolation method: initial_guess


 SCF WAVEFUNCTION OPTIMIZATION

  Step     Update method      Time    Convergence         Total energy    Change
  ------------------------------------------------------------------------------
     1 NoMix/Diag. 0.40E+00   10.6     0.98553606     -1087.2391882597 -1.09E+03
     2 Broy./Diag. 0.40E+00   15.6     0.30208972     -1013.6745728294  7.36E+01
     3 Broy./Diag. 0.40E+00   17.8     0.02723910     -1095.0567446695 -8.14E+01
     4 Broy./Diag. 0.40E+00   18.2     0.02832350     -1094.4341800470  6.23E-01
     5 Broy./Diag. 0.40E+00   19.0     0.00288273     -1095.3185145958 -8.84E-01
     6 Broy./Diag. 0.40E+00   20.2     0.00406696     -1095.3386022069 -2.01E-02
     7 Broy./Diag. 0.40E+00   21.1     0.00219795     -1095.4695306692 -1.31E-01
     8 Broy./Diag. 0.40E+00   22.7     0.00382329     -1095.5700183009 -1.00E-01
     9 Broy./Diag. 0.40E+00   23.5     0.00301055     -1095.6607960991 -9.08E-02
    10 Broy./Diag. 0.40E+00   25.0     0.00194731     -1095.6776765243 -1.69E-02
    11 Broy./Diag. 0.40E+00   24.7     0.00150921     -1095.6624144163  1.53E-02
    12 Broy./Diag. 0.40E+00   25.2     0.00066798     -1095.6673989596 -4.98E-03
    13 Broy./Diag. 0.40E+00   24.1     0.00060127     -1095.6850229273 -1.76E-02
    14 Broy./Diag. 0.40E+00   24.7     0.00028084     -1095.6888023406 -3.78E-03
    15 Broy./Diag. 0.40E+00   26.0     0.00033729     -1095.6806098372  8.19E-03
    16 Broy./Diag. 0.40E+00   24.4     0.00013693     -1095.6802810103  3.29E-04
    17 Broy./Diag. 0.40E+00   24.6     0.00007274     -1095.6818018267 -1.52E-03
    18 Broy./Diag. 0.40E+00   25.7     0.00003747     -1095.6820894136 -2.88E-04
    19 Broy./Diag. 0.40E+00   24.6     0.00001983     -1095.6817583135  3.31E-04
    20 Broy./Diag. 0.40E+00   25.3     0.00001436     -1095.6810987470  6.60E-04
    21 Broy./Diag. 0.40E+00   26.0     0.00001065     -1095.6812724826 -1.74E-04
    22 Broy./Diag. 0.40E+00   26.1     0.00000492     -1095.6813769365 -1.04E-04
    23 Broy./Diag. 0.40E+00   25.4     0.00000486     -1095.6813421943  3.47E-05
    24 Broy./Diag. 0.40E+00   26.0     0.00000217     -1095.6812415570  1.01E-04
    25 Broy./Diag. 0.40E+00   26.1     0.00000332     -1095.6811397133  1.02E-04
    26 Broy./Diag. 0.40E+00   25.8     0.00000153     -1095.6811676036 -2.79E-05
    27 Broy./Diag. 0.40E+00   24.6     0.00000099     -1095.6811992815 -3.17E-05
    28 Broy./Diag. 0.40E+00   25.2     0.00000078     -1095.6811904565  8.82E-06
    29 Broy./Diag. 0.40E+00   25.4     0.00000030     -1095.6811791897  1.13E-05
    30 Broy./Diag. 0.40E+00   24.9     0.00000027     -1095.6811764910  2.70E-06
    31 Broy./Diag. 0.40E+00   25.6     0.00000017     -1095.6811830824 -6.59E-06
    32 Broy./Diag. 0.40E+00   25.0     0.00000009     -1095.6811846627 -1.58E-06

  *** SCF run converged in    32 steps ***


  Electronic density on regular grids:       -511.9998572918        0.0001427082
  Core density on regular grids:              511.9996608650       -0.0003391350
  Total charge density on r-space grids:       -0.0001964268
  Total charge density g-space grids:          -0.0001964268

  Overlap energy of the core charge distribution:               0.00000477598900
  Self energy of the core charge distribution:              -2838.21791979120962
  Core Hamiltonian energy:                                    820.99822870080186
  Hartree energy:                                            1186.16998048642586
  Exchange-correlation energy:                               -264.63147883470873

  Total energy:                                             -1095.68118466270153

 ENERGY| Total FORCE_EVAL ( QS ) energy (a.u.):            -1095.681183761540524


 ATOMIC FORCES in [a.u.]

 # Atom   Kind   Element          X              Y              Z
      1      1      O          -0.03074953    -0.01574413    -0.03630763
      2      2      H           0.02086435    -0.01691614    -0.01938255
      3      2      H          -0.00015269     0.03919530     0.04170701
      4      1      O          -0.02242493    -0.00783583     0.03690752
      5      2      H          -0.00478357     0.00064086    -0.07205540
      6      2      H           0.00794588    -0.00986301     0.04198580
      7      1      O          -0.06487247    -0.06636454     0.04183989
      8      2      H           0.03083169     0.00418744    -0.02317366
      9      2      H           0.02620047     0.00541027    -0.02127550
     10      1      O          -0.04050298    -0.04328132    -0.06746224
     11      2      H           0.02390505     0.00847953     0.09974963
     12      2      H           0.03526351     0.04059718    -0.06476219
     13      1      O           0.06764925    -0.07725586     0.04912831
     14      2      H          -0.01624283     0.00686808    -0.04587367
     15      2      H          -0.04965679    -0.00439113    -0.00903174
     16      1      O          -0.01498062     0.07882415     0.10178972
     17      2      H           0.02439646    -0.00988200    -0.01243739
     18      2      H          -0.03117898    -0.02027648    -0.02031558
     19      1      O           0.01089935    -0.02999231    -0.00477047
     20      2      H          -0.06222322     0.00174871    -0.05202575
     21      2      H           0.05056584    -0.00050945    -0.03236779
     22      1      O          -0.04388168    -0.08474724    -0.08245094
     23      2      H          -0.00064494     0.05221722    -0.03563057
     24      2      H          -0.00163038    -0.01107140     0.03844606
     25      1      O          -0.03942394     0.10180441    -0.05202178
     26      2      H           0.03813778    -0.07162686     0.01796798
     27      2      H           0.02523489     0.02861653     0.07099195
     28      1      O           0.00578247    -0.05284426    -0.04928557
     29      2      H          -0.02308625     0.02315838    -0.02288321
     30      2      H          -0.00681628     0.03045296    -0.06097006
     31      1      O          -0.02105226    -0.01127638     0.11302892
     32      2      H           0.03810232    -0.04776879    -0.03030625
     33      2      H          -0.00568093     0.01643307     0.03360209
     34      1      O           0.06601361    -0.03044447    -0.09883822
     35      2      H          -0.01908809     0.03485121     0.03857937
     36      2      H          -0.03436845    -0.03872574     0.06145120
     37      1      O           0.06750665    -0.03004775     0.05306390
     38      2      H           0.01788463     0.01718660     0.02028771
     39      2      H          -0.05338509     0.00746677     0.04836617
     40      1      O           0.01163780    -0.04745890    -0.03086176
     41      2      H           0.00302497    -0.02982297    -0.08885502
     42      2      H          -0.03863470    -0.00388528     0.02669801
     43      1      O          -0.00041783     0.07975798    -0.08157739
     44      2      H           0.02729600    -0.02872632    -0.04981843
     45      2      H          -0.00954789    -0.01897234    -0.02165656
     46      1      O           0.00694152    -0.05658311    -0.11933418
     47      2      H           0.02257278    -0.01571830     0.00081422
     48      2      H           0.01486715    -0.01474541    -0.02228716
     49      1      O           0.06574441     0.10054279    -0.09617142
     50      2      H          -0.04668752    -0.03310227     0.01624317
     51      2      H           0.01172976    -0.03278861    -0.02094188
     52      1      O           0.01902768    -0.06535377    -0.09982911
     53      2      H          -0.00841623    -0.02445318    -0.03682351
     54      2      H          -0.01141224     0.03257120    -0.03066886
     55      1      O          -0.02211161    -0.08613438     0.09148980
     56      2      H          -0.00215455    -0.00364028    -0.03203309
     57      2      H          -0.00292372     0.00901296     0.03073564
     58      1      O           0.09920091    -0.01909416    -0.03294820
     59      2      H          -0.01812907     0.00948209     0.04807532
     60      2      H          -0.04969341    -0.07516010    -0.06302522
     61      1      O           0.04154096     0.03274795    -0.04778056
     62      2      H           0.00400399     0.02460528    -0.04014533
     63      2      H          -0.00567335    -0.02995912     0.04844046
     64      1      O          -0.01292175     0.00374587     0.12172267
     65      2      H          -0.00639109    -0.03625304    -0.02718127
     66      2      H          -0.00438311     0.03029251    -0.03124023
     67      1      O          -0.02965116     0.06530782    -0.08940734
     68      2      H           0.01017207     0.01116957    -0.04167820
     69      2      H           0.02650350    -0.01174200     0.03106892
     70      1      O           0.01817430    -0.08906858    -0.03209764
     71      2      H          -0.02202060     0.01721137    -0.00548512
     72      2      H           0.01918887     0.00045687     0.04890055
     73      1      O          -0.05420032     0.08346595     0.03286597
     74      2      H           0.03558547    -0.02738537     0.01321120
     75      2      H           0.00767167     0.03962869    -0.00503563
     76      1      O           0.03908425     0.02205209     0.09862737
     77      2      H           0.00478649    -0.02690261     0.00379957
     78      2      H          -0.00655552     0.02452378     0.00221471
     79      1      O          -0.00442111    -0.08035181     0.07829845
     80      2      H           0.00602852     0.02001455    -0.04324044
     81      2      H           0.01754024     0.02674767    -0.03556670
     82      1      O          -0.01999740     0.04059636     0.02206813
     83      2      H          -0.00633396    -0.03105751    -0.06004390
     84      2      H          -0.00323527    -0.03918216    -0.00340176
     85      1      O           0.00417270    -0.02331138    -0.03480186
     86      2      H           0.01480854     0.02653791     0.01262439
     87      2      H          -0.02038417     0.01655835    -0.03165261
     88      1      O          -0.02788260     0.06326705    -0.02418192
     89      2      H          -0.00687343     0.00786383    -0.03651732
     90      2      H           0.00229645     0.03513452     0.01054449
     91      1      O           0.02816838     0.07814325    -0.14348385
     92      2      H          -0.01403422     0.00052645     0.07569042
     93      2      H          -0.00540155    -0.01726495    -0.03911849
     94      1      O           0.00153335    -0.02645521    -0.03611493
     95      2      H           0.02425574    -0.00884321    -0.01589668
     96      2      H          -0.00146908    -0.02468371    -0.03394936
     97      1      O          -0.04538601     0.04533423    -0.08001330
     98      2      H           0.01170453     0.04339892     0.02673907
     99      2      H           0.01162307    -0.03264962    -0.03471111
    100      1      O          -0.05239675     0.05031309    -0.16340528
    101      2      H           0.04125805     0.04218027     0.00055581
    102      2      H          -0.01669008    -0.00527871    -0.01746101
    103      1      O          -0.07752352    -0.11237703    -0.00314636
    104      2      H           0.03613403    -0.02296998    -0.00296521
    105      2      H           0.01432999     0.05695513     0.00611173
    106      1      O           0.03470793     0.03921177     0.09903640
    107      2      H          -0.00738940     0.01410116     0.04156709
    108      2      H           0.00945429    -0.03306509    -0.03941300
    109      1      O           0.00155774     0.00064214    -0.03277940
    110      2      H           0.02428115     0.03538871    -0.02565987
    111      2      H           0.00101608    -0.04163377    -0.01386953
    112      1      O          -0.06931599    -0.00398813     0.09337063
    113      2      H          -0.01117351     0.01322652     0.03191562
    114      2      H           0.05744006     0.00921479     0.01164076
    115      1      O           0.04147601    -0.12451174    -0.12931227
    116      2      H          -0.00520874     0.02593157    -0.05572243
    117      2      H           0.00464394    -0.01418624     0.08159142
    118      1      O          -0.09926902     0.08701827     0.11494234
    119      2      H          -0.00318189    -0.02532043    -0.02776527
    120      2      H           0.07411933    -0.03277644    -0.08627605
    121      1      O           0.04407294    -0.02283783    -0.13748543
    122      2      H           0.01007730    -0.08708104    -0.04212335
    123      2      H          -0.00095749     0.03356639     0.07293192
    124      1      O           0.05598662    -0.05859347    -0.18003082
    125      2      H          -0.07628087     0.01541232     0.02091561
    126      2      H           0.03940441    -0.03424413     0.03516036
    127      1      O           0.03926697     0.03253313    -0.09917874
    128      2      H          -0.03145111     0.00598532    -0.01932442
    129      2      H           0.00501115     0.01054222     0.05346453
    130      1      O          -0.00659347     0.05677323     0.09586642
    131      2      H           0.00492787     0.03877308     0.01706488
    132      2      H           0.03703394    -0.00460458    -0.01734285
    133      1      O          -0.02362112    -0.09536284     0.12145152
    134      2      H           0.02545930     0.02576321     0.00035293
    135      2      H           0.00001930     0.02499521    -0.02641048
    136      1      O          -0.00375894    -0.00308327     0.02483232
    137      2      H          -0.00544218    -0.02357217     0.03201735
    138      2      H           0.01678602    -0.04648016     0.03111920
    139      1      O           0.05223703    -0.05362417    -0.04345724
    140      2      H          -0.01775591    -0.02867156     0.04580072
    141      2      H          -0.02028983    -0.02701072    -0.04411742
    142      1      O           0.03600731    -0.06336836    -0.08536266
    143      2      H           0.00295903    -0.01882741    -0.04162900
    144      2      H          -0.00738976    -0.03226814    -0.03810979
    145      1      O           0.01215268    -0.07178431     0.02797457
    146      2      H          -0.01051250     0.00249602     0.00587252
    147      2      H          -0.02096017    -0.01687007    -0.01798725
    148      1      O          -0.07123271    -0.08674214     0.09057868
    149      2      H           0.02574754     0.11126270    -0.01690989
    150      2      H           0.01275439    -0.03003227     0.01512261
    151      1      O           0.00802730     0.08288089    -0.07584384
    152      2      H           0.00755016     0.01087100    -0.06024405
    153      2      H           0.00795780     0.00211656    -0.02187986
    154      1      O           0.00197264    -0.05908789     0.11773346
    155      2      H          -0.00614510     0.02538904     0.01921178
    156      2      H          -0.00152733     0.00339393    -0.04190302
    157      1      O           0.05538145     0.04052927    -0.02106869
    158      2      H           0.02500813    -0.00019273    -0.03448277
    159      2      H          -0.07708360    -0.01647438     0.10325198
    160      1      O           0.02158513    -0.04443410     0.01850422
    161      2      H          -0.01124112    -0.00640907     0.02727343
    162      2      H           0.01973361     0.01196340    -0.11606351
    163      1      O          -0.06565306    -0.05666081    -0.03952984
    164      2      H           0.03181131    -0.02947629    -0.01447589
    165      2      H           0.01105056    -0.00983559     0.02246259
    166      1      O          -0.01604552    -0.04065879     0.10767695
    167      2      H           0.03810242     0.02874153    -0.02867860
    168      2      H           0.01449501    -0.00679923     0.01711279
    169      1      O           0.00996896    -0.03791349     0.08957825
    170      2      H          -0.06736608     0.01519722    -0.00458990
    171      2      H           0.02973224    -0.00677504    -0.04752643
    172      1      O          -0.02463607     0.02708125    -0.07965462
    173      2      H           0.01630378    -0.02205831    -0.00057564
    174      2      H           0.00107035     0.00572748    -0.01968012
    175      1      O          -0.03361439    -0.09905433     0.04781943
    176      2      H          -0.00048169     0.02855350    -0.05152809
    177      2      H           0.03067787     0.00514167    -0.03535337
    178      1      O          -0.05312601    -0.02269101     0.04154249
    179      2      H           0.01313678     0.01926485    -0.01862870
    180      2      H           0.01509635     0.00169981    -0.02979959
    181      1      O          -0.03303630     0.12026939    -0.08219558
    182      2      H          -0.01103879     0.00300573     0.00092767
    183      2      H           0.05073546    -0.02228005    -0.01045959
    184      1      O           0.02083616     0.01273073     0.14815065
    185      2      H           0.03508201    -0.02458370     0.01668493
    186      2      H          -0.03785112    -0.01932002    -0.03282560
    187      1      O           0.03899124    -0.04598544     0.02818757
    188      2      H          -0.06614873    -0.00875785    -0.01420837
    189      2      H           0.01990081     0.04712934     0.03427574
    190      1      O          -0.02811344    -0.03997433    -0.07316773
    191      2      H           0.00844469    -0.02500416    -0.01472709
    192      2      H           0.01008752     0.00708171    -0.02326197
 SUM OF ATOMIC FORCES           0.20545780    -0.88731643    -1.35138538     1.62965819

 -------------------------------------------------------------------------------
 -                                                                             -
 -                                DBCSR STATISTICS                             -
 -                                                                             -
 -------------------------------------------------------------------------------
 COUNTER                                    TOTAL       BLAS       SMM       ACC
 flops     5 x     5 x   256            888307200       0.0%    100.0%      0.0%
 flops     5 x    13 x   256           1098240000       0.0%    100.0%      0.0%
 flops    13 x     5 x   256           1107025920       0.0%    100.0%      0.0%
 flops    13 x    13 x   256           1553350656       0.0%    100.0%      0.0%
 flops inhomo. stacks                           0       0.0%      0.0%      0.0%
 flops total                         4.646924E+09       0.0%    100.0%      0.0%
 flops max/rank                      4.646924E+09       0.0%    100.0%      0.0%
 matmuls inhomo. stacks                         0       0.0%      0.0%      0.0%
 matmuls total                             153615       0.0%    100.0%      0.0%
 number of processed stacks                  2574       0.0%    100.0%      0.0%
 average stack size                                     0.0      59.7       0.0
 marketing flops                    36.609982E+09
 -------------------------------------------------------------------------------
 # multiplications                             33
 max memory usage/rank              25.808056E+09
 # max total images/rank                        1
 # max 3D layers                                1
 # MPI messages exchanged                       0
 MPI messages size (bytes):
  total size                         0.000000E+00
  min size                           0.000000E+00
  max size                           0.000000E+00
  average size                       0.000000E+00
 MPI breakdown and total messages size (bytes):
             size <=      128                   0                        0
       128 < size <=     8192                   0                        0
      8192 < size <=    32768                   0                        0
     32768 < size <=   131072                   0                        0
    131072 < size <=  4194304                   0                        0
   4194304 < size <= 16777216                   0                        0
  16777216 < size                               0                        0
 -------------------------------------------------------------------------------

 MEMORY| Estimated peak process memory [MiB]                               24615

 -------------------------------------------------------------------------------
 -                                                                             -
 -                           R E F E R E N C E S                               -
 -                                                                             -
 -------------------------------------------------------------------------------
 
 CP2K version 7.1, the CP2K developers group (2019).
 CP2K is freely available from https://www.cp2k.org/ .

 Schuett, Ole; Messmer, Peter; Hutter, Juerg; VandeVondele, Joost. 
 Electronic Structure Calculations on Graphics Processing Units, John
 Wiley & Sons, Ltd, 173-190 (2016). 
 GPU-Accelerated Sparse Matrix-Matrix Multiplication for
 Linear Scaling Density Functional Theory.
 https://dx.doi.org/10.1002/9781118670712.ch8

 Borstnik, U; VandeVondele, J; Weber, V; Hutter, J. 
 PARALLEL COMPUTING, 40 (5-6), 47-58 (2014). 
 Sparse matrix multiplication: The distributed block-compressed sparse
 row library.
 https://dx.doi.org/10.1016/j.parco.2014.03.012

 Hutter, J; Iannuzzi, M; Schiffmann, F; VandeVondele, J. 
 WIREs Comput Mol Sci., 4 (1), 15-25 (2014). 
 CP2K: atomistic simulations of condensed matter systems.
 https://dx.doi.org/10.1002/wcms.1159

 Krack, M. 
 THEORETICAL CHEMISTRY ACCOUNTS, 114 (1-3), 145-152 (2005). 
 Pseudopotentials for H to Kr optimized for gradient-corrected
 exchange-correlation functionals.
 https://dx.doi.org/10.1007/s00214-005-0655-y

 VandeVondele, J; Krack, M; Mohamed, F; Parrinello, M; Chassaing, T;
 Hutter, J. COMPUTER PHYSICS COMMUNICATIONS, 167 (2), 103-128 (2005). 
 QUICKSTEP: Fast and accurate density functional calculations using a
 mixed Gaussian and plane waves approach.
 https://dx.doi.org/10.1016/j.cpc.2004.12.014

 Frigo, M; Johnson, SG. 
 PROCEEDINGS OF THE IEEE, 93 (2), 216-231 (2005). 
 The design and implementation of FFTW3.
 https://dx.doi.org/10.1109/JPROC.2004.840301

 Hartwigsen, C; Goedecker, S; Hutter, J. 
 PHYSICAL REVIEW B, 58 (7), 3641-3662 (1998). 
 Relativistic separable dual-space Gaussian pseudopotentials from H to Rn.
 https://dx.doi.org/10.1103/PhysRevB.58.3641

 Lippert, G; Hutter, J; Parrinello, M. 
 MOLECULAR PHYSICS, 92 (3), 477-487 (1997). 
 A hybrid Gaussian and plane wave density functional scheme.
 https://dx.doi.org/10.1080/002689797170220

 Goedecker, S; Teter, M; Hutter, J. 
 PHYSICAL REVIEW B, 54 (3), 1703-1710 (1996). 
 Separable dual-space Gaussian pseudopotentials.
 https://dx.doi.org/10.1103/PhysRevB.54.1703


 -------------------------------------------------------------------------------
 -                                                                             -
 -                                T I M I N G                                  -
 -                                                                             -
 -------------------------------------------------------------------------------
 SUBROUTINE                       CALLS  ASD         SELF TIME        TOTAL TIME
                                MAXIMUM       AVERAGE  MAXIMUM  AVERAGE  MAXIMUM
 CP2K                                 1  1.0    0.624    0.624  779.420  779.420
 qs_forces                            1  2.0    0.000    0.000  768.474  768.474
 qs_energies                          1  3.0    0.000    0.000  763.913  763.913
 scf_env_do_scf                       1  4.0    0.000    0.000  752.487  752.487
 scf_env_do_scf_inner_loop           32  5.0    0.005    0.005  752.487  752.487
 gspace_mixing                       31  6.0    4.339    4.339  292.107  292.107
 broyden_mixing                      31  7.0  260.299  260.299  260.299  260.299
 qs_scf_new_mos                      32  6.0    0.001    0.001  210.162  210.162
 eigensolver                         32  7.0    0.003    0.003  198.829  198.829
 pw_transfer                        428  9.9    0.040    0.040  149.026  149.026
 fft_wrap_pw1pw2                    362 10.9    0.006    0.006  144.741  144.741
 rebuild_ks_matrix                   33  6.9    0.000    0.000  143.194  143.194
 qs_ks_build_kohn_sham_matrix        33  7.9    0.015    0.015  143.194  143.194
 qs_ks_update_qs_env                 32  6.0    0.000    0.000  138.830  138.830
 cp_fm_syevd                         32  8.0  135.617  135.617  135.756  135.756
 fft_wrap_pw1pw2_70                 164 11.2   10.825   10.825  130.628  130.628
 qs_rho_update_rho                   33  6.0    0.000    0.000  114.075  114.075
 calculate_rho_elec                  33  7.0   41.388   41.388  114.075  114.075
 fft3d_s                            363 12.8   72.487   72.487   72.495   72.495
 density_rs2pw                       33  8.0    0.003    0.003   71.562   71.562
 cp_fm_cholesky_restore              96  8.0   62.957   62.957   62.957   62.957
 sum_up_and_integrate                33  8.9    2.089    2.089   47.837   47.837
 integrate_v_rspace                  33  9.9    2.950    2.950   45.748   45.748
 pw_scatter_s                       196 13.1   44.637   44.637   44.637   44.637
 pw_poisson_solve                    33  8.9   36.197   36.197   40.737   40.737
 potential_pw2rs                     33 10.9    0.268    0.268   38.233   38.233
 qs_vxc_create                       33  8.9    0.001    0.001   20.813   20.813
 xc_vxc_pw_create                    33  9.9    4.615    4.615   20.812   20.812
 xc_rho_set_and_dset_create          33 10.9    0.001    0.001   16.197   16.197
 -------------------------------------------------------------------------------

 The number of warnings for this run is : 0
 
 -------------------------------------------------------------------------------
  **** **** ******  **  PROGRAM ENDED AT                 2020-05-20 23:08:59.473
 ***** ** ***  *** **   PROGRAM RAN ON                                   gnode39
 **    ****   ******    PROGRAM RAN BY                               mayank.modi
 ***** **    ** ** **   PROGRAM PROCESS ID                                 20544
  **** **  *******  **  PROGRAM STOPPED IN /home/mayank.modi/ab-initio-thermodyn
                                           amics-of-water/mayank/cp2k_energy_cal
                                           culations
