 DBCSR| CPU Multiplication driver                                           XSMM
 DBCSR| Multrec recursion limit                                              512
 DBCSR| Multiplication stack size                                           1000
 DBCSR| Maximum elements for images                                    UNLIMITED
 DBCSR| Multiplicative factor virtual images                                   1
 DBCSR| Use multiplication densification                                       T
 DBCSR| Multiplication size stacks                                             3


  **** **** ******  **  PROGRAM STARTED AT               2020-05-21 21:52:12.392
 ***** ** ***  *** **   PROGRAM STARTED ON                               gnode39
 **    ****   ******    PROGRAM STARTED BY                           mayank.modi
 ***** **    ** ** **   PROGRAM PROCESS ID                                 31801
  **** **  *******  **  PROGRAM STARTED IN /home/mayank.modi/ab-initio-thermodyn
                                           amics-of-water/mayank/cp2k_energy_cal
                                           culations

 CP2K| version string:                                          CP2K version 7.1
 CP2K| source code revision number:                                  git:e635599
 CP2K| cp2kflags: omp libint fftw3 libxc xsmm spglib                            
 CP2K| is freely available from                            https://www.cp2k.org/
 CP2K| Program compiled at                          Mon Dec 23 19:23:12 CET 2019
 CP2K| Program compiled on                                                pc9404
 CP2K| Program compiled for                                Linux-x86-64-gfortran
 CP2K| Data directory path                                        /opt/cp2k/data
 CP2K| Input file name                                             ./input131.in

 GLOBAL| Force Environment number                                              1
 GLOBAL| Basis set file name                                           BASIS_SET
 GLOBAL| Potential file name                                      GTH_POTENTIALS
 GLOBAL| MM Potential file name                                     MM_POTENTIAL
 GLOBAL| Coordinate file name                                      __STD_INPUT__
 GLOBAL| Method name                                                        CP2K
 GLOBAL| Project name                                                   H2O_bulk
 GLOBAL| Preferred FFT library                                             FFTW3
 GLOBAL| Preferred diagonalization lib.                                       SL
 GLOBAL| Run type                                                   ENERGY_FORCE
 GLOBAL| All-to-all communication in single precision                          F
 GLOBAL| FFTs using library dependent lengths                                  F
 GLOBAL| Global print level                                                  LOW
 GLOBAL| MPI I/O enabled                                                       T
 GLOBAL| Total number of message passing processes                             1
 GLOBAL| Number of threads for this process                                   20
 GLOBAL| This output is from process                                           0
 GLOBAL| CPU model name                Intel(R) Xeon(R) CPU E5-2640 v4 @ 2.40GHz
 GLOBAL| CPUID                                                              1002
 GLOBAL| Compiled for CPUID                                                    0

 MEMORY| system memory details [Kb]
 MEMORY|                        rank 0           min           max       average
 MEMORY| MemTotal            131898148     131898148     131898148     131898148
 MEMORY| MemFree              81960136      81960136      81960136      81960136
 MEMORY| Buffers               3188440       3188440       3188440       3188440
 MEMORY| Cached               33746888      33746888      33746888      33746888
 MEMORY| Slab                  4007828       4007828       4007828       4007828
 MEMORY| SReclaimable          3294764       3294764       3294764       3294764
 MEMORY| MemLikelyFree       122190228     122190228     122190228     122190228


 GENERATE|  Preliminary Number of Bonds generated:                             0
 GENERATE|  Achieved consistency in connectivity generation.

 *******************************************************************************
 *******************************************************************************
 **                                                                           **
 **     #####                         ##              ##                      **
 **    ##   ##            ##          ##              ##                      **
 **   ##     ##                       ##            ######                    **
 **   ##     ##  ##   ##  ##   #####  ##  ##   ####   ##    #####    #####    **
 **   ##     ##  ##   ##  ##  ##      ## ##   ##      ##   ##   ##  ##   ##   **
 **   ##  ## ##  ##   ##  ##  ##      ####     ###    ##   ######   ######    **
 **    ##  ###   ##   ##  ##  ##      ## ##      ##   ##   ##       ##        **
 **     #######   #####   ##   #####  ##  ##  ####    ##    #####   ##        **
 **           ##                                                    ##        **
 **                                                                           **
 **                                                ... make the atoms dance   **
 **                                                                           **
 **            Copyright (C) by CP2K developers group (2000 - 2019)           **
 **                                                                           **
 *******************************************************************************


 TOTAL NUMBERS AND MAXIMUM NUMBERS

  Total number of            - Atomic kinds:                                   2
                             - Atoms:                                        192
                             - Shell sets:                                   384
                             - Shells:                                       704
                             - Primitive Cartesian functions:                960
                             - Cartesian basis functions:                   1536
                             - Spherical basis functions:                   1472

  Maximum angular momentum of- Orbital basis functions:                        2
                             - Local part of the GTH pseudopotential:          2
                             - Non-local part of the GTH pseudopotential:      0


 SCF PARAMETERS         Density guess:                                    ATOMIC
                        --------------------------------------------------------
                        max_scf:                                             300
                        max_scf_history:                                       0
                        max_diis:                                              4
                        --------------------------------------------------------
                        eps_scf:                                        1.00E-07
                        eps_scf_history:                                0.00E+00
                        eps_diis:                                       1.00E-01
                        eps_eigval:                                     1.00E-05
                        --------------------------------------------------------
                        level_shift [a.u.]:                                 0.00
                        --------------------------------------------------------
                        Mixing method:                            BROYDEN_MIXING
                                                charge density mixing in g-space
                        --------------------------------------------------------
                        No outer SCF

 Number of electrons:                                                        512
 Number of occupied orbitals:                                                256
 Number of molecular orbitals:                                               256

 Number of orbital functions:                                               1472
 Number of independent orbital functions:                                   1472

 Extrapolation method: initial_guess


 SCF WAVEFUNCTION OPTIMIZATION

  Step     Update method      Time    Convergence         Total energy    Change
  ------------------------------------------------------------------------------
     1 NoMix/Diag. 0.40E+00   11.7     1.03008510     -1087.4396155264 -1.09E+03
     2 Broy./Diag. 0.40E+00   17.9     0.29603506     -1012.4960508778  7.49E+01
     3 Broy./Diag. 0.40E+00   18.8     0.02747990     -1094.3577748245 -8.19E+01
     4 Broy./Diag. 0.40E+00   19.4     0.02714476     -1094.2882904221  6.95E-02
     5 Broy./Diag. 0.40E+00   20.0     0.00248993     -1095.2208726394 -9.33E-01
     6 Broy./Diag. 0.40E+00   20.1     0.00457492     -1095.2610945758 -4.02E-02
     7 Broy./Diag. 0.40E+00   20.3     0.00271607     -1095.4187791383 -1.58E-01
     8 Broy./Diag. 0.40E+00   23.8     0.00388797     -1095.5425422991 -1.24E-01
     9 Broy./Diag. 0.40E+00   24.7     0.00330958     -1095.6157503230 -7.32E-02
    10 Broy./Diag. 0.40E+00   26.0     0.00158574     -1095.6454897765 -2.97E-02
    11 Broy./Diag. 0.40E+00   26.8     0.00148983     -1095.6159956760  2.95E-02
    12 Broy./Diag. 0.40E+00   25.4     0.00085994     -1095.6269666378 -1.10E-02
    13 Broy./Diag. 0.40E+00   25.7     0.00088485     -1095.6466479208 -1.97E-02
    14 Broy./Diag. 0.40E+00   26.7     0.00029675     -1095.6480237086 -1.38E-03
    15 Broy./Diag. 0.40E+00   25.9     0.00020350     -1095.6433023606  4.72E-03
    16 Broy./Diag. 0.40E+00   25.8     0.00017068     -1095.6441148511 -8.12E-04
    17 Broy./Diag. 0.40E+00   26.4     0.00006821     -1095.6455298029 -1.41E-03
    18 Broy./Diag. 0.40E+00   26.3     0.00004029     -1095.6460429283 -5.13E-04
    19 Broy./Diag. 0.40E+00   25.4     0.00001972     -1095.6459069887  1.36E-04
    20 Broy./Diag. 0.40E+00   25.8     0.00001356     -1095.6453461992  5.61E-04
    21 Broy./Diag. 0.40E+00   25.9     0.00000979     -1095.6454502474 -1.04E-04
    22 Broy./Diag. 0.40E+00   25.8     0.00000329     -1095.6455642445 -1.14E-04
    23 Broy./Diag. 0.40E+00   26.3     0.00000564     -1095.6455754913 -1.12E-05
    24 Broy./Diag. 0.40E+00   25.6     0.00000246     -1095.6455099533  6.55E-05
    25 Broy./Diag. 0.40E+00   25.7     0.00000180     -1095.6454705674  3.94E-05
    26 Broy./Diag. 0.40E+00   25.6     0.00000167     -1095.6455024519 -3.19E-05
    27 Broy./Diag. 0.40E+00   25.5     0.00000094     -1095.6455153189 -1.29E-05
    28 Broy./Diag. 0.40E+00   25.6     0.00000076     -1095.6455102983  5.02E-06
    29 Broy./Diag. 0.40E+00   26.0     0.00000028     -1095.6454965051  1.38E-05
    30 Broy./Diag. 0.40E+00   25.6     0.00000015     -1095.6454947178  1.79E-06
    31 Broy./Diag. 0.40E+00   25.8     0.00000019     -1095.6454978892 -3.17E-06
    32 Broy./Diag. 0.40E+00   26.0     0.00000009     -1095.6454991541 -1.26E-06

  *** SCF run converged in    32 steps ***


  Electronic density on regular grids:       -512.0007839155       -0.0007839155
  Core density on regular grids:              511.9999065567       -0.0000934433
  Total charge density on r-space grids:       -0.0008773588
  Total charge density g-space grids:          -0.0008773588

  Overlap energy of the core charge distribution:               0.00000556635776
  Self energy of the core charge distribution:              -2838.21791979120962
  Core Hamiltonian energy:                                    822.41041308525587
  Hartree energy:                                            1185.15887565696039
  Exchange-correlation energy:                               -264.99687367142332

  Total energy:                                             -1095.64549915405905

 ENERGY| Total FORCE_EVAL ( QS ) energy (a.u.):            -1095.645498873341239


 ATOMIC FORCES in [a.u.]

 # Atom   Kind   Element          X              Y              Z
      1      1      O           0.03299405    -0.08150041     0.00194002
      2      2      H           0.01260012     0.01171938    -0.01147465
      3      2      H          -0.00112786     0.01023778     0.02486090
      4      1      O           0.02427236    -0.03488957     0.05152728
      5      2      H           0.01277512    -0.00856287     0.02087544
      6      2      H           0.00439338    -0.04444747    -0.01689601
      7      1      O           0.05456422    -0.02531490     0.11806459
      8      2      H          -0.03603908    -0.04377397    -0.01667348
      9      2      H          -0.00120129     0.01222869    -0.08509518
     10      1      O          -0.04144386     0.01461513    -0.05951900
     11      2      H           0.00820295    -0.02304959     0.02134593
     12      2      H           0.00007429    -0.03112157    -0.01917316
     13      1      O           0.00297553    -0.04382220    -0.07600122
     14      2      H          -0.00251940     0.00896919    -0.02253351
     15      2      H           0.01584801    -0.01714259     0.03398264
     16      1      O          -0.02443135    -0.00299024    -0.04852992
     17      2      H           0.02642843    -0.03412636     0.04947228
     18      2      H          -0.01035242    -0.01179439     0.04292474
     19      1      O           0.02878025    -0.09823484    -0.12219076
     20      2      H           0.01201177     0.05289177     0.03057040
     21      2      H          -0.05355199    -0.00995576     0.00805318
     22      1      O          -0.03678479     0.02397297    -0.04788595
     23      2      H           0.01396354    -0.02678900     0.02778113
     24      2      H           0.00409562     0.01315586    -0.01724357
     25      1      O           0.05295750     0.00744855     0.06163279
     26      2      H           0.01449173    -0.00319856    -0.05370614
     27      2      H          -0.03228947     0.05690736    -0.02218684
     28      1      O          -0.07950444     0.03562886    -0.13255540
     29      2      H           0.06403251    -0.04706200     0.02831606
     30      2      H          -0.01151525     0.03419122     0.02034211
     31      1      O           0.03458552    -0.02969385    -0.11995154
     32      2      H          -0.00469195    -0.01722842    -0.00277440
     33      2      H          -0.03408597     0.01148293     0.05067792
     34      1      O           0.02919515     0.03611109    -0.09329225
     35      2      H          -0.00947451     0.01560280     0.04056048
     36      2      H          -0.01901882     0.01839429     0.05248874
     37      1      O           0.03575744    -0.03467870    -0.02264277
     38      2      H           0.00246831    -0.03114667     0.02617119
     39      2      H          -0.01539303     0.01899756     0.02161455
     40      1      O          -0.00680214    -0.04229467    -0.03826153
     41      2      H           0.01438074    -0.03305284     0.02738177
     42      2      H           0.02181253     0.01457757    -0.03463453
     43      1      O          -0.02127346    -0.05365401    -0.07886619
     44      2      H           0.00992952    -0.01012571    -0.03274008
     45      2      H           0.01128536    -0.01098303    -0.02871822
     46      1      O          -0.04200481     0.08316442     0.00660426
     47      2      H           0.03355892     0.00928620     0.06073383
     48      2      H           0.00012311    -0.05287005    -0.01987681
     49      1      O          -0.06492523    -0.02838337     0.03726753
     50      2      H           0.03428501    -0.03578680     0.01032736
     51      2      H           0.02092125     0.01372318     0.01169356
     52      1      O          -0.00491742     0.07672312    -0.00075033
     53      2      H          -0.00813768    -0.02913261     0.01337824
     54      2      H          -0.02059782    -0.01919623    -0.01011898
     55      1      O           0.07041863     0.07567649    -0.12187471
     56      2      H          -0.00615841     0.01404656    -0.00872985
     57      2      H          -0.04009387    -0.02224105    -0.00818965
     58      1      O           0.07303978     0.04008005     0.13164227
     59      2      H          -0.02330522     0.01678648    -0.03022760
     60      2      H          -0.00433359    -0.01640062    -0.04020741
     61      1      O           0.03634501     0.09084560     0.09914608
     62      2      H          -0.01037248     0.00461299    -0.03979038
     63      2      H           0.00962788    -0.00228435     0.02080916
     64      1      O           0.01446756    -0.09124582     0.08210530
     65      2      H           0.02069032     0.02470742    -0.05138306
     66      2      H          -0.06168321    -0.00812477    -0.03533121
     67      1      O          -0.00753129     0.02882950    -0.09834337
     68      2      H          -0.02759513     0.06870240     0.11444131
     69      2      H           0.06480157    -0.04113896    -0.02679075
     70      1      O          -0.02672189     0.02927692    -0.07945736
     71      2      H          -0.01948312    -0.00336834    -0.06239236
     72      2      H           0.01193882     0.03432872     0.04738339
     73      1      O           0.02671314    -0.00513536     0.06951538
     74      2      H          -0.02715185    -0.03864660     0.04600825
     75      2      H          -0.00916087     0.01015487     0.01363212
     76      1      O           0.06115472     0.02777494    -0.05420571
     77      2      H           0.01678086    -0.01346664     0.01226350
     78      2      H          -0.06499577    -0.01181209    -0.00215718
     79      1      O          -0.01276624    -0.07194728     0.03075456
     80      2      H          -0.00944230    -0.02523649    -0.04156938
     81      2      H          -0.00006049     0.01982010    -0.03445229
     82      1      O           0.00955244    -0.01860459    -0.01472368
     83      2      H          -0.00446781    -0.04082979    -0.02077080
     84      2      H           0.01806650     0.00001188     0.01834160
     85      1      O           0.03757576     0.01276637     0.13254984
     86      2      H           0.02564100     0.03708356    -0.05235351
     87      2      H          -0.01406122     0.02644622    -0.01529419
     88      1      O           0.00332072    -0.02297767     0.02773287
     89      2      H          -0.01250377     0.02424477     0.03572045
     90      2      H           0.00976816     0.03623900     0.02672152
     91      1      O           0.01006570     0.08828422    -0.00673790
     92      2      H          -0.00050607    -0.00398346     0.02287498
     93      2      H          -0.01150753    -0.01798942    -0.03670535
     94      1      O          -0.03339277    -0.02488154     0.07092636
     95      2      H           0.00911823     0.02850085     0.02258280
     96      2      H           0.01534178    -0.03905999     0.01452453
     97      1      O          -0.02534736     0.01767279     0.12646081
     98      2      H          -0.00868394     0.03564027     0.01020903
     99      2      H           0.00498589     0.02029367    -0.05784437
    100      1      O          -0.02140227     0.09895094     0.00749874
    101      2      H           0.03584309    -0.01991469    -0.01600524
    102      2      H          -0.01117811    -0.01868733    -0.02629995
    103      1      O          -0.03991582    -0.04907545     0.12220717
    104      2      H          -0.00104832     0.00877634    -0.05552871
    105      2      H           0.01567486    -0.02148313     0.01139635
    106      1      O           0.03092702    -0.11067749     0.00290542
    107      2      H           0.00593929     0.05985836     0.03976753
    108      2      H           0.00179757     0.00390796    -0.00971961
    109      1      O          -0.06124735    -0.05930155    -0.01526960
    110      2      H           0.00568065    -0.04676067     0.06799819
    111      2      H           0.06848239     0.05501328    -0.05315271
    112      1      O          -0.03511800     0.00434609     0.06416245
    113      2      H           0.00223489    -0.04060716     0.01886881
    114      2      H           0.02477887     0.01034658     0.02549526
    115      1      O           0.03478741     0.03393572     0.13545998
    116      2      H          -0.05041156    -0.03409018    -0.00862443
    117      2      H           0.01721429     0.00327176    -0.01237607
    118      1      O          -0.06622975     0.07626259    -0.11410885
    119      2      H           0.00497282    -0.01119130     0.02727082
    120      2      H           0.01015512     0.00393433     0.04979367
    121      1      O          -0.01587985     0.04199277     0.02186725
    122      2      H          -0.00920696    -0.10290755    -0.03529584
    123      2      H          -0.00176422    -0.02395101     0.01553349
    124      1      O           0.00278507    -0.04132743    -0.11000195
    125      2      H          -0.04356794     0.00547101    -0.00120588
    126      2      H           0.03288360    -0.00304835     0.05566783
    127      1      O          -0.01742391    -0.01439240    -0.01090872
    128      2      H           0.01567153    -0.04469072     0.02165186
    129      2      H          -0.01825960    -0.02375211     0.02733282
    130      1      O           0.00336700     0.08601921    -0.01869067
    131      2      H           0.00390265    -0.05128028    -0.06229083
    132      2      H          -0.01579874     0.01474285    -0.02800150
    133      1      O          -0.05893283     0.00093897     0.09961074
    134      2      H          -0.01558951     0.01923212    -0.01777299
    135      2      H           0.02118749    -0.08937223     0.04854991
    136      1      O          -0.06360843     0.01926537    -0.01514836
    137      2      H           0.04550186     0.07211680     0.06929879
    138      2      H           0.03032884    -0.03660596    -0.02190261
    139      1      O          -0.02754061    -0.12152646    -0.07339166
    140      2      H           0.03581790     0.06809625    -0.00152752
    141      2      H          -0.01442926     0.01762141    -0.00435286
    142      1      O          -0.06764363    -0.01131319     0.00590704
    143      2      H           0.00687614    -0.03026127    -0.04156385
    144      2      H           0.04897013    -0.03903244    -0.01659591
    145      1      O           0.02250916     0.05181999    -0.05415237
    146      2      H          -0.00853574     0.00938922     0.00609613
    147      2      H           0.02905307    -0.02510941     0.02332244
    148      1      O          -0.01327260    -0.12734983    -0.05581536
    149      2      H           0.00626059    -0.02840803    -0.00063050
    150      2      H           0.04875109     0.08134380     0.00525524
    151      1      O          -0.00718661     0.06859737     0.11513815
    152      2      H          -0.00787007    -0.03058629    -0.00792792
    153      2      H          -0.01037225     0.03198113    -0.01550840
    154      1      O          -0.00845157    -0.03947911    -0.03390590
    155      2      H          -0.04743315    -0.01388288    -0.00172276
    156      2      H           0.01645854    -0.00450881     0.00159546
    157      1      O          -0.01456197     0.01189653     0.03541884
    158      2      H           0.07507513    -0.04236502     0.03457227
    159      2      H          -0.05977548    -0.02472196    -0.01198190
    160      1      O           0.07013124     0.05946849    -0.08184022
    161      2      H          -0.00719137    -0.04975150     0.04438309
    162      2      H          -0.05676160    -0.02431976    -0.02266791
    163      1      O           0.11941533    -0.02079311    -0.06464770
    164      2      H          -0.09706525    -0.02075852    -0.01520608
    165      2      H          -0.00722386    -0.02910670     0.03305914
    166      1      O          -0.05782519     0.01675509     0.03498052
    167      2      H           0.00608773    -0.06386276     0.01743688
    168      2      H           0.00771577     0.01022349     0.02365132
    169      1      O           0.00250090    -0.06951976     0.01736101
    170      2      H           0.00822133     0.03443236    -0.10247992
    171      2      H          -0.00296549    -0.00059897     0.04072089
    172      1      O          -0.03281540    -0.05523993     0.03898612
    173      2      H          -0.03281129     0.04468750    -0.00987786
    174      2      H           0.02611296    -0.00926011    -0.04530810
    175      1      O          -0.06759486     0.05060539    -0.04553087
    176      2      H           0.03418572    -0.01077102     0.01465937
    177      2      H           0.00655312     0.04687732    -0.03711432
    178      1      O           0.09116824    -0.00001782     0.05721232
    179      2      H          -0.08770722    -0.02932495     0.01225566
    180      2      H           0.01986146     0.05346802    -0.05977184
    181      1      O           0.00861045    -0.07859145    -0.05042100
    182      2      H          -0.01832123    -0.02246409     0.04146219
    183      2      H           0.01436074    -0.00647174     0.01511671
    184      1      O          -0.11940306    -0.07599528     0.02108787
    185      2      H           0.05611325     0.04525154    -0.01591662
    186      2      H           0.01629034    -0.04221160     0.02989899
    187      1      O          -0.03531954     0.01463213    -0.04083568
    188      2      H           0.01339779    -0.06035276     0.05699020
    189      2      H           0.00181473    -0.01170614     0.04354592
    190      1      O          -0.06425818    -0.03533263    -0.05619654
    191      2      H          -0.00303632     0.00567397    -0.02196977
    192      2      H           0.03496846    -0.04154339     0.08444185
 SUM OF ATOMIC FORCES          -0.14278991    -0.94097312     0.06883745     0.95423161

 -------------------------------------------------------------------------------
 -                                                                             -
 -                                DBCSR STATISTICS                             -
 -                                                                             -
 -------------------------------------------------------------------------------
 COUNTER                                    TOTAL       BLAS       SMM       ACC
 flops     5 x     5 x   256            769190400       0.0%    100.0%      0.0%
 flops     5 x    13 x   256            976335360       0.0%    100.0%      0.0%
 flops    13 x     5 x   256            976335360       0.0%    100.0%      0.0%
 flops    13 x    13 x   256           1362037248       0.0%    100.0%      0.0%
 flops inhomo. stacks                           0       0.0%      0.0%      0.0%
 flops total                         4.083898E+09       0.0%    100.0%      0.0%
 flops max/rank                      4.083898E+09       0.0%    100.0%      0.0%
 matmuls inhomo. stacks                         0       0.0%      0.0%      0.0%
 matmuls total                             134508       0.0%    100.0%      0.0%
 number of processed stacks                  2574       0.0%    100.0%      0.0%
 average stack size                                     0.0      52.3       0.0
 marketing flops                    36.609982E+09
 -------------------------------------------------------------------------------
 # multiplications                             33
 max memory usage/rank              25.806057E+09
 # max total images/rank                        1
 # max 3D layers                                1
 # MPI messages exchanged                       0
 MPI messages size (bytes):
  total size                         0.000000E+00
  min size                           0.000000E+00
  max size                           0.000000E+00
  average size                       0.000000E+00
 MPI breakdown and total messages size (bytes):
             size <=      128                   0                        0
       128 < size <=     8192                   0                        0
      8192 < size <=    32768                   0                        0
     32768 < size <=   131072                   0                        0
    131072 < size <=  4194304                   0                        0
   4194304 < size <= 16777216                   0                        0
  16777216 < size                               0                        0
 -------------------------------------------------------------------------------

 MEMORY| Estimated peak process memory [MiB]                               24612

 -------------------------------------------------------------------------------
 -                                                                             -
 -                           R E F E R E N C E S                               -
 -                                                                             -
 -------------------------------------------------------------------------------
 
 CP2K version 7.1, the CP2K developers group (2019).
 CP2K is freely available from https://www.cp2k.org/ .

 Schuett, Ole; Messmer, Peter; Hutter, Juerg; VandeVondele, Joost. 
 Electronic Structure Calculations on Graphics Processing Units, John
 Wiley & Sons, Ltd, 173-190 (2016). 
 GPU-Accelerated Sparse Matrix-Matrix Multiplication for
 Linear Scaling Density Functional Theory.
 https://dx.doi.org/10.1002/9781118670712.ch8

 Borstnik, U; VandeVondele, J; Weber, V; Hutter, J. 
 PARALLEL COMPUTING, 40 (5-6), 47-58 (2014). 
 Sparse matrix multiplication: The distributed block-compressed sparse
 row library.
 https://dx.doi.org/10.1016/j.parco.2014.03.012

 Hutter, J; Iannuzzi, M; Schiffmann, F; VandeVondele, J. 
 WIREs Comput Mol Sci., 4 (1), 15-25 (2014). 
 CP2K: atomistic simulations of condensed matter systems.
 https://dx.doi.org/10.1002/wcms.1159

 Krack, M. 
 THEORETICAL CHEMISTRY ACCOUNTS, 114 (1-3), 145-152 (2005). 
 Pseudopotentials for H to Kr optimized for gradient-corrected
 exchange-correlation functionals.
 https://dx.doi.org/10.1007/s00214-005-0655-y

 VandeVondele, J; Krack, M; Mohamed, F; Parrinello, M; Chassaing, T;
 Hutter, J. COMPUTER PHYSICS COMMUNICATIONS, 167 (2), 103-128 (2005). 
 QUICKSTEP: Fast and accurate density functional calculations using a
 mixed Gaussian and plane waves approach.
 https://dx.doi.org/10.1016/j.cpc.2004.12.014

 Frigo, M; Johnson, SG. 
 PROCEEDINGS OF THE IEEE, 93 (2), 216-231 (2005). 
 The design and implementation of FFTW3.
 https://dx.doi.org/10.1109/JPROC.2004.840301

 Hartwigsen, C; Goedecker, S; Hutter, J. 
 PHYSICAL REVIEW B, 58 (7), 3641-3662 (1998). 
 Relativistic separable dual-space Gaussian pseudopotentials from H to Rn.
 https://dx.doi.org/10.1103/PhysRevB.58.3641

 Lippert, G; Hutter, J; Parrinello, M. 
 MOLECULAR PHYSICS, 92 (3), 477-487 (1997). 
 A hybrid Gaussian and plane wave density functional scheme.
 https://dx.doi.org/10.1080/002689797170220

 Goedecker, S; Teter, M; Hutter, J. 
 PHYSICAL REVIEW B, 54 (3), 1703-1710 (1996). 
 Separable dual-space Gaussian pseudopotentials.
 https://dx.doi.org/10.1103/PhysRevB.54.1703


 -------------------------------------------------------------------------------
 -                                                                             -
 -                                T I M I N G                                  -
 -                                                                             -
 -------------------------------------------------------------------------------
 SUBROUTINE                       CALLS  ASD         SELF TIME        TOTAL TIME
                                MAXIMUM       AVERAGE  MAXIMUM  AVERAGE  MAXIMUM
 CP2K                                 1  1.0    0.769    0.769  805.157  805.157
 qs_forces                            1  2.0    0.000    0.000  792.965  792.965
 qs_energies                          1  3.0    0.000    0.000  788.483  788.483
 scf_env_do_scf                       1  4.0    0.000    0.000  775.824  775.824
 scf_env_do_scf_inner_loop           32  5.0    0.005    0.005  775.824  775.824
 gspace_mixing                       31  6.0    4.590    4.590  301.949  301.949
 broyden_mixing                      31  7.0  266.892  266.892  266.892  266.892
 qs_scf_new_mos                      32  6.0    0.001    0.001  212.428  212.428
 eigensolver                         32  7.0    0.004    0.004  207.679  207.679
 pw_transfer                        428  9.9    0.042    0.042  159.476  159.476
 fft_wrap_pw1pw2                    362 10.9    0.005    0.005  155.203  155.203
 rebuild_ks_matrix                   33  6.9    0.000    0.000  149.966  149.966
 qs_ks_build_kohn_sham_matrix        33  7.9    0.009    0.009  149.966  149.966
 qs_ks_update_qs_env                 32  6.0    0.000    0.000  145.659  145.659
 fft_wrap_pw1pw2_70                 164 11.2   12.724   12.724  142.230  142.230
 cp_fm_syevd                         32  8.0  140.780  140.780  140.943  140.943
 qs_rho_update_rho                   33  6.0    0.000    0.000  119.065  119.065
 calculate_rho_elec                  33  7.0   42.550   42.550  119.065  119.065
 fft3d_s                            363 12.8   77.570   77.570   77.582   77.582
 density_rs2pw                       33  8.0    0.003    0.003   75.278   75.278
 cp_fm_cholesky_restore              96  8.0   66.596   66.596   66.596   66.596
 pw_scatter_s                       196 13.1   49.506   49.506   49.506   49.506
 pw_poisson_solve                    33  8.9   40.684   40.684   45.233   45.233
 sum_up_and_integrate                33  8.9    2.453    2.453   43.911   43.911
 integrate_v_rspace                  33  9.9    2.272    2.272   41.457   41.457
 potential_pw2rs                     33 10.9    0.326    0.326   39.141   39.141
 qs_vxc_create                       33  8.9    0.001    0.001   22.018   22.018
 xc_vxc_pw_create                    33  9.9    4.960    4.960   22.017   22.017
 xc_rho_set_and_dset_create          33 10.9    0.001    0.001   17.057   17.057
 -------------------------------------------------------------------------------

 The number of warnings for this run is : 0
 
 -------------------------------------------------------------------------------
  **** **** ******  **  PROGRAM ENDED AT                 2020-05-21 22:05:37.722
 ***** ** ***  *** **   PROGRAM RAN ON                                   gnode39
 **    ****   ******    PROGRAM RAN BY                               mayank.modi
 ***** **    ** ** **   PROGRAM PROCESS ID                                 31801
  **** **  *******  **  PROGRAM STOPPED IN /home/mayank.modi/ab-initio-thermodyn
                                           amics-of-water/mayank/cp2k_energy_cal
                                           culations
