 DBCSR| CPU Multiplication driver                                           XSMM
 DBCSR| Multrec recursion limit                                              512
 DBCSR| Multiplication stack size                                           1000
 DBCSR| Maximum elements for images                                    UNLIMITED
 DBCSR| Multiplicative factor virtual images                                   1
 DBCSR| Use multiplication densification                                       T
 DBCSR| Multiplication size stacks                                             3


  **** **** ******  **  PROGRAM STARTED AT               2020-05-21 12:11:47.891
 ***** ** ***  *** **   PROGRAM STARTED ON                               gnode39
 **    ****   ******    PROGRAM STARTED BY                           mayank.modi
 ***** **    ** ** **   PROGRAM PROCESS ID                                 16933
  **** **  *******  **  PROGRAM STARTED IN /home/mayank.modi/ab-initio-thermodyn
                                           amics-of-water/mayank/cp2k_energy_cal
                                           culations

 CP2K| version string:                                          CP2K version 7.1
 CP2K| source code revision number:                                  git:e635599
 CP2K| cp2kflags: omp libint fftw3 libxc xsmm spglib                            
 CP2K| is freely available from                            https://www.cp2k.org/
 CP2K| Program compiled at                          Mon Dec 23 19:23:12 CET 2019
 CP2K| Program compiled on                                                pc9404
 CP2K| Program compiled for                                Linux-x86-64-gfortran
 CP2K| Data directory path                                        /opt/cp2k/data
 CP2K| Input file name                                              ./input88.in

 GLOBAL| Force Environment number                                              1
 GLOBAL| Basis set file name                                           BASIS_SET
 GLOBAL| Potential file name                                      GTH_POTENTIALS
 GLOBAL| MM Potential file name                                     MM_POTENTIAL
 GLOBAL| Coordinate file name                                      __STD_INPUT__
 GLOBAL| Method name                                                        CP2K
 GLOBAL| Project name                                                   H2O_bulk
 GLOBAL| Preferred FFT library                                             FFTW3
 GLOBAL| Preferred diagonalization lib.                                       SL
 GLOBAL| Run type                                                   ENERGY_FORCE
 GLOBAL| All-to-all communication in single precision                          F
 GLOBAL| FFTs using library dependent lengths                                  F
 GLOBAL| Global print level                                                  LOW
 GLOBAL| MPI I/O enabled                                                       T
 GLOBAL| Total number of message passing processes                             1
 GLOBAL| Number of threads for this process                                   20
 GLOBAL| This output is from process                                           0
 GLOBAL| CPU model name                Intel(R) Xeon(R) CPU E5-2640 v4 @ 2.40GHz
 GLOBAL| CPUID                                                              1002
 GLOBAL| Compiled for CPUID                                                    0

 MEMORY| system memory details [Kb]
 MEMORY|                        rank 0           min           max       average
 MEMORY| MemTotal            131898148     131898148     131898148     131898148
 MEMORY| MemFree              88693384      88693384      88693384      88693384
 MEMORY| Buffers               3187120       3187120       3187120       3187120
 MEMORY| Cached               34125624      34125624      34125624      34125624
 MEMORY| Slab                  3929680       3929680       3929680       3929680
 MEMORY| SReclaimable          3268492       3268492       3268492       3268492
 MEMORY| MemLikelyFree       129274620     129274620     129274620     129274620


 GENERATE|  Preliminary Number of Bonds generated:                             0
 GENERATE|  Achieved consistency in connectivity generation.

 *******************************************************************************
 *******************************************************************************
 **                                                                           **
 **     #####                         ##              ##                      **
 **    ##   ##            ##          ##              ##                      **
 **   ##     ##                       ##            ######                    **
 **   ##     ##  ##   ##  ##   #####  ##  ##   ####   ##    #####    #####    **
 **   ##     ##  ##   ##  ##  ##      ## ##   ##      ##   ##   ##  ##   ##   **
 **   ##  ## ##  ##   ##  ##  ##      ####     ###    ##   ######   ######    **
 **    ##  ###   ##   ##  ##  ##      ## ##      ##   ##   ##       ##        **
 **     #######   #####   ##   #####  ##  ##  ####    ##    #####   ##        **
 **           ##                                                    ##        **
 **                                                                           **
 **                                                ... make the atoms dance   **
 **                                                                           **
 **            Copyright (C) by CP2K developers group (2000 - 2019)           **
 **                                                                           **
 *******************************************************************************


 TOTAL NUMBERS AND MAXIMUM NUMBERS

  Total number of            - Atomic kinds:                                   2
                             - Atoms:                                        192
                             - Shell sets:                                   384
                             - Shells:                                       704
                             - Primitive Cartesian functions:                960
                             - Cartesian basis functions:                   1536
                             - Spherical basis functions:                   1472

  Maximum angular momentum of- Orbital basis functions:                        2
                             - Local part of the GTH pseudopotential:          2
                             - Non-local part of the GTH pseudopotential:      0


 SCF PARAMETERS         Density guess:                                    ATOMIC
                        --------------------------------------------------------
                        max_scf:                                             300
                        max_scf_history:                                       0
                        max_diis:                                              4
                        --------------------------------------------------------
                        eps_scf:                                        1.00E-07
                        eps_scf_history:                                0.00E+00
                        eps_diis:                                       1.00E-01
                        eps_eigval:                                     1.00E-05
                        --------------------------------------------------------
                        level_shift [a.u.]:                                 0.00
                        --------------------------------------------------------
                        Mixing method:                            BROYDEN_MIXING
                                                charge density mixing in g-space
                        --------------------------------------------------------
                        No outer SCF

 Number of electrons:                                                        512
 Number of occupied orbitals:                                                256
 Number of molecular orbitals:                                               256

 Number of orbital functions:                                               1472
 Number of independent orbital functions:                                   1472

 Extrapolation method: initial_guess


 SCF WAVEFUNCTION OPTIMIZATION

  Step     Update method      Time    Convergence         Total energy    Change
  ------------------------------------------------------------------------------
     1 NoMix/Diag. 0.40E+00   10.9     0.99356537     -1087.5276074019 -1.09E+03
     2 Broy./Diag. 0.40E+00   16.6     0.30156847     -1013.1909076876  7.43E+01
     3 Broy./Diag. 0.40E+00   17.8     0.03231227     -1094.5336935497 -8.13E+01
     4 Broy./Diag. 0.40E+00   18.6     0.02851937     -1094.3352665611  1.98E-01
     5 Broy./Diag. 0.40E+00   19.2     0.00271972     -1095.2639478159 -9.29E-01
     6 Broy./Diag. 0.40E+00   20.1     0.00520229     -1095.3040374064 -4.01E-02
     7 Broy./Diag. 0.40E+00   20.7     0.00277860     -1095.4516335406 -1.48E-01
     8 Broy./Diag. 0.40E+00   22.5     0.00347551     -1095.5813604832 -1.30E-01
     9 Broy./Diag. 0.40E+00   23.3     0.00320826     -1095.6473244329 -6.60E-02
    10 Broy./Diag. 0.40E+00   24.7     0.00146722     -1095.6732475951 -2.59E-02
    11 Broy./Diag. 0.40E+00   24.6     0.00105031     -1095.6443717629  2.89E-02
    12 Broy./Diag. 0.40E+00   25.3     0.00054128     -1095.6530995637 -8.73E-03
    13 Broy./Diag. 0.40E+00   24.3     0.00064619     -1095.6726694944 -1.96E-02
    14 Broy./Diag. 0.40E+00   24.5     0.00034899     -1095.6763393796 -3.67E-03
    15 Broy./Diag. 0.40E+00   25.4     0.00031179     -1095.6707743220  5.57E-03
    16 Broy./Diag. 0.40E+00   25.0     0.00014597     -1095.6718308934 -1.06E-03
    17 Broy./Diag. 0.40E+00   25.0     0.00005993     -1095.6730427601 -1.21E-03
    18 Broy./Diag. 0.40E+00   24.7     0.00003471     -1095.6726764288  3.66E-04
    19 Broy./Diag. 0.40E+00   24.8     0.00002004     -1095.6724155881  2.61E-04
    20 Broy./Diag. 0.40E+00   25.0     0.00001613     -1095.6722312537  1.84E-04
    21 Broy./Diag. 0.40E+00   24.5     0.00001075     -1095.6726618185 -4.31E-04
    22 Broy./Diag. 0.40E+00   24.4     0.00000554     -1095.6729079357 -2.46E-04
    23 Broy./Diag. 0.40E+00   24.1     0.00000714     -1095.6728973124  1.06E-05
    24 Broy./Diag. 0.40E+00   24.6     0.00000238     -1095.6728171859  8.01E-05
    25 Broy./Diag. 0.40E+00   25.1     0.00000347     -1095.6727854767  3.17E-05
    26 Broy./Diag. 0.40E+00   24.1     0.00000164     -1095.6727358893  4.96E-05
    27 Broy./Diag. 0.40E+00   24.5     0.00000079     -1095.6727279397  7.95E-06
    28 Broy./Diag. 0.40E+00   24.0     0.00000069     -1095.6727287948 -8.55E-07
    29 Broy./Diag. 0.40E+00   24.4     0.00000036     -1095.6727313043 -2.51E-06
    30 Broy./Diag. 0.40E+00   24.1     0.00000032     -1095.6727302936  1.01E-06
    31 Broy./Diag. 0.40E+00   23.8     0.00000023     -1095.6727266484  3.65E-06
    32 Broy./Diag. 0.40E+00   24.4     0.00000012     -1095.6727263547  2.94E-07
    33 Broy./Diag. 0.40E+00   23.6     0.00000015     -1095.6727274457 -1.09E-06
    34 Broy./Diag. 0.40E+00   23.5     0.00000006     -1095.6727283876 -9.42E-07

  *** SCF run converged in    34 steps ***


  Electronic density on regular grids:       -512.0009472496       -0.0009472496
  Core density on regular grids:              512.0003192062        0.0003192062
  Total charge density on r-space grids:       -0.0006280434
  Total charge density g-space grids:          -0.0006280434

  Overlap energy of the core charge distribution:               0.00000485344487
  Self energy of the core charge distribution:              -2838.21791979120962
  Core Hamiltonian energy:                                    821.92424795393163
  Hartree energy:                                            1185.50362139583899
  Exchange-correlation energy:                               -264.88268279962688

  Total energy:                                             -1095.67272838762119

 ENERGY| Total FORCE_EVAL ( QS ) energy (a.u.):            -1095.672728164249747


 ATOMIC FORCES in [a.u.]

 # Atom   Kind   Element          X              Y              Z
      1      1      O          -0.03811521    -0.12941622    -0.10726461
      2      2      H           0.01904653     0.03586407    -0.02654320
      3      2      H          -0.02274232     0.03409110     0.02121671
      4      1      O           0.05263773    -0.05418813     0.13316303
      5      2      H          -0.00230112     0.00939162    -0.00923347
      6      2      H          -0.03648851    -0.00283856    -0.06188833
      7      1      O           0.00776993     0.11633292    -0.08416096
      8      2      H          -0.00687220    -0.03990073     0.04295854
      9      2      H          -0.00675169     0.01524511    -0.04460936
     10      1      O          -0.03157595     0.10091448    -0.08396129
     11      2      H           0.01887201    -0.00697137     0.01516416
     12      2      H           0.02138844     0.00127251    -0.01854543
     13      1      O          -0.00202050     0.05546009     0.08785040
     14      2      H           0.01325601    -0.01016791    -0.01799038
     15      2      H          -0.02169189     0.00003221     0.04533192
     16      1      O           0.00331964    -0.00025847     0.07774708
     17      2      H          -0.01806262    -0.06045072    -0.00847988
     18      2      H           0.04456212    -0.03116113    -0.03017600
     19      1      O          -0.00543828    -0.04828736     0.01554611
     20      2      H          -0.00206173    -0.01363136    -0.03632887
     21      2      H           0.01546379    -0.02683778     0.01549774
     22      1      O          -0.03160605     0.03885283    -0.08294389
     23      2      H           0.05529165     0.01755665    -0.05533246
     24      2      H          -0.00011229     0.02749591    -0.03367799
     25      1      O          -0.04696498     0.03778177     0.02695081
     26      2      H           0.03424342     0.02458003     0.00001022
     27      2      H          -0.01458785    -0.10028518    -0.07988372
     28      1      O          -0.02453857    -0.02354872     0.03863499
     29      2      H          -0.00357741    -0.01803166    -0.02314607
     30      2      H           0.00433853    -0.01723457     0.04916385
     31      1      O          -0.06063477    -0.03114596     0.13702296
     32      2      H           0.00958844     0.02561986     0.01269133
     33      2      H           0.02069886    -0.04908956    -0.05604630
     34      1      O          -0.00431776    -0.06537854    -0.10957693
     35      2      H           0.01941594     0.02000487    -0.03885570
     36      2      H          -0.00374309     0.00590088    -0.04166997
     37      1      O          -0.02000474     0.09448398    -0.02047298
     38      2      H           0.01010924     0.02447420     0.02780227
     39      2      H          -0.02768726    -0.03195012    -0.02709082
     40      1      O          -0.03673532     0.02070568     0.03046451
     41      2      H          -0.00774424    -0.00220952    -0.00914163
     42      2      H           0.03353670     0.02577794    -0.01536850
     43      1      O           0.02725494     0.08124024    -0.10752789
     44      2      H          -0.03146115    -0.00154238     0.00410195
     45      2      H           0.01133474     0.00015628     0.00224535
     46      1      O           0.01742003     0.08795309     0.02798729
     47      2      H          -0.01189119     0.03265681     0.00627758
     48      2      H           0.00324107    -0.04676959     0.03173252
     49      1      O           0.02645376     0.13860584    -0.10788234
     50      2      H          -0.04541608    -0.04006613     0.05913331
     51      2      H           0.04853590    -0.01493294    -0.02585929
     52      1      O          -0.01573218    -0.04534013     0.12949200
     53      2      H          -0.02133859     0.00311090    -0.00355956
     54      2      H           0.00659374     0.05255070    -0.03151811
     55      1      O           0.03509861    -0.08104588    -0.12749378
     56      2      H           0.00567979     0.06924353     0.00537398
     57      2      H          -0.02360574     0.00148020     0.02557405
     58      1      O           0.02304584    -0.08113183     0.10240222
     59      2      H          -0.02549231     0.02137249     0.03020911
     60      2      H           0.01433945    -0.02027091    -0.04835332
     61      1      O          -0.05864828     0.09328394    -0.08641265
     62      2      H          -0.01440006    -0.02402550    -0.02627331
     63      2      H           0.01690920    -0.00605955     0.04961980
     64      1      O           0.04244468    -0.01335456    -0.09678591
     65      2      H           0.01962435     0.00990677    -0.02711632
     66      2      H          -0.05177225    -0.00418624    -0.00345203
     67      1      O          -0.01783225     0.07333885    -0.09506602
     68      2      H           0.00708847     0.04829387    -0.00103924
     69      2      H           0.04561890    -0.00464548    -0.00562874
     70      1      O          -0.02305469     0.05281515    -0.06077163
     71      2      H          -0.00204770     0.03425131     0.01109840
     72      2      H           0.02609597     0.00482852     0.02848546
     73      1      O          -0.02625324     0.13555143     0.06130231
     74      2      H           0.00401378    -0.07669506     0.07052669
     75      2      H          -0.00664844    -0.02225041    -0.01706857
     76      1      O           0.00822307     0.10371827     0.12058131
     77      2      H           0.00250715    -0.03993491     0.00136130
     78      2      H          -0.02340907     0.02650794    -0.01313059
     79      1      O          -0.03305327    -0.09631430     0.08227697
     80      2      H          -0.01093907     0.04803461     0.01394799
     81      2      H           0.00664842    -0.03206323     0.00557978
     82      1      O           0.02518266    -0.09190262    -0.09644426
     83      2      H          -0.04094551     0.02779657    -0.02577596
     84      2      H          -0.02292469     0.03730610    -0.01517646
     85      1      O          -0.05762507     0.04843558    -0.09277146
     86      2      H           0.02815408     0.01284476    -0.04654439
     87      2      H           0.01100796     0.00946231     0.04184723
     88      1      O          -0.01547677     0.09410541     0.13986451
     89      2      H           0.00977632    -0.06927005    -0.06036647
     90      2      H           0.01562536     0.03794389     0.00724137
     91      1      O           0.02409678    -0.01560039    -0.11873778
     92      2      H           0.00936682     0.02849809    -0.00199166
     93      2      H          -0.02526042    -0.03913409     0.01646897
     94      1      O          -0.04124406    -0.04094546     0.06764917
     95      2      H           0.01262183     0.02576699    -0.03641912
     96      2      H          -0.00772033    -0.02456173     0.00419925
     97      1      O          -0.00181340    -0.09375767     0.09183395
     98      2      H           0.02959447     0.04873265     0.01428697
     99      2      H           0.01801810     0.00449412    -0.02881725
    100      1      O           0.05275291     0.07828464     0.09845552
    101      2      H          -0.08855151     0.02128786     0.02660522
    102      2      H           0.00957717     0.00871100     0.02881346
    103      1      O           0.02059800    -0.02705220    -0.01431987
    104      2      H           0.01017989    -0.01949675     0.02340892
    105      2      H          -0.01132464    -0.03768570    -0.04050980
    106      1      O           0.00748171     0.01073852    -0.05860343
    107      2      H          -0.00909021    -0.01437885    -0.02388185
    108      2      H           0.01330671     0.01100086    -0.01126024
    109      1      O           0.00431941     0.09318563    -0.07786606
    110      2      H          -0.02202604    -0.04176400     0.00274255
    111      2      H           0.03584920     0.01143878    -0.05459702
    112      1      O          -0.01335447    -0.05548315     0.07184032
    113      2      H           0.00587549     0.00631850    -0.00260211
    114      2      H           0.05620250     0.00087232     0.03374046
    115      1      O           0.02143151    -0.05503867     0.06464016
    116      2      H          -0.01762424     0.00901511     0.01051823
    117      2      H          -0.00452175    -0.04708690     0.04702939
    118      1      O          -0.10443954     0.08362946    -0.10325633
    119      2      H           0.07423835     0.03142104     0.04101084
    120      2      H           0.01545468    -0.05468084    -0.05131441
    121      1      O          -0.01250740    -0.05486096     0.04653085
    122      2      H          -0.01310276     0.00585796    -0.01532449
    123      2      H          -0.01998850     0.01617527     0.02755718
    124      1      O           0.04902364     0.06595800    -0.14863018
    125      2      H          -0.04865840    -0.02401790     0.01090795
    126      2      H           0.02457015    -0.03823121    -0.01110512
    127      1      O          -0.00373651    -0.01528300     0.04554690
    128      2      H          -0.00999204     0.04430606    -0.00461615
    129      2      H           0.02283924    -0.04091183     0.00244872
    130      1      O           0.00010587    -0.02239273     0.14347630
    131      2      H           0.00177485     0.01965085    -0.03294034
    132      2      H           0.00787123    -0.01923154     0.01787329
    133      1      O          -0.05610499     0.08193319    -0.08773217
    134      2      H           0.00721514     0.01700905     0.00851830
    135      2      H           0.04492604    -0.05112392    -0.03019827
    136      1      O           0.00438798     0.01986618    -0.05425247
    137      2      H          -0.01874121    -0.06376905    -0.01526475
    138      2      H           0.01586987    -0.01761434    -0.02037195
    139      1      O           0.03319904     0.09563537     0.08358265
    140      2      H          -0.00807060     0.02535870    -0.03855163
    141      2      H          -0.00028973     0.00992721    -0.00619897
    142      1      O          -0.05578431    -0.04744316    -0.12505748
    143      2      H           0.01682492    -0.02259856     0.06220493
    144      2      H           0.01998416    -0.05029326    -0.01816747
    145      1      O           0.03174608    -0.09728116    -0.03528058
    146      2      H          -0.01387996     0.03164644    -0.02193918
    147      2      H           0.00868152     0.01053569     0.02368854
    148      1      O           0.01298490     0.05414160     0.11348646
    149      2      H           0.01764489     0.03563892    -0.00248894
    150      2      H           0.00047439    -0.04306630    -0.05471605
    151      1      O          -0.00151813    -0.05525191     0.08521391
    152      2      H          -0.00437724     0.01515656    -0.02655449
    153      2      H           0.00273299     0.00488329    -0.05489712
    154      1      O          -0.02731301    -0.02654164    -0.09603126
    155      2      H          -0.00766882    -0.04435497     0.05399516
    156      2      H           0.00438867    -0.04644279     0.03203473
    157      1      O          -0.04809267    -0.04704028     0.02738609
    158      2      H           0.01478741     0.00397609    -0.01911774
    159      2      H           0.00946252     0.00687094     0.02802789
    160      1      O          -0.01329520    -0.01954482     0.00340779
    161      2      H          -0.01027148    -0.05006999     0.00325385
    162      2      H           0.01326297     0.01521634    -0.02402780
    163      1      O          -0.03879254    -0.02159943    -0.03582515
    164      2      H           0.01549696    -0.00909123     0.00005521
    165      2      H          -0.00584530     0.01287155     0.02454277
    166      1      O          -0.03901804     0.01111869    -0.08615365
    167      2      H          -0.00466606     0.03312392     0.03949647
    168      2      H           0.02683232    -0.00811826    -0.04808942
    169      1      O           0.04492426    -0.06411605    -0.03765147
    170      2      H          -0.04691068    -0.00683673    -0.03841922
    171      2      H           0.01749604     0.06572358    -0.01855090
    172      1      O          -0.06300312     0.01377232     0.08030119
    173      2      H           0.02725474     0.02887356     0.05557025
    174      2      H           0.00199278     0.02549416    -0.00670728
    175      1      O          -0.03523593     0.02006338     0.17218377
    176      2      H           0.00000692     0.01970422     0.02791098
    177      2      H           0.01097687     0.00600035    -0.10586155
    178      1      O           0.02499895     0.08921251     0.07486351
    179      2      H          -0.00487199    -0.03828085    -0.05034154
    180      2      H          -0.01746791    -0.01540583    -0.01716826
    181      1      O           0.02146995    -0.03835974    -0.09474343
    182      2      H          -0.01609202     0.02143280    -0.05095726
    183      2      H           0.02168222     0.00672915     0.03981997
    184      1      O           0.00482246     0.01981718    -0.13340506
    185      2      H           0.02315550    -0.05099824    -0.01294199
    186      2      H          -0.06065646     0.02431112    -0.02872084
    187      1      O          -0.07594918    -0.08414378    -0.13972081
    188      2      H           0.02584212    -0.03374338    -0.04295553
    189      2      H           0.07590213     0.09432929     0.02825017
    190      1      O           0.00855094     0.03899390    -0.05587977
    191      2      H          -0.04242433     0.06349386     0.03223394
    192      2      H           0.00061207    -0.02600261    -0.01889552
 SUM OF ATOMIC FORCES          -0.21844258     0.33132573    -1.06194500     1.13367591

 -------------------------------------------------------------------------------
 -                                                                             -
 -                                DBCSR STATISTICS                             -
 -                                                                             -
 -------------------------------------------------------------------------------
 COUNTER                                    TOTAL       BLAS       SMM       ACC
 flops     5 x     5 x   256            910784000       0.0%    100.0%      0.0%
 flops     5 x    13 x   256           1151987200       0.0%    100.0%      0.0%
 flops    13 x     5 x   256           1151987200       0.0%    100.0%      0.0%
 flops    13 x    13 x   256           1574809600       0.0%    100.0%      0.0%
 flops inhomo. stacks                           0       0.0%      0.0%      0.0%
 flops total                         4.789568E+09       0.0%    100.0%      0.0%
 flops max/rank                      4.789568E+09       0.0%    100.0%      0.0%
 matmuls inhomo. stacks                         0       0.0%      0.0%      0.0%
 matmuls total                             158585       0.0%    100.0%      0.0%
 number of processed stacks                  2730       0.0%    100.0%      0.0%
 average stack size                                     0.0      58.1       0.0
 marketing flops                    38.828769E+09
 -------------------------------------------------------------------------------
 # multiplications                             35
 max memory usage/rank              25.807446E+09
 # max total images/rank                        1
 # max 3D layers                                1
 # MPI messages exchanged                       0
 MPI messages size (bytes):
  total size                         0.000000E+00
  min size                           0.000000E+00
  max size                           0.000000E+00
  average size                       0.000000E+00
 MPI breakdown and total messages size (bytes):
             size <=      128                   0                        0
       128 < size <=     8192                   0                        0
      8192 < size <=    32768                   0                        0
     32768 < size <=   131072                   0                        0
    131072 < size <=  4194304                   0                        0
   4194304 < size <= 16777216                   0                        0
  16777216 < size                               0                        0
 -------------------------------------------------------------------------------

 MEMORY| Estimated peak process memory [MiB]                               24614

 -------------------------------------------------------------------------------
 -                                                                             -
 -                           R E F E R E N C E S                               -
 -                                                                             -
 -------------------------------------------------------------------------------
 
 CP2K version 7.1, the CP2K developers group (2019).
 CP2K is freely available from https://www.cp2k.org/ .

 Schuett, Ole; Messmer, Peter; Hutter, Juerg; VandeVondele, Joost. 
 Electronic Structure Calculations on Graphics Processing Units, John
 Wiley & Sons, Ltd, 173-190 (2016). 
 GPU-Accelerated Sparse Matrix-Matrix Multiplication for
 Linear Scaling Density Functional Theory.
 https://dx.doi.org/10.1002/9781118670712.ch8

 Borstnik, U; VandeVondele, J; Weber, V; Hutter, J. 
 PARALLEL COMPUTING, 40 (5-6), 47-58 (2014). 
 Sparse matrix multiplication: The distributed block-compressed sparse
 row library.
 https://dx.doi.org/10.1016/j.parco.2014.03.012

 Hutter, J; Iannuzzi, M; Schiffmann, F; VandeVondele, J. 
 WIREs Comput Mol Sci., 4 (1), 15-25 (2014). 
 CP2K: atomistic simulations of condensed matter systems.
 https://dx.doi.org/10.1002/wcms.1159

 Krack, M. 
 THEORETICAL CHEMISTRY ACCOUNTS, 114 (1-3), 145-152 (2005). 
 Pseudopotentials for H to Kr optimized for gradient-corrected
 exchange-correlation functionals.
 https://dx.doi.org/10.1007/s00214-005-0655-y

 VandeVondele, J; Krack, M; Mohamed, F; Parrinello, M; Chassaing, T;
 Hutter, J. COMPUTER PHYSICS COMMUNICATIONS, 167 (2), 103-128 (2005). 
 QUICKSTEP: Fast and accurate density functional calculations using a
 mixed Gaussian and plane waves approach.
 https://dx.doi.org/10.1016/j.cpc.2004.12.014

 Frigo, M; Johnson, SG. 
 PROCEEDINGS OF THE IEEE, 93 (2), 216-231 (2005). 
 The design and implementation of FFTW3.
 https://dx.doi.org/10.1109/JPROC.2004.840301

 Hartwigsen, C; Goedecker, S; Hutter, J. 
 PHYSICAL REVIEW B, 58 (7), 3641-3662 (1998). 
 Relativistic separable dual-space Gaussian pseudopotentials from H to Rn.
 https://dx.doi.org/10.1103/PhysRevB.58.3641

 Lippert, G; Hutter, J; Parrinello, M. 
 MOLECULAR PHYSICS, 92 (3), 477-487 (1997). 
 A hybrid Gaussian and plane wave density functional scheme.
 https://dx.doi.org/10.1080/002689797170220

 Goedecker, S; Teter, M; Hutter, J. 
 PHYSICAL REVIEW B, 54 (3), 1703-1710 (1996). 
 Separable dual-space Gaussian pseudopotentials.
 https://dx.doi.org/10.1103/PhysRevB.54.1703


 -------------------------------------------------------------------------------
 -                                                                             -
 -                                T I M I N G                                  -
 -                                                                             -
 -------------------------------------------------------------------------------
 SUBROUTINE                       CALLS  ASD         SELF TIME        TOTAL TIME
                                MAXIMUM       AVERAGE  MAXIMUM  AVERAGE  MAXIMUM
 CP2K                                 1  1.0    0.704    0.704  813.361  813.361
 qs_forces                            1  2.0    0.000    0.000  802.556  802.556
 qs_energies                          1  3.0    0.000    0.000  798.972  798.972
 scf_env_do_scf                       1  4.0    0.000    0.000  784.977  784.977
 scf_env_do_scf_inner_loop           34  5.0    0.006    0.006  784.976  784.976
 gspace_mixing                       33  6.0    4.631    4.631  304.636  304.636
 broyden_mixing                      33  7.0  271.686  271.686  271.686  271.686
 qs_scf_new_mos                      34  6.0    0.001    0.001  221.865  221.865
 eigensolver                         34  7.0    0.004    0.004  211.410  211.410
 pw_transfer                        454  9.9    0.042    0.042  153.364  153.364
 fft_wrap_pw1pw2                    384 10.9    0.006    0.006  149.183  149.183
 rebuild_ks_matrix                   35  6.9    0.000    0.000  146.416  146.416
 qs_ks_build_kohn_sham_matrix        35  7.9    0.011    0.011  146.416  146.416
 cp_fm_syevd                         34  8.0  143.647  143.647  143.799  143.799
 qs_ks_update_qs_env                 34  6.0    0.000    0.000  143.018  143.018
 fft_wrap_pw1pw2_70                 174 11.2   11.341   11.341  134.979  134.979
 qs_rho_update_rho                   35  6.0    0.000    0.000  118.708  118.708
 calculate_rho_elec                  35  7.0   43.903   43.903  118.708  118.708
 fft3d_s                            385 12.8   73.941   73.941   73.994   73.994
 density_rs2pw                       35  8.0    0.003    0.003   73.519   73.519
 cp_fm_cholesky_restore             102  8.0   67.487   67.487   67.487   67.487
 pw_scatter_s                       208 13.1   46.898   46.898   46.898   46.898
 sum_up_and_integrate                35  8.9    2.277    2.277   46.698   46.698
 integrate_v_rspace                  35  9.9    2.879    2.879   44.421   44.421
 pw_poisson_solve                    35  8.9   38.345   38.345   42.779   42.779
 potential_pw2rs                     35 10.9    0.274    0.274   38.765   38.765
 qs_vxc_create                       35  8.9    0.001    0.001   21.068   21.068
 xc_vxc_pw_create                    35  9.9    4.915    4.915   21.067   21.067
 -------------------------------------------------------------------------------

 The number of warnings for this run is : 0
 
 -------------------------------------------------------------------------------
  **** **** ******  **  PROGRAM ENDED AT                 2020-05-21 12:25:21.446
 ***** ** ***  *** **   PROGRAM RAN ON                                   gnode39
 **    ****   ******    PROGRAM RAN BY                               mayank.modi
 ***** **    ** ** **   PROGRAM PROCESS ID                                 16933
  **** **  *******  **  PROGRAM STOPPED IN /home/mayank.modi/ab-initio-thermodyn
                                           amics-of-water/mayank/cp2k_energy_cal
                                           culations
