 DBCSR| CPU Multiplication driver                                           XSMM
 DBCSR| Multrec recursion limit                                              512
 DBCSR| Multiplication stack size                                           1000
 DBCSR| Maximum elements for images                                    UNLIMITED
 DBCSR| Multiplicative factor virtual images                                   1
 DBCSR| Use multiplication densification                                       T
 DBCSR| Multiplication size stacks                                             3


  **** **** ******  **  PROGRAM STARTED AT               2020-05-21 04:00:08.238
 ***** ** ***  *** **   PROGRAM STARTED ON                               gnode39
 **    ****   ******    PROGRAM STARTED BY                           mayank.modi
 ***** **    ** ** **   PROGRAM PROCESS ID                                 28241
  **** **  *******  **  PROGRAM STARTED IN /home/mayank.modi/ab-initio-thermodyn
                                           amics-of-water/mayank/cp2k_energy_cal
                                           culations

 CP2K| version string:                                          CP2K version 7.1
 CP2K| source code revision number:                                  git:e635599
 CP2K| cp2kflags: omp libint fftw3 libxc xsmm spglib                            
 CP2K| is freely available from                            https://www.cp2k.org/
 CP2K| Program compiled at                          Mon Dec 23 19:23:12 CET 2019
 CP2K| Program compiled on                                                pc9404
 CP2K| Program compiled for                                Linux-x86-64-gfortran
 CP2K| Data directory path                                        /opt/cp2k/data
 CP2K| Input file name                                              ./input50.in

 GLOBAL| Force Environment number                                              1
 GLOBAL| Basis set file name                                           BASIS_SET
 GLOBAL| Potential file name                                      GTH_POTENTIALS
 GLOBAL| MM Potential file name                                     MM_POTENTIAL
 GLOBAL| Coordinate file name                                      __STD_INPUT__
 GLOBAL| Method name                                                        CP2K
 GLOBAL| Project name                                                   H2O_bulk
 GLOBAL| Preferred FFT library                                             FFTW3
 GLOBAL| Preferred diagonalization lib.                                       SL
 GLOBAL| Run type                                                   ENERGY_FORCE
 GLOBAL| All-to-all communication in single precision                          F
 GLOBAL| FFTs using library dependent lengths                                  F
 GLOBAL| Global print level                                                  LOW
 GLOBAL| MPI I/O enabled                                                       T
 GLOBAL| Total number of message passing processes                             1
 GLOBAL| Number of threads for this process                                   20
 GLOBAL| This output is from process                                           0
 GLOBAL| CPU model name                Intel(R) Xeon(R) CPU E5-2640 v4 @ 2.40GHz
 GLOBAL| CPUID                                                              1002
 GLOBAL| Compiled for CPUID                                                    0

 MEMORY| system memory details [Kb]
 MEMORY|                        rank 0           min           max       average
 MEMORY| MemTotal            131898148     131898148     131898148     131898148
 MEMORY| MemFree              88705608      88705608      88705608      88705608
 MEMORY| Buffers               3187096       3187096       3187096       3187096
 MEMORY| Cached               34124076      34124076      34124076      34124076
 MEMORY| Slab                  3914932       3914932       3914932       3914932
 MEMORY| SReclaimable          3255708       3255708       3255708       3255708
 MEMORY| MemLikelyFree       129272488     129272488     129272488     129272488


 GENERATE|  Preliminary Number of Bonds generated:                             0
 GENERATE|  Achieved consistency in connectivity generation.

 *******************************************************************************
 *******************************************************************************
 **                                                                           **
 **     #####                         ##              ##                      **
 **    ##   ##            ##          ##              ##                      **
 **   ##     ##                       ##            ######                    **
 **   ##     ##  ##   ##  ##   #####  ##  ##   ####   ##    #####    #####    **
 **   ##     ##  ##   ##  ##  ##      ## ##   ##      ##   ##   ##  ##   ##   **
 **   ##  ## ##  ##   ##  ##  ##      ####     ###    ##   ######   ######    **
 **    ##  ###   ##   ##  ##  ##      ## ##      ##   ##   ##       ##        **
 **     #######   #####   ##   #####  ##  ##  ####    ##    #####   ##        **
 **           ##                                                    ##        **
 **                                                                           **
 **                                                ... make the atoms dance   **
 **                                                                           **
 **            Copyright (C) by CP2K developers group (2000 - 2019)           **
 **                                                                           **
 *******************************************************************************


 TOTAL NUMBERS AND MAXIMUM NUMBERS

  Total number of            - Atomic kinds:                                   2
                             - Atoms:                                        192
                             - Shell sets:                                   384
                             - Shells:                                       704
                             - Primitive Cartesian functions:                960
                             - Cartesian basis functions:                   1536
                             - Spherical basis functions:                   1472

  Maximum angular momentum of- Orbital basis functions:                        2
                             - Local part of the GTH pseudopotential:          2
                             - Non-local part of the GTH pseudopotential:      0


 SCF PARAMETERS         Density guess:                                    ATOMIC
                        --------------------------------------------------------
                        max_scf:                                             300
                        max_scf_history:                                       0
                        max_diis:                                              4
                        --------------------------------------------------------
                        eps_scf:                                        1.00E-07
                        eps_scf_history:                                0.00E+00
                        eps_diis:                                       1.00E-01
                        eps_eigval:                                     1.00E-05
                        --------------------------------------------------------
                        level_shift [a.u.]:                                 0.00
                        --------------------------------------------------------
                        Mixing method:                            BROYDEN_MIXING
                                                charge density mixing in g-space
                        --------------------------------------------------------
                        No outer SCF

 Number of electrons:                                                        512
 Number of occupied orbitals:                                                256
 Number of molecular orbitals:                                               256

 Number of orbital functions:                                               1472
 Number of independent orbital functions:                                   1472

 Extrapolation method: initial_guess


 SCF WAVEFUNCTION OPTIMIZATION

  Step     Update method      Time    Convergence         Total energy    Change
  ------------------------------------------------------------------------------
     1 NoMix/Diag. 0.40E+00   10.5     0.98313869     -1087.2948752226 -1.09E+03
     2 Broy./Diag. 0.40E+00   16.1     0.28930038     -1013.8766060113  7.34E+01
     3 Broy./Diag. 0.40E+00   17.9     0.02684616     -1095.1635689666 -8.13E+01
     4 Broy./Diag. 0.40E+00   18.2     0.02717742     -1094.4568279075  7.07E-01
     5 Broy./Diag. 0.40E+00   18.7     0.00267461     -1095.3214007689 -8.65E-01
     6 Broy./Diag. 0.40E+00   19.7     0.00456306     -1095.3503519606 -2.90E-02
     7 Broy./Diag. 0.40E+00   20.8     0.00315167     -1095.4898130318 -1.39E-01
     8 Broy./Diag. 0.40E+00   22.3     0.00423852     -1095.6124354271 -1.23E-01
     9 Broy./Diag. 0.40E+00   22.9     0.00353748     -1095.6932434837 -8.08E-02
    10 Broy./Diag. 0.40E+00   24.8     0.00168085     -1095.7272665608 -3.40E-02
    11 Broy./Diag. 0.40E+00   24.5     0.00161467     -1095.6981865929  2.91E-02
    12 Broy./Diag. 0.40E+00   24.2     0.00072527     -1095.7043386651 -6.15E-03
    13 Broy./Diag. 0.40E+00   25.5     0.00056521     -1095.7256327546 -2.13E-02
    14 Broy./Diag. 0.40E+00   24.3     0.00022043     -1095.7300297643 -4.40E-03
    15 Broy./Diag. 0.40E+00   24.8     0.00035655     -1095.7208029120  9.23E-03
    16 Broy./Diag. 0.40E+00   24.1     0.00012711     -1095.7196129646  1.19E-03
    17 Broy./Diag. 0.40E+00   24.8     0.00007944     -1095.7218134161 -2.20E-03
    18 Broy./Diag. 0.40E+00   24.9     0.00004163     -1095.7241020502 -2.29E-03
    19 Broy./Diag. 0.40E+00   24.4     0.00002380     -1095.7238700883  2.32E-04
    20 Broy./Diag. 0.40E+00   24.4     0.00002472     -1095.7226932724  1.18E-03
    21 Broy./Diag. 0.40E+00   24.6     0.00001211     -1095.7225401792  1.53E-04
    22 Broy./Diag. 0.40E+00   25.0     0.00000562     -1095.7227363826 -1.96E-04
    23 Broy./Diag. 0.40E+00   24.3     0.00000765     -1095.7228486779 -1.12E-04
    24 Broy./Diag. 0.40E+00   24.4     0.00000256     -1095.7228070385  4.16E-05
    25 Broy./Diag. 0.40E+00   25.8     0.00000251     -1095.7227386406  6.84E-05
    26 Broy./Diag. 0.40E+00   24.3     0.00000152     -1095.7228014169 -6.28E-05
    27 Broy./Diag. 0.40E+00   25.4     0.00000095     -1095.7228387610 -3.73E-05
    28 Broy./Diag. 0.40E+00   23.9     0.00000089     -1095.7228543945 -1.56E-05
    29 Broy./Diag. 0.40E+00   25.1     0.00000034     -1095.7228458031  8.59E-06
    30 Broy./Diag. 0.40E+00   24.8     0.00000030     -1095.7228369636  8.84E-06
    31 Broy./Diag. 0.40E+00   25.2     0.00000022     -1095.7228430426 -6.08E-06
    32 Broy./Diag. 0.40E+00   24.5     0.00000011     -1095.7228504529 -7.41E-06
    33 Broy./Diag. 0.40E+00   25.1     0.00000006     -1095.7228526456 -2.19E-06

  *** SCF run converged in    33 steps ***


  Electronic density on regular grids:       -512.0006307481       -0.0006307481
  Core density on regular grids:              512.0001195872        0.0001195872
  Total charge density on r-space grids:       -0.0005111610
  Total charge density g-space grids:          -0.0005111610

  Overlap energy of the core charge distribution:               0.00000457739116
  Self energy of the core charge distribution:              -2838.21791979120962
  Core Hamiltonian energy:                                    820.82400446441818
  Hartree energy:                                            1186.23713883205141
  Exchange-correlation energy:                               -264.56608072827771

  Total energy:                                             -1095.72285264562652

 ENERGY| Total FORCE_EVAL ( QS ) energy (a.u.):            -1095.722849459903045


 ATOMIC FORCES in [a.u.]

 # Atom   Kind   Element          X              Y              Z
      1      1      O           0.09355779    -0.02464913     0.07780893
      2      2      H          -0.05130540     0.01413939    -0.03291251
      3      2      H          -0.03547543    -0.02851774     0.08320555
      4      1      O           0.01736316     0.06335622     0.13721667
      5      2      H          -0.00740375    -0.01058583    -0.00962504
      6      2      H           0.00247295    -0.02610957    -0.01834578
      7      1      O          -0.00216827    -0.04273210    -0.06708467
      8      2      H           0.01018296     0.00204017     0.02930087
      9      2      H          -0.01637260     0.05073679    -0.01503066
     10      1      O          -0.06395248    -0.06090237    -0.09883591
     11      2      H           0.00732536    -0.00864059     0.04395446
     12      2      H           0.00755865     0.02454296     0.02583663
     13      1      O           0.01703738    -0.00391601     0.09814910
     14      2      H          -0.01902323     0.01044588     0.00863242
     15      2      H          -0.03572471    -0.00532559     0.02878355
     16      1      O          -0.00115001    -0.04768118    -0.02894420
     17      2      H           0.01211967     0.00607189     0.00115076
     18      2      H          -0.01986061    -0.02391922     0.03034329
     19      1      O          -0.04343163     0.01528557    -0.05210528
     20      2      H           0.01790720    -0.00531674     0.03438803
     21      2      H           0.02388206    -0.02046432    -0.04923880
     22      1      O          -0.03599381     0.06682449     0.07275953
     23      2      H           0.06011883    -0.00047552     0.04128794
     24      2      H          -0.01104422     0.02447563     0.02181451
     25      1      O          -0.03103707     0.07801400    -0.09260122
     26      2      H          -0.02454678    -0.02426999    -0.00162720
     27      2      H           0.02007657     0.00313234    -0.02442599
     28      1      O           0.03360935     0.00458906    -0.03348262
     29      2      H          -0.02669545    -0.03933937     0.04811509
     30      2      H           0.00477374     0.02724211     0.03049641
     31      1      O           0.03696932     0.10624109    -0.08815409
     32      2      H          -0.00276562    -0.06077604     0.02812845
     33      2      H          -0.00496574    -0.01651317    -0.01311025
     34      1      O           0.05429650     0.05860837     0.06354355
     35      2      H          -0.00247243    -0.02996299    -0.02573544
     36      2      H          -0.06774797     0.01507734    -0.02375443
     37      1      O          -0.02348606     0.03400150     0.03619710
     38      2      H          -0.01114362     0.02051051    -0.02035992
     39      2      H          -0.00690752    -0.00642855     0.01960051
     40      1      O           0.00467419    -0.05945412     0.02299170
     41      2      H           0.01198110    -0.03948364     0.04533569
     42      2      H           0.03738196     0.04670467    -0.02705295
     43      1      O          -0.02372756    -0.07187174     0.10685405
     44      2      H           0.01307507     0.01887448     0.03037917
     45      2      H           0.01402426    -0.00698397    -0.03233548
     46      1      O          -0.09669960    -0.02144065     0.11343301
     47      2      H          -0.01773409     0.03245235     0.01018449
     48      2      H           0.08333298     0.02170466    -0.03896832
     49      1      O           0.03428265    -0.00087538    -0.04587906
     50      2      H          -0.05525326    -0.04046398    -0.00552353
     51      2      H           0.04387082    -0.00316883    -0.00695094
     52      1      O           0.02729344     0.01381973    -0.12321365
     53      2      H          -0.00091021    -0.02535600     0.03302243
     54      2      H           0.01939849     0.01416645     0.03552775
     55      1      O           0.07849410     0.08412726     0.02524604
     56      2      H          -0.01604320    -0.01718594    -0.03768128
     57      2      H          -0.05375896    -0.00719919     0.02719420
     58      1      O          -0.00946762     0.01548468     0.13525292
     59      2      H           0.01578208     0.01684637     0.03267768
     60      2      H           0.00357276    -0.01297397    -0.00558096
     61      1      O           0.03526756     0.11017766     0.04883184
     62      2      H           0.00599938    -0.02111947    -0.05392523
     63      2      H           0.00910008    -0.03809661     0.04041342
     64      1      O           0.01868585    -0.07944410     0.06548563
     65      2      H           0.00495883    -0.00231933     0.02397446
     66      2      H           0.00321511    -0.02527918    -0.03119421
     67      1      O          -0.01130203    -0.08969361    -0.07879121
     68      2      H          -0.01687482     0.01612444     0.05436809
     69      2      H           0.01606026     0.04749458     0.01248529
     70      1      O           0.04485404    -0.00827767    -0.04266398
     71      2      H          -0.02616155    -0.01965159     0.03377750
     72      2      H           0.00879823     0.04975684    -0.04227838
     73      1      O          -0.03304296     0.07298325     0.08712968
     74      2      H           0.01411296     0.00530353     0.02767959
     75      2      H           0.00622592     0.00940795    -0.01946559
     76      1      O           0.02221413    -0.05853734    -0.03831982
     77      2      H           0.01005293    -0.02658122     0.04002503
     78      2      H           0.01635638     0.01000912    -0.06004109
     79      1      O          -0.01891858    -0.06136830     0.09810299
     80      2      H           0.00312968    -0.00680808    -0.03376262
     81      2      H           0.00688830    -0.02304620    -0.04089042
     82      1      O          -0.00057055     0.02229607    -0.03914245
     83      2      H           0.01604301     0.02258023    -0.01156416
     84      2      H           0.00544435    -0.02323839     0.05101472
     85      1      O           0.01200809    -0.09743593    -0.12073288
     86      2      H          -0.00283286     0.01543326     0.03543030
     87      2      H          -0.01626634     0.01391393    -0.01034896
     88      1      O          -0.02304985    -0.04141858     0.00040279
     89      2      H           0.01617457     0.00073545    -0.03469877
     90      2      H          -0.01952166     0.05032412    -0.06033710
     91      1      O           0.05560402    -0.05704269     0.09086079
     92      2      H          -0.00453041     0.05575098    -0.02619057
     93      2      H          -0.02946070    -0.01297913    -0.03469453
     94      1      O          -0.01732794     0.05926130    -0.15495093
     95      2      H           0.05182169     0.02224293     0.04798822
     96      2      H          -0.03090271    -0.00100128    -0.00843089
     97      1      O          -0.04975756    -0.05196574    -0.07581228
     98      2      H           0.03660322     0.01857366    -0.05260886
     99      2      H           0.01134943    -0.02326460     0.01741733
    100      1      O           0.00234899     0.09649280    -0.09840611
    101      2      H           0.03120540    -0.03201698     0.04851068
    102      2      H          -0.04165420    -0.00095796    -0.00188343
    103      1      O          -0.08069009     0.07231577     0.07635992
    104      2      H           0.03234664    -0.03997670    -0.03392950
    105      2      H           0.00071870    -0.01271506     0.01496385
    106      1      O          -0.02713556    -0.02841049     0.09938600
    107      2      H           0.00415037     0.00016377    -0.08989799
    108      2      H           0.00846899    -0.00470630    -0.01388850
    109      1      O           0.00182952     0.01938361    -0.04779067
    110      2      H           0.03343039     0.00608886    -0.01853903
    111      2      H          -0.00629870    -0.06192355    -0.00765769
    112      1      O          -0.06308567     0.08809395    -0.01532887
    113      2      H          -0.01111674    -0.00040427     0.03036592
    114      2      H           0.03859776     0.00814116     0.00099448
    115      1      O           0.02994483     0.02641476     0.06270286
    116      2      H           0.00457010    -0.03371065     0.02092512
    117      2      H           0.00843871     0.01400863     0.01746987
    118      1      O          -0.06841998    -0.08059772    -0.10848551
    119      2      H           0.04222045     0.02563882     0.01926683
    120      2      H           0.02588153    -0.02034310    -0.03481175
    121      1      O           0.03419017     0.02376822     0.04041339
    122      2      H          -0.00934455     0.00555371     0.02867609
    123      2      H          -0.00928591     0.03155539    -0.00505942
    124      1      O           0.00299722    -0.04691289    -0.05448792
    125      2      H          -0.00535061    -0.02378899     0.04436063
    126      2      H           0.00902770    -0.00936996     0.00281813
    127      1      O           0.06307525     0.04315908     0.04350459
    128      2      H          -0.01921227    -0.04924876    -0.04770013
    129      2      H          -0.00665798    -0.01371136     0.04363491
    130      1      O          -0.04587944     0.04472227    -0.07681069
    131      2      H          -0.02375319    -0.01723493     0.03552555
    132      2      H           0.02801613     0.03604140     0.00454903
    133      1      O           0.04671057     0.07831795     0.03654155
    134      2      H           0.00737448     0.03664234    -0.03037977
    135      2      H          -0.01568834     0.00137773    -0.01330588
    136      1      O           0.03188032    -0.07836634    -0.07342308
    137      2      H           0.02044001    -0.00639630     0.00396201
    138      2      H          -0.02264783     0.00193172    -0.04279544
    139      1      O           0.08394441     0.06726120    -0.10203264
    140      2      H          -0.05299536    -0.03153934     0.07421179
    141      2      H          -0.01486893    -0.02032959    -0.01591508
    142      1      O          -0.00669037    -0.03262157    -0.01054115
    143      2      H          -0.04147169    -0.06925969     0.06445707
    144      2      H           0.00037569    -0.02129817     0.01760022
    145      1      O           0.02065111    -0.09993930    -0.15053969
    146      2      H          -0.01245365     0.02012356    -0.03523610
    147      2      H           0.02132876     0.06989956     0.01189015
    148      1      O           0.02984322    -0.19050079     0.01490624
    149      2      H          -0.09025094     0.10338875    -0.01044918
    150      2      H           0.07606512     0.05850320    -0.07054241
    151      1      O          -0.00313069     0.03709892    -0.09525787
    152      2      H          -0.00844730     0.01919721     0.04855990
    153      2      H          -0.00733890     0.02155452     0.04137332
    154      1      O           0.02137608     0.03236912    -0.03416343
    155      2      H          -0.02128602    -0.03074700    -0.02522055
    156      2      H           0.00003085     0.00475892    -0.00014814
    157      1      O           0.00362590    -0.06326458     0.07227813
    158      2      H           0.01545573    -0.02078462     0.02755099
    159      2      H          -0.03329818     0.01875043     0.01463272
    160      1      O           0.01848500     0.01440090     0.14431980
    161      2      H          -0.01026545     0.00509386     0.01072497
    162      2      H           0.01417597     0.04191829    -0.01208207
    163      1      O          -0.04835611    -0.08028455     0.07805097
    164      2      H          -0.00563914     0.02596246     0.00359197
    165      2      H           0.00508971    -0.02205902    -0.03117970
    166      1      O          -0.06853169    -0.02892947    -0.10758909
    167      2      H           0.03387446    -0.00138664    -0.03818697
    168      2      H          -0.00485077     0.01509857     0.01770608
    169      1      O          -0.00187582    -0.02263846     0.05676553
    170      2      H          -0.00641306     0.02113425     0.01183612
    171      2      H           0.00331296    -0.00715189     0.00449788
    172      1      O          -0.09053580     0.02931391    -0.06828312
    173      2      H           0.02635229     0.01388741    -0.00915290
    174      2      H           0.05280473     0.02637491    -0.01195077
    175      1      O           0.03132413    -0.11040072     0.01674274
    176      2      H           0.00305191     0.01020620     0.02299233
    177      2      H          -0.00162700     0.04512086     0.00529225
    178      1      O          -0.03458922     0.09241389     0.02428493
    179      2      H          -0.00694965     0.00114143    -0.02987355
    180      2      H          -0.00204430    -0.04032886    -0.01630516
    181      1      O           0.08339063     0.09818635    -0.07807636
    182      2      H          -0.05169026    -0.03310027     0.00306139
    183      2      H          -0.01304516     0.01806352    -0.06726505
    184      1      O           0.02466159     0.13302554    -0.03364144
    185      2      H           0.04575931    -0.05613579    -0.06314127
    186      2      H          -0.05653499    -0.03728481     0.05691711
    187      1      O           0.06789273     0.03040825     0.09258208
    188      2      H          -0.02985157    -0.05238271     0.03184503
    189      2      H          -0.03018659     0.04438695    -0.05337819
    190      1      O           0.01016312     0.06664179     0.05355427
    191      2      H           0.00983762     0.00038207    -0.01986775
    192      2      H           0.00869757     0.03050458    -0.03357540
 SUM OF ATOMIC FORCES           0.12658915     0.17355596    -0.07622404     0.22793988

 -------------------------------------------------------------------------------
 -                                                                             -
 -                                DBCSR STATISTICS                             -
 -                                                                             -
 -------------------------------------------------------------------------------
 COUNTER                                    TOTAL       BLAS       SMM       ACC
 flops     5 x     5 x   256            899993600       0.0%    100.0%      0.0%
 flops     5 x    13 x   256           1126993920       0.0%    100.0%      0.0%
 flops    13 x     5 x   256           1140572160       0.0%    100.0%      0.0%
 flops    13 x    13 x   256           1579828224       0.0%    100.0%      0.0%
 flops inhomo. stacks                           0       0.0%      0.0%      0.0%
 flops total                         4.747388E+09       0.0%    100.0%      0.0%
 flops max/rank                      4.747388E+09       0.0%    100.0%      0.0%
 matmuls inhomo. stacks                         0       0.0%      0.0%      0.0%
 matmuls total                             156706       0.0%    100.0%      0.0%
 number of processed stacks                  2652       0.0%    100.0%      0.0%
 average stack size                                     0.0      59.1       0.0
 marketing flops                    37.719376E+09
 -------------------------------------------------------------------------------
 # multiplications                             34
 max memory usage/rank              25.807913E+09
 # max total images/rank                        1
 # max 3D layers                                1
 # MPI messages exchanged                       0
 MPI messages size (bytes):
  total size                         0.000000E+00
  min size                           0.000000E+00
  max size                           0.000000E+00
  average size                       0.000000E+00
 MPI breakdown and total messages size (bytes):
             size <=      128                   0                        0
       128 < size <=     8192                   0                        0
      8192 < size <=    32768                   0                        0
     32768 < size <=   131072                   0                        0
    131072 < size <=  4194304                   0                        0
   4194304 < size <= 16777216                   0                        0
  16777216 < size                               0                        0
 -------------------------------------------------------------------------------

 MEMORY| Estimated peak process memory [MiB]                               24615

 -------------------------------------------------------------------------------
 -                                                                             -
 -                           R E F E R E N C E S                               -
 -                                                                             -
 -------------------------------------------------------------------------------
 
 CP2K version 7.1, the CP2K developers group (2019).
 CP2K is freely available from https://www.cp2k.org/ .

 Schuett, Ole; Messmer, Peter; Hutter, Juerg; VandeVondele, Joost. 
 Electronic Structure Calculations on Graphics Processing Units, John
 Wiley & Sons, Ltd, 173-190 (2016). 
 GPU-Accelerated Sparse Matrix-Matrix Multiplication for
 Linear Scaling Density Functional Theory.
 https://dx.doi.org/10.1002/9781118670712.ch8

 Borstnik, U; VandeVondele, J; Weber, V; Hutter, J. 
 PARALLEL COMPUTING, 40 (5-6), 47-58 (2014). 
 Sparse matrix multiplication: The distributed block-compressed sparse
 row library.
 https://dx.doi.org/10.1016/j.parco.2014.03.012

 Hutter, J; Iannuzzi, M; Schiffmann, F; VandeVondele, J. 
 WIREs Comput Mol Sci., 4 (1), 15-25 (2014). 
 CP2K: atomistic simulations of condensed matter systems.
 https://dx.doi.org/10.1002/wcms.1159

 Krack, M. 
 THEORETICAL CHEMISTRY ACCOUNTS, 114 (1-3), 145-152 (2005). 
 Pseudopotentials for H to Kr optimized for gradient-corrected
 exchange-correlation functionals.
 https://dx.doi.org/10.1007/s00214-005-0655-y

 VandeVondele, J; Krack, M; Mohamed, F; Parrinello, M; Chassaing, T;
 Hutter, J. COMPUTER PHYSICS COMMUNICATIONS, 167 (2), 103-128 (2005). 
 QUICKSTEP: Fast and accurate density functional calculations using a
 mixed Gaussian and plane waves approach.
 https://dx.doi.org/10.1016/j.cpc.2004.12.014

 Frigo, M; Johnson, SG. 
 PROCEEDINGS OF THE IEEE, 93 (2), 216-231 (2005). 
 The design and implementation of FFTW3.
 https://dx.doi.org/10.1109/JPROC.2004.840301

 Hartwigsen, C; Goedecker, S; Hutter, J. 
 PHYSICAL REVIEW B, 58 (7), 3641-3662 (1998). 
 Relativistic separable dual-space Gaussian pseudopotentials from H to Rn.
 https://dx.doi.org/10.1103/PhysRevB.58.3641

 Lippert, G; Hutter, J; Parrinello, M. 
 MOLECULAR PHYSICS, 92 (3), 477-487 (1997). 
 A hybrid Gaussian and plane wave density functional scheme.
 https://dx.doi.org/10.1080/002689797170220

 Goedecker, S; Teter, M; Hutter, J. 
 PHYSICAL REVIEW B, 54 (3), 1703-1710 (1996). 
 Separable dual-space Gaussian pseudopotentials.
 https://dx.doi.org/10.1103/PhysRevB.54.1703


 -------------------------------------------------------------------------------
 -                                                                             -
 -                                T I M I N G                                  -
 -                                                                             -
 -------------------------------------------------------------------------------
 SUBROUTINE                       CALLS  ASD         SELF TIME        TOTAL TIME
                                MAXIMUM       AVERAGE  MAXIMUM  AVERAGE  MAXIMUM
 CP2K                                 1  1.0    0.663    0.663  791.374  791.374
 qs_forces                            1  2.0    0.000    0.000  780.246  780.246
 qs_energies                          1  3.0    0.000    0.000  775.669  775.669
 scf_env_do_scf                       1  4.0    0.000    0.000  763.763  763.763
 scf_env_do_scf_inner_loop           33  5.0    0.006    0.006  763.763  763.763
 gspace_mixing                       32  6.0    4.460    4.460  292.562  292.562
 broyden_mixing                      32  7.0  260.318  260.318  260.319  260.319
 qs_scf_new_mos                      33  6.0    0.003    0.003  216.081  216.081
 eigensolver                         33  7.0    0.004    0.004  204.342  204.342
 pw_transfer                        441  9.9    0.042    0.042  151.091  151.091
 fft_wrap_pw1pw2                    373 10.9    0.008    0.008  146.949  146.949
 rebuild_ks_matrix                   34  6.9    0.000    0.000  145.254  145.254
 qs_ks_build_kohn_sham_matrix        34  7.9    0.015    0.015  145.254  145.254
 qs_ks_update_qs_env                 33  6.0    0.001    0.001  140.888  140.888
 cp_fm_syevd                         33  8.0  139.328  139.328  139.471  139.471
 fft_wrap_pw1pw2_70                 169 11.2   10.888   10.888  132.580  132.580
 qs_rho_update_rho                   34  6.0    0.000    0.000  116.945  116.945
 calculate_rho_elec                  34  7.0   43.220   43.220  116.945  116.945
 fft3d_s                            374 12.8   73.598   73.598   73.620   73.620
 density_rs2pw                       34  8.0    0.005    0.005   72.391   72.391
 cp_fm_cholesky_restore              99  8.0   64.751   64.751   64.751   64.751
 sum_up_and_integrate                34  8.9    2.425    2.425   48.086   48.086
 integrate_v_rspace                  34  9.9    2.970    2.970   45.660   45.660
 pw_scatter_s                       202 13.1   45.579   45.579   45.579   45.579
 pw_poisson_solve                    34  8.9   37.224   37.224   41.619   41.619
 potential_pw2rs                     34 10.9    0.279    0.279   39.123   39.123
 qs_vxc_create                       34  8.9    0.001    0.001   20.850   20.850
 xc_vxc_pw_create                    34  9.9    4.738    4.738   20.849   20.849
 xc_rho_set_and_dset_create          34 10.9    0.001    0.001   16.111   16.111
 -------------------------------------------------------------------------------

 The number of warnings for this run is : 0
 
 -------------------------------------------------------------------------------
  **** **** ******  **  PROGRAM ENDED AT                 2020-05-21 04:13:19.777
 ***** ** ***  *** **   PROGRAM RAN ON                                   gnode39
 **    ****   ******    PROGRAM RAN BY                               mayank.modi
 ***** **    ** ** **   PROGRAM PROCESS ID                                 28241
  **** **  *******  **  PROGRAM STOPPED IN /home/mayank.modi/ab-initio-thermodyn
                                           amics-of-water/mayank/cp2k_energy_cal
                                           culations
