 DBCSR| CPU Multiplication driver                                           XSMM
 DBCSR| Multrec recursion limit                                              512
 DBCSR| Multiplication stack size                                           1000
 DBCSR| Maximum elements for images                                    UNLIMITED
 DBCSR| Multiplicative factor virtual images                                   1
 DBCSR| Use multiplication densification                                       T
 DBCSR| Multiplication size stacks                                             3


  **** **** ******  **  PROGRAM STARTED AT               2020-05-22 05:39:54.326
 ***** ** ***  *** **   PROGRAM STARTED ON                               gnode39
 **    ****   ******    PROGRAM STARTED BY                           mayank.modi
 ***** **    ** ** **   PROGRAM PROCESS ID                                 35357
  **** **  *******  **  PROGRAM STARTED IN /home/mayank.modi/ab-initio-thermodyn
                                           amics-of-water/mayank/cp2k_energy_cal
                                           culations

 CP2K| version string:                                          CP2K version 7.1
 CP2K| source code revision number:                                  git:e635599
 CP2K| cp2kflags: omp libint fftw3 libxc xsmm spglib                            
 CP2K| is freely available from                            https://www.cp2k.org/
 CP2K| Program compiled at                          Mon Dec 23 19:23:12 CET 2019
 CP2K| Program compiled on                                                pc9404
 CP2K| Program compiled for                                Linux-x86-64-gfortran
 CP2K| Data directory path                                        /opt/cp2k/data
 CP2K| Input file name                                             ./input165.in

 GLOBAL| Force Environment number                                              1
 GLOBAL| Basis set file name                                           BASIS_SET
 GLOBAL| Potential file name                                      GTH_POTENTIALS
 GLOBAL| MM Potential file name                                     MM_POTENTIAL
 GLOBAL| Coordinate file name                                      __STD_INPUT__
 GLOBAL| Method name                                                        CP2K
 GLOBAL| Project name                                                   H2O_bulk
 GLOBAL| Preferred FFT library                                             FFTW3
 GLOBAL| Preferred diagonalization lib.                                       SL
 GLOBAL| Run type                                                   ENERGY_FORCE
 GLOBAL| All-to-all communication in single precision                          F
 GLOBAL| FFTs using library dependent lengths                                  F
 GLOBAL| Global print level                                                  LOW
 GLOBAL| MPI I/O enabled                                                       T
 GLOBAL| Total number of message passing processes                             1
 GLOBAL| Number of threads for this process                                   20
 GLOBAL| This output is from process                                           0
 GLOBAL| CPU model name                Intel(R) Xeon(R) CPU E5-2640 v4 @ 2.40GHz
 GLOBAL| CPUID                                                              1002
 GLOBAL| Compiled for CPUID                                                    0

 MEMORY| system memory details [Kb]
 MEMORY|                        rank 0           min           max       average
 MEMORY| MemTotal            131898148     131898148     131898148     131898148
 MEMORY| MemFree              68551160      68551160      68551160      68551160
 MEMORY| Buffers               3188864       3188864       3188864       3188864
 MEMORY| Cached               34548132      34548132      34548132      34548132
 MEMORY| Slab                  4010900       4010900       4010900       4010900
 MEMORY| SReclaimable          3296676       3296676       3296676       3296676
 MEMORY| MemLikelyFree       109584832     109584832     109584832     109584832


 GENERATE|  Preliminary Number of Bonds generated:                             0
 GENERATE|  Achieved consistency in connectivity generation.

 *******************************************************************************
 *******************************************************************************
 **                                                                           **
 **     #####                         ##              ##                      **
 **    ##   ##            ##          ##              ##                      **
 **   ##     ##                       ##            ######                    **
 **   ##     ##  ##   ##  ##   #####  ##  ##   ####   ##    #####    #####    **
 **   ##     ##  ##   ##  ##  ##      ## ##   ##      ##   ##   ##  ##   ##   **
 **   ##  ## ##  ##   ##  ##  ##      ####     ###    ##   ######   ######    **
 **    ##  ###   ##   ##  ##  ##      ## ##      ##   ##   ##       ##        **
 **     #######   #####   ##   #####  ##  ##  ####    ##    #####   ##        **
 **           ##                                                    ##        **
 **                                                                           **
 **                                                ... make the atoms dance   **
 **                                                                           **
 **            Copyright (C) by CP2K developers group (2000 - 2019)           **
 **                                                                           **
 *******************************************************************************


 TOTAL NUMBERS AND MAXIMUM NUMBERS

  Total number of            - Atomic kinds:                                   2
                             - Atoms:                                        192
                             - Shell sets:                                   384
                             - Shells:                                       704
                             - Primitive Cartesian functions:                960
                             - Cartesian basis functions:                   1536
                             - Spherical basis functions:                   1472

  Maximum angular momentum of- Orbital basis functions:                        2
                             - Local part of the GTH pseudopotential:          2
                             - Non-local part of the GTH pseudopotential:      0


 SCF PARAMETERS         Density guess:                                    ATOMIC
                        --------------------------------------------------------
                        max_scf:                                             300
                        max_scf_history:                                       0
                        max_diis:                                              4
                        --------------------------------------------------------
                        eps_scf:                                        1.00E-07
                        eps_scf_history:                                0.00E+00
                        eps_diis:                                       1.00E-01
                        eps_eigval:                                     1.00E-05
                        --------------------------------------------------------
                        level_shift [a.u.]:                                 0.00
                        --------------------------------------------------------
                        Mixing method:                            BROYDEN_MIXING
                                                charge density mixing in g-space
                        --------------------------------------------------------
                        No outer SCF

 Number of electrons:                                                        512
 Number of occupied orbitals:                                                256
 Number of molecular orbitals:                                               256

 Number of orbital functions:                                               1472
 Number of independent orbital functions:                                   1472

 Extrapolation method: initial_guess


 SCF WAVEFUNCTION OPTIMIZATION

  Step     Update method      Time    Convergence         Total energy    Change
  ------------------------------------------------------------------------------
     1 NoMix/Diag. 0.40E+00   10.8     1.01179190     -1087.3947417039 -1.09E+03
     2 Broy./Diag. 0.40E+00   16.0     0.29145370     -1013.2146615851  7.42E+01
     3 Broy./Diag. 0.40E+00   16.8     0.02742962     -1094.5827273132 -8.14E+01
     4 Broy./Diag. 0.40E+00   18.9     0.02497915     -1094.2992100876  2.84E-01
     5 Broy./Diag. 0.40E+00   20.4     0.00239369     -1095.2365504587 -9.37E-01
     6 Broy./Diag. 0.40E+00   21.9     0.00460668     -1095.2714457366 -3.49E-02
     7 Broy./Diag. 0.40E+00   22.2     0.00237047     -1095.4335850045 -1.62E-01
     8 Broy./Diag. 0.40E+00   24.2     0.00306073     -1095.5561565851 -1.23E-01
     9 Broy./Diag. 0.40E+00   24.6     0.00281574     -1095.6198091177 -6.37E-02
    10 Broy./Diag. 0.40E+00   25.6     0.00140827     -1095.6495666088 -2.98E-02
    11 Broy./Diag. 0.40E+00   25.9     0.00137952     -1095.6203441168  2.92E-02
    12 Broy./Diag. 0.40E+00   25.7     0.00066336     -1095.6296998296 -9.36E-03
    13 Broy./Diag. 0.40E+00   26.1     0.00064642     -1095.6481964427 -1.85E-02
    14 Broy./Diag. 0.40E+00   25.7     0.00025477     -1095.6467894378  1.41E-03
    15 Broy./Diag. 0.40E+00   26.2     0.00021320     -1095.6404569951  6.33E-03
    16 Broy./Diag. 0.40E+00   26.0     0.00013310     -1095.6408556458 -3.99E-04
    17 Broy./Diag. 0.40E+00   25.9     0.00005597     -1095.6411910983 -3.35E-04
    18 Broy./Diag. 0.40E+00   25.9     0.00004576     -1095.6406952304  4.96E-04
    19 Broy./Diag. 0.40E+00   26.0     0.00001948     -1095.6403115338  3.84E-04
    20 Broy./Diag. 0.40E+00   27.1     0.00001255     -1095.6399593781  3.52E-04
    21 Broy./Diag. 0.40E+00   25.7     0.00000940     -1095.6402426567 -2.83E-04
    22 Broy./Diag. 0.40E+00   25.4     0.00000353     -1095.6402931600 -5.05E-05
    23 Broy./Diag. 0.40E+00   25.6     0.00000393     -1095.6401735714  1.20E-04
    24 Broy./Diag. 0.40E+00   25.4     0.00000208     -1095.6401085724  6.50E-05
    25 Broy./Diag. 0.40E+00   25.7     0.00000171     -1095.6401197186 -1.11E-05
    26 Broy./Diag. 0.40E+00   26.5     0.00000142     -1095.6401420609 -2.23E-05
    27 Broy./Diag. 0.40E+00   26.2     0.00000064     -1095.6401444121 -2.35E-06
    28 Broy./Diag. 0.40E+00   25.7     0.00000073     -1095.6401363174  8.09E-06
    29 Broy./Diag. 0.40E+00   25.7     0.00000041     -1095.6401314941  4.82E-06
    30 Broy./Diag. 0.40E+00   24.7     0.00000021     -1095.6401297139  1.78E-06
    31 Broy./Diag. 0.40E+00   26.0     0.00000018     -1095.6401306632 -9.49E-07
    32 Broy./Diag. 0.40E+00   26.3     0.00000007     -1095.6401305141  1.49E-07

  *** SCF run converged in    32 steps ***


  Electronic density on regular grids:       -512.0003635361       -0.0003635361
  Core density on regular grids:              512.0004097883        0.0004097883
  Total charge density on r-space grids:        0.0000462521
  Total charge density g-space grids:           0.0000462521

  Overlap energy of the core charge distribution:               0.00000500052610
  Self energy of the core charge distribution:              -2838.21791979120962
  Core Hamiltonian energy:                                    821.67225207186493
  Hartree energy:                                            1185.71732212450092
  Exchange-correlation energy:                               -264.81178991979914

  Total energy:                                             -1095.64013051411689

 ENERGY| Total FORCE_EVAL ( QS ) energy (a.u.):            -1095.640131143831013


 ATOMIC FORCES in [a.u.]

 # Atom   Kind   Element          X              Y              Z
      1      1      O          -0.02113640     0.04576647    -0.01110984
      2      2      H          -0.00595294    -0.02438913     0.02088873
      3      2      H           0.00142116     0.03552080    -0.00135902
      4      1      O           0.02676702    -0.01052651    -0.00217552
      5      2      H          -0.00256884     0.02543196     0.02710138
      6      2      H          -0.00912004    -0.02084363     0.01997534
      7      1      O           0.02373857     0.02607496     0.03242135
      8      2      H          -0.01612923    -0.02243236    -0.00114120
      9      2      H          -0.01090406     0.00109899     0.02774820
     10      1      O          -0.02913134    -0.01787489    -0.10604638
     11      2      H           0.02565071    -0.00119254    -0.01859955
     12      2      H          -0.00404347     0.01057505    -0.02280470
     13      1      O           0.01188006     0.01223196     0.13174409
     14      2      H           0.03451313    -0.01283460     0.01542112
     15      2      H          -0.01187537     0.02902701    -0.03145937
     16      1      O          -0.05086268    -0.04550461    -0.08530745
     17      2      H           0.00803399     0.02255851     0.06566936
     18      2      H           0.03891144     0.02923744    -0.05863960
     19      1      O           0.01209184    -0.05285030     0.08940928
     20      2      H          -0.00855785    -0.03223243     0.00037336
     21      2      H          -0.02645343     0.02256866    -0.02906242
     22      1      O          -0.05296080    -0.08488242     0.07727336
     23      2      H           0.08454641    -0.00065395     0.06431281
     24      2      H           0.00049105    -0.03389424    -0.05768033
     25      1      O          -0.08340083    -0.08470849    -0.11681663
     26      2      H           0.00531877    -0.03608659     0.03296043
     27      2      H           0.02762618     0.02952269    -0.02632682
     28      1      O          -0.00595242    -0.00953428    -0.11719361
     29      2      H           0.02971271     0.02279410    -0.02924342
     30      2      H          -0.03135679    -0.00322481    -0.02067119
     31      1      O          -0.00548101    -0.01683451    -0.11936036
     32      2      H           0.01569306     0.03509678    -0.02248521
     33      2      H           0.01783703    -0.02530365    -0.02526896
     34      1      O          -0.02070663     0.02249973     0.09537028
     35      2      H          -0.03044510    -0.00813333    -0.03289634
     36      2      H           0.00654227    -0.00587371     0.03598847
     37      1      O           0.03006944     0.08841693    -0.01334235
     38      2      H           0.03354288    -0.01695657    -0.04008745
     39      2      H          -0.06477861     0.01866516     0.08766948
     40      1      O          -0.06422605     0.08723971     0.04978724
     41      2      H           0.04933753    -0.02643386     0.03710422
     42      2      H           0.00398676    -0.01500094    -0.02907463
     43      1      O          -0.00417965    -0.05537173    -0.11090291
     44      2      H          -0.00297243     0.03578634     0.03207748
     45      2      H           0.02597442    -0.05589571     0.03110059
     46      1      O           0.05961603     0.01458791    -0.11090773
     47      2      H           0.02733882     0.11063276     0.08247212
     48      2      H          -0.11642817     0.00240595     0.03199447
     49      1      O           0.04192150    -0.04400734    -0.10736499
     50      2      H          -0.00556138    -0.02902029    -0.02770445
     51      2      H          -0.01133807     0.01108461     0.01538202
     52      1      O          -0.00412650     0.07838316     0.12927356
     53      2      H          -0.00149980     0.02806444    -0.03105249
     54      2      H           0.00454295     0.01716610    -0.00866185
     55      1      O           0.03170005    -0.03252723    -0.09724435
     56      2      H          -0.01480664    -0.02383692     0.00161496
     57      2      H           0.00558519    -0.06508915    -0.02455023
     58      1      O           0.03429057     0.07473789    -0.05556871
     59      2      H          -0.00801976    -0.02466277    -0.02978935
     60      2      H          -0.01938511    -0.01637254    -0.04706975
     61      1      O           0.05656883     0.05910302     0.10236667
     62      2      H          -0.05809352     0.02978647    -0.01219494
     63      2      H          -0.00089190     0.00311144    -0.02040894
     64      1      O           0.01826818    -0.04628221     0.09975225
     65      2      H           0.02994857    -0.00740626    -0.02934144
     66      2      H          -0.03142577     0.02240208     0.00788672
     67      1      O           0.00952083     0.02276295    -0.03530743
     68      2      H           0.01991854     0.00779817    -0.00083461
     69      2      H          -0.01824826     0.03939192    -0.06523558
     70      1      O          -0.01619195    -0.00250420     0.04107754
     71      2      H          -0.02729023    -0.00586507    -0.05270140
     72      2      H           0.01001902     0.04843018    -0.01847739
     73      1      O           0.04313657    -0.05111240    -0.05094188
     74      2      H           0.01000185    -0.00992524    -0.03694232
     75      2      H          -0.02080332    -0.00678719    -0.04120745
     76      1      O          -0.04404455    -0.03344859    -0.04882912
     77      2      H           0.00188954    -0.01365761    -0.05325802
     78      2      H           0.01144717    -0.01126465    -0.01796242
     79      1      O           0.00869236    -0.04917108     0.00593765
     80      2      H          -0.00879406    -0.03602422    -0.01087587
     81      2      H          -0.01025202     0.00961489     0.03447317
     82      1      O          -0.04326221     0.08493682    -0.07223222
     83      2      H           0.01057214    -0.00424263     0.06575972
     84      2      H           0.02334693     0.00202126     0.01740955
     85      1      O          -0.00996598     0.01351344     0.08730727
     86      2      H           0.00923779     0.00504237     0.01837163
     87      2      H          -0.01123026     0.03474998     0.01154808
     88      1      O           0.02307646    -0.02732376    -0.06759573
     89      2      H           0.00253056    -0.04875678     0.01796750
     90      2      H           0.00911750     0.04396292    -0.05627781
     91      1      O           0.07410753    -0.06033066     0.03522716
     92      2      H          -0.00301785    -0.00553403    -0.02430882
     93      2      H          -0.04535773     0.01485241    -0.04785829
     94      1      O          -0.03408667     0.05848719    -0.04251362
     95      2      H           0.07612499    -0.03159758    -0.00827705
     96      2      H          -0.02498993     0.00129955     0.03625208
     97      1      O           0.00049231    -0.02929824     0.07615892
     98      2      H          -0.01623542     0.05836139     0.01003306
     99      2      H          -0.01458905     0.01377553     0.01623545
    100      1      O           0.06868901     0.04855923    -0.01885145
    101      2      H          -0.03683254    -0.03712445     0.06420524
    102      2      H          -0.01883381    -0.01015947     0.02050174
    103      1      O           0.04938458     0.10933872     0.01451042
    104      2      H           0.00180864     0.00514525    -0.05400573
    105      2      H          -0.01754434    -0.03193607    -0.03135099
    106      1      O           0.01300690    -0.00361558     0.03856497
    107      2      H           0.01392579     0.04415780     0.00629841
    108      2      H          -0.00675214    -0.03168885     0.03767559
    109      1      O          -0.04639751     0.00196657    -0.07745361
    110      2      H          -0.00084221    -0.04362417    -0.02554308
    111      2      H           0.03978310    -0.02420692     0.05152892
    112      1      O          -0.05349292    -0.05595805     0.06153243
    113      2      H           0.02192998    -0.06042050     0.05589935
    114      2      H           0.03676363    -0.01189008    -0.01065274
    115      1      O           0.00890142     0.08748598    -0.12906324
    116      2      H          -0.00642930    -0.02138878    -0.02261213
    117      2      H           0.01660502    -0.01311200     0.01028051
    118      1      O           0.01218510     0.06840818    -0.06899619
    119      2      H           0.01385829    -0.02904130     0.01844076
    120      2      H          -0.00620642     0.02256729     0.03001249
    121      1      O          -0.01027574    -0.00178699    -0.11008652
    122      2      H           0.01786975    -0.01870193    -0.04874386
    123      2      H          -0.01941823    -0.03888046     0.00929429
    124      1      O          -0.01356746     0.06573906    -0.00860268
    125      2      H          -0.01095844     0.03463555     0.00917085
    126      2      H           0.02793441     0.02075969     0.06520128
    127      1      O          -0.00270718     0.04400176     0.09821426
    128      2      H           0.00255785     0.01516910    -0.06175091
    129      2      H          -0.00535366    -0.00583811    -0.01293448
    130      1      O          -0.02772141    -0.08104571    -0.02299457
    131      2      H           0.02478548    -0.02234326     0.04621445
    132      2      H          -0.02694376     0.03843937    -0.04350607
    133      1      O          -0.01272143     0.09275457     0.00315155
    134      2      H           0.02549272    -0.02562720     0.02720488
    135      2      H          -0.00092946    -0.01670926    -0.03584489
    136      1      O           0.01615618     0.06642259     0.07138681
    137      2      H          -0.01406310     0.01903972     0.03871589
    138      2      H           0.02631189    -0.02194826    -0.02757945
    139      1      O          -0.02697843    -0.07021525    -0.08288652
    140      2      H           0.00928146    -0.03164088     0.04058824
    141      2      H           0.00270209    -0.02056565    -0.02732992
    142      1      O          -0.02778415     0.11486255    -0.12330305
    143      2      H           0.01384312     0.01158517    -0.01701562
    144      2      H           0.01653020    -0.05242375     0.06124298
    145      1      O          -0.00780354     0.07960677    -0.07042653
    146      2      H          -0.00780502     0.02414354    -0.05277137
    147      2      H           0.03373310    -0.02971128     0.02560585
    148      1      O           0.04574046    -0.02127345     0.01796044
    149      2      H          -0.03222521    -0.00063376     0.03103986
    150      2      H          -0.00898662     0.01400582     0.03177931
    151      1      O           0.03161728     0.04680179     0.13182079
    152      2      H          -0.06225582    -0.01837476     0.02241349
    153      2      H           0.02055080     0.04776306     0.02286290
    154      1      O           0.04435929    -0.03121425     0.03178799
    155      2      H          -0.04762341    -0.04899247     0.07511454
    156      2      H          -0.00234917    -0.04688734    -0.06910828
    157      1      O           0.09181967    -0.02557502    -0.06412609
    158      2      H          -0.00516558     0.02077170    -0.02045054
    159      2      H          -0.05827396    -0.00058411    -0.02130313
    160      1      O           0.01561943    -0.08443850     0.07723512
    161      2      H           0.00697502    -0.00237440    -0.03229871
    162      2      H           0.00017685     0.04536526     0.02659414
    163      1      O          -0.09091616    -0.14390950     0.16679176
    164      2      H           0.03352703     0.01534700    -0.00452740
    165      2      H           0.01876030     0.02861188    -0.10423525
    166      1      O           0.01216392     0.02363349    -0.10863090
    167      2      H          -0.03602111    -0.03650719     0.01375861
    168      2      H           0.02467481    -0.01131839    -0.03623162
    169      1      O           0.01954327    -0.08905799     0.05531438
    170      2      H          -0.04353508     0.04164720     0.00011704
    171      2      H          -0.01028593    -0.02018415    -0.03850271
    172      1      O           0.02502555    -0.01428961    -0.05083900
    173      2      H          -0.02651612    -0.03167651    -0.00372102
    174      2      H          -0.00399430     0.02596533    -0.01205449
    175      1      O          -0.00641023    -0.16012743     0.09409542
    176      2      H           0.03358423     0.08295111     0.00843131
    177      2      H          -0.01791229     0.03242663    -0.05357676
    178      1      O           0.04855680     0.06615768     0.14218093
    179      2      H           0.00141733    -0.02237532    -0.03596371
    180      2      H          -0.00296218     0.04805773    -0.03206038
    181      1      O          -0.00223071    -0.01419085    -0.05257379
    182      2      H           0.03824605     0.05137623    -0.01114823
    183      2      H          -0.02236607     0.01567567    -0.00977478
    184      1      O           0.02546726     0.02980870    -0.08192361
    185      2      H          -0.04136307     0.03081119     0.03280241
    186      2      H           0.01347524     0.03412712     0.02450494
    187      1      O          -0.04237967     0.09585942    -0.00693011
    188      2      H          -0.00645916    -0.00780367     0.03589645
    189      2      H           0.01128702     0.01286467     0.05227888
    190      1      O           0.05975907     0.03043787    -0.01518413
    191      2      H          -0.02576819    -0.00595334    -0.01725287
    192      2      H          -0.01782349    -0.01701838     0.05787704
 SUM OF ATOMIC FORCES           0.09776774     0.26395200    -0.57227658     0.63775362

 -------------------------------------------------------------------------------
 -                                                                             -
 -                                DBCSR STATISTICS                             -
 -                                                                             -
 -------------------------------------------------------------------------------
 COUNTER                                    TOTAL       BLAS       SMM       ACC
 flops     5 x     5 x   256            772992000       0.0%    100.0%      0.0%
 flops    13 x     5 x   256            964254720       0.0%    100.0%      0.0%
 flops     5 x    13 x   256            975237120       0.0%    100.0%      0.0%
 flops    13 x    13 x   256           1353470976       0.0%    100.0%      0.0%
 flops inhomo. stacks                           0       0.0%      0.0%      0.0%
 flops total                         4.065955E+09       0.0%    100.0%      0.0%
 flops max/rank                      4.065955E+09       0.0%    100.0%      0.0%
 matmuls inhomo. stacks                         0       0.0%      0.0%      0.0%
 matmuls total                             134310       0.0%    100.0%      0.0%
 number of processed stacks                  2574       0.0%    100.0%      0.0%
 average stack size                                     0.0      52.2       0.0
 marketing flops                    36.609982E+09
 -------------------------------------------------------------------------------
 # multiplications                             33
 max memory usage/rank              25.805722E+09
 # max total images/rank                        1
 # max 3D layers                                1
 # MPI messages exchanged                       0
 MPI messages size (bytes):
  total size                         0.000000E+00
  min size                           0.000000E+00
  max size                           0.000000E+00
  average size                       0.000000E+00
 MPI breakdown and total messages size (bytes):
             size <=      128                   0                        0
       128 < size <=     8192                   0                        0
      8192 < size <=    32768                   0                        0
     32768 < size <=   131072                   0                        0
    131072 < size <=  4194304                   0                        0
   4194304 < size <= 16777216                   0                        0
  16777216 < size                               0                        0
 -------------------------------------------------------------------------------

 MEMORY| Estimated peak process memory [MiB]                               24612

 -------------------------------------------------------------------------------
 -                                                                             -
 -                           R E F E R E N C E S                               -
 -                                                                             -
 -------------------------------------------------------------------------------
 
 CP2K version 7.1, the CP2K developers group (2019).
 CP2K is freely available from https://www.cp2k.org/ .

 Schuett, Ole; Messmer, Peter; Hutter, Juerg; VandeVondele, Joost. 
 Electronic Structure Calculations on Graphics Processing Units, John
 Wiley & Sons, Ltd, 173-190 (2016). 
 GPU-Accelerated Sparse Matrix-Matrix Multiplication for
 Linear Scaling Density Functional Theory.
 https://dx.doi.org/10.1002/9781118670712.ch8

 Borstnik, U; VandeVondele, J; Weber, V; Hutter, J. 
 PARALLEL COMPUTING, 40 (5-6), 47-58 (2014). 
 Sparse matrix multiplication: The distributed block-compressed sparse
 row library.
 https://dx.doi.org/10.1016/j.parco.2014.03.012

 Hutter, J; Iannuzzi, M; Schiffmann, F; VandeVondele, J. 
 WIREs Comput Mol Sci., 4 (1), 15-25 (2014). 
 CP2K: atomistic simulations of condensed matter systems.
 https://dx.doi.org/10.1002/wcms.1159

 Krack, M. 
 THEORETICAL CHEMISTRY ACCOUNTS, 114 (1-3), 145-152 (2005). 
 Pseudopotentials for H to Kr optimized for gradient-corrected
 exchange-correlation functionals.
 https://dx.doi.org/10.1007/s00214-005-0655-y

 VandeVondele, J; Krack, M; Mohamed, F; Parrinello, M; Chassaing, T;
 Hutter, J. COMPUTER PHYSICS COMMUNICATIONS, 167 (2), 103-128 (2005). 
 QUICKSTEP: Fast and accurate density functional calculations using a
 mixed Gaussian and plane waves approach.
 https://dx.doi.org/10.1016/j.cpc.2004.12.014

 Frigo, M; Johnson, SG. 
 PROCEEDINGS OF THE IEEE, 93 (2), 216-231 (2005). 
 The design and implementation of FFTW3.
 https://dx.doi.org/10.1109/JPROC.2004.840301

 Hartwigsen, C; Goedecker, S; Hutter, J. 
 PHYSICAL REVIEW B, 58 (7), 3641-3662 (1998). 
 Relativistic separable dual-space Gaussian pseudopotentials from H to Rn.
 https://dx.doi.org/10.1103/PhysRevB.58.3641

 Lippert, G; Hutter, J; Parrinello, M. 
 MOLECULAR PHYSICS, 92 (3), 477-487 (1997). 
 A hybrid Gaussian and plane wave density functional scheme.
 https://dx.doi.org/10.1080/002689797170220

 Goedecker, S; Teter, M; Hutter, J. 
 PHYSICAL REVIEW B, 54 (3), 1703-1710 (1996). 
 Separable dual-space Gaussian pseudopotentials.
 https://dx.doi.org/10.1103/PhysRevB.54.1703


 -------------------------------------------------------------------------------
 -                                                                             -
 -                                T I M I N G                                  -
 -                                                                             -
 -------------------------------------------------------------------------------
 SUBROUTINE                       CALLS  ASD         SELF TIME        TOTAL TIME
                                MAXIMUM       AVERAGE  MAXIMUM  AVERAGE  MAXIMUM
 CP2K                                 1  1.0    0.767    0.767  803.603  803.603
 qs_forces                            1  2.0    0.000    0.000  791.684  791.684
 qs_energies                          1  3.0    0.000    0.000  786.898  786.898
 scf_env_do_scf                       1  4.0    0.000    0.000  774.389  774.389
 scf_env_do_scf_inner_loop           32  5.0    0.005    0.005  774.389  774.389
 gspace_mixing                       31  6.0    4.685    4.685  298.806  298.806
 broyden_mixing                      31  7.0  264.448  264.448  264.448  264.448
 qs_scf_new_mos                      32  6.0    0.001    0.001  219.400  219.400
 eigensolver                         32  7.0    0.004    0.004  215.523  215.523
 pw_transfer                        428  9.9    0.041    0.041  155.945  155.945
 fft_wrap_pw1pw2                    362 10.9    0.005    0.005  151.735  151.735
 rebuild_ks_matrix                   33  6.9    0.000    0.000  147.260  147.260
 qs_ks_build_kohn_sham_matrix        33  7.9    0.010    0.010  147.260  147.260
 cp_fm_syevd                         32  8.0  147.096  147.096  147.240  147.240
 qs_ks_update_qs_env                 32  6.0    0.001    0.001  142.663  142.663
 fft_wrap_pw1pw2_70                 164 11.2   12.074   12.074  138.979  138.979
 qs_rho_update_rho                   33  6.0    0.001    0.001  116.688  116.688
 calculate_rho_elec                  33  7.0   41.983   41.983  116.687  116.687
 fft3d_s                            363 12.8   74.956   74.956   74.965   74.965
 density_rs2pw                       33  8.0    0.003    0.003   73.692   73.692
 cp_fm_cholesky_restore              96  8.0   68.142   68.142   68.142   68.142
 pw_scatter_s                       196 13.1   48.446   48.446   48.446   48.446
 pw_poisson_solve                    33  8.9   39.882   39.882   44.380   44.380
 sum_up_and_integrate                33  8.9    2.239    2.239   43.852   43.852
 integrate_v_rspace                  33  9.9    2.325    2.325   41.613   41.613
 potential_pw2rs                     33 10.9    0.337    0.337   39.082   39.082
 qs_vxc_create                       33  8.9    0.001    0.001   21.581   21.581
 xc_vxc_pw_create                    33  9.9    5.025    5.025   21.580   21.580
 xc_rho_set_and_dset_create          33 10.9    0.002    0.002   16.555   16.555
 -------------------------------------------------------------------------------

 The number of warnings for this run is : 0
 
 -------------------------------------------------------------------------------
  **** **** ******  **  PROGRAM ENDED AT                 2020-05-22 05:53:18.039
 ***** ** ***  *** **   PROGRAM RAN ON                                   gnode39
 **    ****   ******    PROGRAM RAN BY                               mayank.modi
 ***** **    ** ** **   PROGRAM PROCESS ID                                 35357
  **** **  *******  **  PROGRAM STOPPED IN /home/mayank.modi/ab-initio-thermodyn
                                           amics-of-water/mayank/cp2k_energy_cal
                                           culations
