 DBCSR| CPU Multiplication driver                                           XSMM
 DBCSR| Multrec recursion limit                                              512
 DBCSR| Multiplication stack size                                           1000
 DBCSR| Maximum elements for images                                    UNLIMITED
 DBCSR| Multiplicative factor virtual images                                   1
 DBCSR| Use multiplication densification                                       T
 DBCSR| Multiplication size stacks                                             3


  **** **** ******  **  PROGRAM STARTED AT               2020-05-21 18:24:54.253
 ***** ** ***  *** **   PROGRAM STARTED ON                               gnode39
 **    ****   ******    PROGRAM STARTED BY                           mayank.modi
 ***** **    ** ** **   PROGRAM PROCESS ID                                 18448
  **** **  *******  **  PROGRAM STARTED IN /home/mayank.modi/ab-initio-thermodyn
                                           amics-of-water/mayank/cp2k_energy_cal
                                           culations

 CP2K| version string:                                          CP2K version 7.1
 CP2K| source code revision number:                                  git:e635599
 CP2K| cp2kflags: omp libint fftw3 libxc xsmm spglib                            
 CP2K| is freely available from                            https://www.cp2k.org/
 CP2K| Program compiled at                          Mon Dec 23 19:23:12 CET 2019
 CP2K| Program compiled on                                                pc9404
 CP2K| Program compiled for                                Linux-x86-64-gfortran
 CP2K| Data directory path                                        /opt/cp2k/data
 CP2K| Input file name                                             ./input116.in

 GLOBAL| Force Environment number                                              1
 GLOBAL| Basis set file name                                           BASIS_SET
 GLOBAL| Potential file name                                      GTH_POTENTIALS
 GLOBAL| MM Potential file name                                     MM_POTENTIAL
 GLOBAL| Coordinate file name                                      __STD_INPUT__
 GLOBAL| Method name                                                        CP2K
 GLOBAL| Project name                                                   H2O_bulk
 GLOBAL| Preferred FFT library                                             FFTW3
 GLOBAL| Preferred diagonalization lib.                                       SL
 GLOBAL| Run type                                                   ENERGY_FORCE
 GLOBAL| All-to-all communication in single precision                          F
 GLOBAL| FFTs using library dependent lengths                                  F
 GLOBAL| Global print level                                                  LOW
 GLOBAL| MPI I/O enabled                                                       T
 GLOBAL| Total number of message passing processes                             1
 GLOBAL| Number of threads for this process                                   20
 GLOBAL| This output is from process                                           0
 GLOBAL| CPU model name                Intel(R) Xeon(R) CPU E5-2640 v4 @ 2.40GHz
 GLOBAL| CPUID                                                              1002
 GLOBAL| Compiled for CPUID                                                    0

 MEMORY| system memory details [Kb]
 MEMORY|                        rank 0           min           max       average
 MEMORY| MemTotal            131898148     131898148     131898148     131898148
 MEMORY| MemFree              81986512      81986512      81986512      81986512
 MEMORY| Buffers               3187952       3187952       3187952       3187952
 MEMORY| Cached               33725964      33725964      33725964      33725964
 MEMORY| Slab                  4006856       4006856       4006856       4006856
 MEMORY| SReclaimable          3294652       3294652       3294652       3294652
 MEMORY| MemLikelyFree       122195080     122195080     122195080     122195080


 GENERATE|  Preliminary Number of Bonds generated:                             0
 GENERATE|  Achieved consistency in connectivity generation.

 *******************************************************************************
 *******************************************************************************
 **                                                                           **
 **     #####                         ##              ##                      **
 **    ##   ##            ##          ##              ##                      **
 **   ##     ##                       ##            ######                    **
 **   ##     ##  ##   ##  ##   #####  ##  ##   ####   ##    #####    #####    **
 **   ##     ##  ##   ##  ##  ##      ## ##   ##      ##   ##   ##  ##   ##   **
 **   ##  ## ##  ##   ##  ##  ##      ####     ###    ##   ######   ######    **
 **    ##  ###   ##   ##  ##  ##      ## ##      ##   ##   ##       ##        **
 **     #######   #####   ##   #####  ##  ##  ####    ##    #####   ##        **
 **           ##                                                    ##        **
 **                                                                           **
 **                                                ... make the atoms dance   **
 **                                                                           **
 **            Copyright (C) by CP2K developers group (2000 - 2019)           **
 **                                                                           **
 *******************************************************************************


 TOTAL NUMBERS AND MAXIMUM NUMBERS

  Total number of            - Atomic kinds:                                   2
                             - Atoms:                                        192
                             - Shell sets:                                   384
                             - Shells:                                       704
                             - Primitive Cartesian functions:                960
                             - Cartesian basis functions:                   1536
                             - Spherical basis functions:                   1472

  Maximum angular momentum of- Orbital basis functions:                        2
                             - Local part of the GTH pseudopotential:          2
                             - Non-local part of the GTH pseudopotential:      0


 SCF PARAMETERS         Density guess:                                    ATOMIC
                        --------------------------------------------------------
                        max_scf:                                             300
                        max_scf_history:                                       0
                        max_diis:                                              4
                        --------------------------------------------------------
                        eps_scf:                                        1.00E-07
                        eps_scf_history:                                0.00E+00
                        eps_diis:                                       1.00E-01
                        eps_eigval:                                     1.00E-05
                        --------------------------------------------------------
                        level_shift [a.u.]:                                 0.00
                        --------------------------------------------------------
                        Mixing method:                            BROYDEN_MIXING
                                                charge density mixing in g-space
                        --------------------------------------------------------
                        No outer SCF

 Number of electrons:                                                        512
 Number of occupied orbitals:                                                256
 Number of molecular orbitals:                                               256

 Number of orbital functions:                                               1472
 Number of independent orbital functions:                                   1472

 Extrapolation method: initial_guess


 SCF WAVEFUNCTION OPTIMIZATION

  Step     Update method      Time    Convergence         Total energy    Change
  ------------------------------------------------------------------------------
     1 NoMix/Diag. 0.40E+00   10.3     0.99427405     -1087.4266224101 -1.09E+03
     2 Broy./Diag. 0.40E+00   17.3     0.29212268     -1013.6132646932  7.38E+01
     3 Broy./Diag. 0.40E+00   19.9     0.02548952     -1094.8726914869 -8.13E+01
     4 Broy./Diag. 0.40E+00   19.5     0.02668336     -1094.4059449031  4.67E-01
     5 Broy./Diag. 0.40E+00   19.4     0.00277085     -1095.3318632665 -9.26E-01
     6 Broy./Diag. 0.40E+00   21.9     0.00389934     -1095.3725502913 -4.07E-02
     7 Broy./Diag. 0.40E+00   22.4     0.00264762     -1095.5281886941 -1.56E-01
     8 Broy./Diag. 0.40E+00   24.0     0.00334375     -1095.6542948568 -1.26E-01
     9 Broy./Diag. 0.40E+00   25.1     0.00325411     -1095.7246335063 -7.03E-02
    10 Broy./Diag. 0.40E+00   27.2     0.00169095     -1095.7559501408 -3.13E-02
    11 Broy./Diag. 0.40E+00   26.5     0.00213038     -1095.7274609839  2.85E-02
    12 Broy./Diag. 0.40E+00   25.8     0.00117408     -1095.7357236186 -8.26E-03
    13 Broy./Diag. 0.40E+00   27.5     0.00105751     -1095.7570419541 -2.13E-02
    14 Broy./Diag. 0.40E+00   27.9     0.00034444     -1095.7582444689 -1.20E-03
    15 Broy./Diag. 0.40E+00   26.6     0.00030684     -1095.7519796999  6.26E-03
    16 Broy./Diag. 0.40E+00   26.2     0.00018964     -1095.7527565266 -7.77E-04
    17 Broy./Diag. 0.40E+00   25.8     0.00007454     -1095.7541062970 -1.35E-03
    18 Broy./Diag. 0.40E+00   27.3     0.00004295     -1095.7544572224 -3.51E-04
    19 Broy./Diag. 0.40E+00   25.8     0.00002141     -1095.7542099051  2.47E-04
    20 Broy./Diag. 0.40E+00   26.3     0.00001452     -1095.7536075542  6.02E-04
    21 Broy./Diag. 0.40E+00   28.3     0.00001285     -1095.7537778478 -1.70E-04
    22 Broy./Diag. 0.40E+00   27.3     0.00000542     -1095.7539583472 -1.80E-04
    23 Broy./Diag. 0.40E+00   26.4     0.00000673     -1095.7539650691 -6.72E-06
    24 Broy./Diag. 0.40E+00   26.7     0.00000143     -1095.7539220151  4.31E-05
    25 Broy./Diag. 0.40E+00   26.6     0.00000254     -1095.7538887044  3.33E-05
    26 Broy./Diag. 0.40E+00   26.0     0.00000142     -1095.7539320227 -4.33E-05
    27 Broy./Diag. 0.40E+00   27.6     0.00000091     -1095.7539524680 -2.04E-05
    28 Broy./Diag. 0.40E+00   25.9     0.00000091     -1095.7539560850 -3.62E-06
    29 Broy./Diag. 0.40E+00   26.3     0.00000035     -1095.7539514021  4.68E-06
    30 Broy./Diag. 0.40E+00   27.8     0.00000020     -1095.7539488836  2.52E-06
    31 Broy./Diag. 0.40E+00   26.8     0.00000018     -1095.7539502091 -1.33E-06
    32 Broy./Diag. 0.40E+00   26.5     0.00000008     -1095.7539518454 -1.64E-06

  *** SCF run converged in    32 steps ***


  Electronic density on regular grids:       -512.0010098119       -0.0010098119
  Core density on regular grids:              511.9997997869       -0.0002002131
  Total charge density on r-space grids:       -0.0012100250
  Total charge density g-space grids:          -0.0012100250

  Overlap energy of the core charge distribution:               0.00000421181245
  Self energy of the core charge distribution:              -2838.21791979120962
  Core Hamiltonian energy:                                    821.20245559225305
  Hartree energy:                                            1185.94097977703245
  Exchange-correlation energy:                               -264.67947163529419

  Total energy:                                             -1095.75395184540571

 ENERGY| Total FORCE_EVAL ( QS ) energy (a.u.):            -1095.753953178337724


 ATOMIC FORCES in [a.u.]

 # Atom   Kind   Element          X              Y              Z
      1      1      O           0.04465545     0.02430855    -0.00934912
      2      2      H          -0.02564213     0.00271332     0.01669196
      3      2      H           0.00368923    -0.01936684    -0.06000652
      4      1      O           0.00801054     0.06544171    -0.05834891
      5      2      H          -0.00716056     0.02939199     0.03974221
      6      2      H           0.00675705    -0.01885238    -0.01045398
      7      1      O           0.04984433     0.03890697    -0.06998813
      8      2      H          -0.01466189     0.00887116    -0.02447465
      9      2      H          -0.01151558    -0.02986549    -0.06680674
     10      1      O          -0.03660761     0.05469410    -0.11144856
     11      2      H          -0.00180674     0.03140700    -0.00384323
     12      2      H           0.00853108     0.00193798     0.01521640
     13      1      O           0.01019842    -0.05417828    -0.03381187
     14      2      H           0.00523439     0.02343576    -0.03960667
     15      2      H          -0.01104633     0.00953985    -0.03294014
     16      1      O          -0.06442600     0.05286828    -0.04186671
     17      2      H           0.00057389    -0.01909180    -0.00619862
     18      2      H           0.03870974     0.00176494    -0.00372716
     19      1      O          -0.01097169    -0.09259057    -0.14755009
     20      2      H           0.01142465     0.00355463     0.07121736
     21      2      H           0.02396088     0.02067751    -0.02041934
     22      1      O          -0.05535078     0.07922622     0.11411048
     23      2      H           0.05424791     0.01264496    -0.03065244
     24      2      H          -0.01912619     0.02807324    -0.02790551
     25      1      O           0.04039888    -0.05844869     0.06814825
     26      2      H           0.00002566    -0.03885163    -0.02055488
     27      2      H          -0.02344476    -0.00067504     0.01920304
     28      1      O           0.02408404    -0.03348561    -0.05102188
     29      2      H           0.04319676     0.01190914    -0.04093604
     30      2      H          -0.03765364     0.00643795    -0.01753708
     31      1      O          -0.03936434    -0.00003542    -0.13354294
     32      2      H           0.00973424     0.07606862     0.01904971
     33      2      H          -0.00917322    -0.03353367     0.02068555
     34      1      O           0.04976529     0.05952069     0.06232589
     35      2      H          -0.01647793    -0.07672975     0.04458160
     36      2      H          -0.01964836     0.00212283    -0.01504773
     37      1      O          -0.04339841     0.04666241    -0.07730887
     38      2      H           0.03544107    -0.06897358     0.00197550
     39      2      H          -0.01918182    -0.02718950     0.03946401
     40      1      O          -0.01541264     0.04737465     0.02044589
     41      2      H          -0.00340975    -0.01447284     0.00521358
     42      2      H           0.03061227     0.03192180    -0.00112292
     43      1      O          -0.00742181    -0.00308679    -0.04155671
     44      2      H           0.00252789    -0.00150659    -0.01817269
     45      2      H           0.04188671    -0.07520977     0.05040888
     46      1      O           0.05198009     0.11434901    -0.01378584
     47      2      H          -0.03949864     0.04505033    -0.02889640
     48      2      H          -0.00772995    -0.10401704     0.09961638
     49      1      O          -0.05394156     0.07817244    -0.08947930
     50      2      H           0.02153710    -0.05795314     0.00163004
     51      2      H           0.03140856    -0.02015086    -0.04143449
     52      1      O           0.00332455    -0.06888135    -0.07757179
     53      2      H           0.00589695    -0.04180339    -0.05696835
     54      2      H          -0.01372199    -0.01830511    -0.01846614
     55      1      O           0.06561081     0.01911002    -0.12368645
     56      2      H          -0.01290861    -0.01353521     0.02955679
     57      2      H          -0.03318522    -0.04185302    -0.00757998
     58      1      O           0.07209102     0.05117726     0.00388564
     59      2      H          -0.04593720     0.03077519    -0.00498600
     60      2      H          -0.01263875     0.03234897    -0.02819072
     61      1      O          -0.00717997    -0.00876658     0.08001916
     62      2      H           0.03148306    -0.01990698    -0.02303253
     63      2      H           0.01690975     0.00751175     0.04752990
     64      1      O           0.02405272     0.07293003     0.00925937
     65      2      H           0.00335871     0.02328731    -0.03933523
     66      2      H          -0.06305554     0.02302536    -0.00981622
     67      1      O           0.01358638     0.06723354    -0.13833289
     68      2      H          -0.01231288     0.00255653     0.05853787
     69      2      H          -0.01225178    -0.00850066     0.03519699
     70      1      O           0.04186440    -0.07656893    -0.06361133
     71      2      H          -0.01043204    -0.01670345     0.00330223
     72      2      H           0.00561916    -0.00722240    -0.01162540
     73      1      O           0.04373219     0.06245246     0.01185237
     74      2      H          -0.01260066    -0.01038318    -0.00940601
     75      2      H          -0.01399065    -0.00758518    -0.05641888
     76      1      O           0.04535649    -0.05371613    -0.08827784
     77      2      H          -0.01876779     0.01193472     0.01453076
     78      2      H          -0.00409292    -0.01972676     0.02163113
     79      1      O           0.00909878     0.06611259     0.11784451
     80      2      H           0.00605981    -0.01484482    -0.04252801
     81      2      H           0.00710215    -0.04800662     0.00892957
     82      1      O          -0.01373535     0.05845392     0.04044462
     83      2      H           0.00948602     0.00430857    -0.02997299
     84      2      H          -0.00472775    -0.00854971     0.02225839
     85      1      O          -0.01287454    -0.10277249     0.00912482
     86      2      H           0.03725782     0.03866050    -0.04747902
     87      2      H          -0.01746508     0.02105363     0.02193965
     88      1      O          -0.02739222     0.06735335     0.10685783
     89      2      H           0.03156746    -0.03349480     0.01363956
     90      2      H           0.01867261     0.01861440    -0.03852400
     91      1      O           0.05052372    -0.00877555     0.09227603
     92      2      H           0.00096909     0.03448651     0.01878512
     93      2      H          -0.05125390    -0.04325917     0.03397649
     94      1      O           0.00398281    -0.04653650    -0.11120027
     95      2      H           0.05664730     0.03741642    -0.00386386
     96      2      H          -0.04070680     0.02947880     0.00253051
     97      1      O          -0.03892687     0.04477710    -0.04806570
     98      2      H           0.03031527     0.02444924    -0.01338982
     99      2      H           0.02317412     0.02042542     0.00596577
    100      1      O           0.00250785     0.03928901    -0.04693122
    101      2      H          -0.00059763    -0.00193506    -0.01352796
    102      2      H          -0.01380490     0.01834456     0.00188085
    103      1      O          -0.00943769    -0.07283022     0.02596065
    104      2      H           0.01834297     0.02799266    -0.03828732
    105      2      H           0.03579304    -0.00886143    -0.02788641
    106      1      O          -0.00995156     0.06231445     0.06428411
    107      2      H           0.02292260     0.00080896    -0.08058727
    108      2      H           0.00890363    -0.04422844     0.00255514
    109      1      O           0.01947705     0.03956135     0.05588662
    110      2      H           0.01982813     0.01982177     0.00125159
    111      2      H          -0.00916073     0.01891721    -0.01621781
    112      1      O          -0.06243570     0.00394114     0.03366445
    113      2      H          -0.00592137     0.01869031    -0.00609481
    114      2      H           0.06857750    -0.02330071    -0.03746568
    115      1      O           0.02808162     0.05321279    -0.02704353
    116      2      H          -0.03023318     0.03796124    -0.01144445
    117      2      H           0.01501057    -0.00867078    -0.04453665
    118      1      O          -0.03665033    -0.02015493     0.11127038
    119      2      H           0.03678497     0.03866139     0.04551363
    120      2      H           0.00623873    -0.01912283    -0.04758012
    121      1      O          -0.00754896    -0.08618943    -0.13098364
    122      2      H          -0.00862704    -0.03995493    -0.00350078
    123      2      H          -0.00583585     0.01601766     0.01937249
    124      1      O           0.00695410    -0.04708134     0.03810615
    125      2      H          -0.01268046     0.00239469    -0.01097411
    126      2      H           0.03857881     0.00607794     0.01202007
    127      1      O           0.04132937     0.01815483    -0.15476994
    128      2      H           0.01425357    -0.00546633     0.02224536
    129      2      H          -0.06244383    -0.03037736     0.00826778
    130      1      O           0.00479798     0.05344810     0.11985866
    131      2      H          -0.01016873    -0.08088686     0.00608015
    132      2      H           0.03410011     0.01661777    -0.01076961
    133      1      O           0.01929572     0.08356101     0.06434798
    134      2      H           0.01615738     0.02248234     0.01856039
    135      2      H           0.00104887     0.02608126     0.01531466
    136      1      O          -0.06681161    -0.08588097    -0.11421624
    137      2      H           0.01387904     0.06550686     0.03148737
    138      2      H           0.01910577    -0.04550330    -0.00831246
    139      1      O          -0.00782372    -0.08659478    -0.02674639
    140      2      H          -0.00859533     0.02332354    -0.01620427
    141      2      H           0.01195216     0.01217721     0.00201090
    142      1      O           0.01626770     0.04096866     0.00654920
    143      2      H          -0.00623084    -0.03804998    -0.04386297
    144      2      H          -0.00454440     0.03565551     0.00170073
    145      1      O          -0.04480224    -0.11402779     0.10361831
    146      2      H          -0.03812956     0.00147636     0.02278501
    147      2      H           0.03794337     0.02825919    -0.04090713
    148      1      O          -0.00499109    -0.10559127     0.03983406
    149      2      H           0.01325869    -0.03534571     0.03087859
    150      2      H           0.03178620     0.02898152     0.04622602
    151      1      O           0.03110632     0.05099946    -0.05785640
    152      2      H           0.02031130     0.02042040     0.04516476
    153      2      H          -0.00789641     0.00725056    -0.05940098
    154      1      O          -0.02385458     0.08116445    -0.12984643
    155      2      H           0.02104788     0.04803989     0.01927289
    156      2      H          -0.03098000    -0.06335153     0.03438686
    157      1      O           0.02638967    -0.03651525    -0.09449871
    158      2      H           0.05387371    -0.00672049    -0.00765694
    159      2      H          -0.05285474    -0.01492160     0.03995033
    160      1      O          -0.00398171     0.02863518    -0.07966343
    161      2      H           0.01357991     0.00010825    -0.00171538
    162      2      H          -0.00658002    -0.02297532     0.01870614
    163      1      O          -0.00713146    -0.00018925     0.01520370
    164      2      H          -0.00974355    -0.01787709    -0.03729174
    165      2      H          -0.01096535     0.01911770     0.03145172
    166      1      O          -0.01604349    -0.06085636    -0.09753206
    167      2      H           0.01936564     0.01095784    -0.01156598
    168      2      H           0.02004085    -0.00250374     0.00730726
    169      1      O           0.05298795     0.08618057    -0.11389564
    170      2      H          -0.02413746    -0.02476670    -0.01005857
    171      2      H          -0.01729576     0.02340789     0.07011061
    172      1      O          -0.02494960    -0.05719867     0.06028091
    173      2      H          -0.01880111    -0.01896426     0.02456548
    174      2      H           0.01712335    -0.02615558    -0.04359786
    175      1      O           0.04468677    -0.08002256    -0.01687580
    176      2      H          -0.01511135     0.01331672     0.03463629
    177      2      H          -0.02999271     0.04752869     0.01366357
    178      1      O           0.02133515     0.03600526     0.01970642
    179      2      H          -0.00544378    -0.03415721     0.03719543
    180      2      H           0.00431094     0.02188233    -0.03718686
    181      1      O           0.00604428     0.09546844     0.02279136
    182      2      H          -0.00076676     0.00132224    -0.08094469
    183      2      H           0.00421066    -0.03059905     0.01929654
    184      1      O          -0.01324696    -0.06882804    -0.09000459
    185      2      H          -0.01082878    -0.01448528    -0.03063821
    186      2      H           0.00507037    -0.02246409     0.02994451
    187      1      O          -0.03952302    -0.06973974     0.06488261
    188      2      H          -0.00946387    -0.03068948    -0.01329104
    189      2      H          -0.00449515     0.01925148    -0.00552019
    190      1      O           0.04795354    -0.08821399    -0.11322890
    191      2      H          -0.01236348     0.00399823    -0.00015663
    192      2      H           0.01164913    -0.01417145    -0.01113059
 SUM OF ATOMIC FORCES           0.39233550    -0.01964590    -1.50488347     1.55530941

 -------------------------------------------------------------------------------
 -                                                                             -
 -                                DBCSR STATISTICS                             -
 -                                                                             -
 -------------------------------------------------------------------------------
 COUNTER                                    TOTAL       BLAS       SMM       ACC
 flops     5 x     5 x   256            808051200       0.0%    100.0%      0.0%
 flops     5 x    13 x   256           1005987840       0.0%    100.0%      0.0%
 flops    13 x     5 x   256           1022461440       0.0%    100.0%      0.0%
 flops    13 x    13 x   256           1424856576       0.0%    100.0%      0.0%
 flops inhomo. stacks                           0       0.0%      0.0%      0.0%
 flops total                         4.261357E+09       0.0%    100.0%      0.0%
 flops max/rank                      4.261357E+09       0.0%    100.0%      0.0%
 matmuls inhomo. stacks                         0       0.0%      0.0%      0.0%
 matmuls total                             140547       0.0%    100.0%      0.0%
 number of processed stacks                  2574       0.0%    100.0%      0.0%
 average stack size                                     0.0      54.6       0.0
 marketing flops                    36.609982E+09
 -------------------------------------------------------------------------------
 # multiplications                             33
 max memory usage/rank              25.806635E+09
 # max total images/rank                        1
 # max 3D layers                                1
 # MPI messages exchanged                       0
 MPI messages size (bytes):
  total size                         0.000000E+00
  min size                           0.000000E+00
  max size                           0.000000E+00
  average size                       0.000000E+00
 MPI breakdown and total messages size (bytes):
             size <=      128                   0                        0
       128 < size <=     8192                   0                        0
      8192 < size <=    32768                   0                        0
     32768 < size <=   131072                   0                        0
    131072 < size <=  4194304                   0                        0
   4194304 < size <= 16777216                   0                        0
  16777216 < size                               0                        0
 -------------------------------------------------------------------------------

 MEMORY| Estimated peak process memory [MiB]                               24613

 -------------------------------------------------------------------------------
 -                                                                             -
 -                           R E F E R E N C E S                               -
 -                                                                             -
 -------------------------------------------------------------------------------
 
 CP2K version 7.1, the CP2K developers group (2019).
 CP2K is freely available from https://www.cp2k.org/ .

 Schuett, Ole; Messmer, Peter; Hutter, Juerg; VandeVondele, Joost. 
 Electronic Structure Calculations on Graphics Processing Units, John
 Wiley & Sons, Ltd, 173-190 (2016). 
 GPU-Accelerated Sparse Matrix-Matrix Multiplication for
 Linear Scaling Density Functional Theory.
 https://dx.doi.org/10.1002/9781118670712.ch8

 Borstnik, U; VandeVondele, J; Weber, V; Hutter, J. 
 PARALLEL COMPUTING, 40 (5-6), 47-58 (2014). 
 Sparse matrix multiplication: The distributed block-compressed sparse
 row library.
 https://dx.doi.org/10.1016/j.parco.2014.03.012

 Hutter, J; Iannuzzi, M; Schiffmann, F; VandeVondele, J. 
 WIREs Comput Mol Sci., 4 (1), 15-25 (2014). 
 CP2K: atomistic simulations of condensed matter systems.
 https://dx.doi.org/10.1002/wcms.1159

 Krack, M. 
 THEORETICAL CHEMISTRY ACCOUNTS, 114 (1-3), 145-152 (2005). 
 Pseudopotentials for H to Kr optimized for gradient-corrected
 exchange-correlation functionals.
 https://dx.doi.org/10.1007/s00214-005-0655-y

 VandeVondele, J; Krack, M; Mohamed, F; Parrinello, M; Chassaing, T;
 Hutter, J. COMPUTER PHYSICS COMMUNICATIONS, 167 (2), 103-128 (2005). 
 QUICKSTEP: Fast and accurate density functional calculations using a
 mixed Gaussian and plane waves approach.
 https://dx.doi.org/10.1016/j.cpc.2004.12.014

 Frigo, M; Johnson, SG. 
 PROCEEDINGS OF THE IEEE, 93 (2), 216-231 (2005). 
 The design and implementation of FFTW3.
 https://dx.doi.org/10.1109/JPROC.2004.840301

 Hartwigsen, C; Goedecker, S; Hutter, J. 
 PHYSICAL REVIEW B, 58 (7), 3641-3662 (1998). 
 Relativistic separable dual-space Gaussian pseudopotentials from H to Rn.
 https://dx.doi.org/10.1103/PhysRevB.58.3641

 Lippert, G; Hutter, J; Parrinello, M. 
 MOLECULAR PHYSICS, 92 (3), 477-487 (1997). 
 A hybrid Gaussian and plane wave density functional scheme.
 https://dx.doi.org/10.1080/002689797170220

 Goedecker, S; Teter, M; Hutter, J. 
 PHYSICAL REVIEW B, 54 (3), 1703-1710 (1996). 
 Separable dual-space Gaussian pseudopotentials.
 https://dx.doi.org/10.1103/PhysRevB.54.1703


 -------------------------------------------------------------------------------
 -                                                                             -
 -                                T I M I N G                                  -
 -                                                                             -
 -------------------------------------------------------------------------------
 SUBROUTINE                       CALLS  ASD         SELF TIME        TOTAL TIME
                                MAXIMUM       AVERAGE  MAXIMUM  AVERAGE  MAXIMUM
 CP2K                                 1  1.0    0.729    0.729  828.810  828.810
 qs_forces                            1  2.0    0.000    0.000  817.226  817.226
 qs_energies                          1  3.0    0.000    0.000  812.269  812.269
 scf_env_do_scf                       1  4.0    0.000    0.000  799.952  799.952
 scf_env_do_scf_inner_loop           32  5.0    0.005    0.005  799.952  799.952
 gspace_mixing                       31  6.0    4.539    4.539  310.385  310.385
 broyden_mixing                      31  7.0  275.450  275.450  275.450  275.450
 qs_scf_new_mos                      32  6.0    0.001    0.001  211.198  211.198
 eigensolver                         32  7.0    0.004    0.004  202.804  202.804
 pw_transfer                        428  9.9    0.042    0.042  167.832  167.832
 fft_wrap_pw1pw2                    362 10.9    0.005    0.005  163.167  163.167
 rebuild_ks_matrix                   33  6.9    0.000    0.000  157.446  157.446
 qs_ks_build_kohn_sham_matrix        33  7.9    0.009    0.009  157.446  157.446
 qs_ks_update_qs_env                 32  6.0    0.000    0.000  152.689  152.689
 fft_wrap_pw1pw2_70                 164 11.2   13.081   13.081  147.760  147.760
 cp_fm_syevd                         32  8.0  137.308  137.308  137.479  137.479
 qs_rho_update_rho                   33  6.0    0.000    0.000  127.876  127.876
 calculate_rho_elec                  33  7.0   45.796   45.796  127.875  127.875
 fft3d_s                            363 12.8   82.388   82.388   82.398   82.398
 density_rs2pw                       33  8.0    0.006    0.006   80.729   80.729
 cp_fm_cholesky_restore              96  8.0   65.184   65.184   65.184   65.184
 sum_up_and_integrate                33  8.9    2.222    2.222   52.000   52.000
 integrate_v_rspace                  33  9.9    3.108    3.108   49.778   49.778
 pw_scatter_s                       196 13.1   49.057   49.057   49.057   49.057
 pw_poisson_solve                    33  8.9   39.762   39.762   44.682   44.682
 potential_pw2rs                     33 10.9    0.318    0.318   42.593   42.593
 qs_vxc_create                       33  8.9    0.001    0.001   22.063   22.063
 xc_vxc_pw_create                    33  9.9    4.838    4.838   22.062   22.062
 xc_rho_set_and_dset_create          33 10.9    0.001    0.001   17.224   17.224
 pw_gather_s                        166 12.6   16.701   16.701   16.701   16.701
 -------------------------------------------------------------------------------

 The number of warnings for this run is : 0
 
 -------------------------------------------------------------------------------
  **** **** ******  **  PROGRAM ENDED AT                 2020-05-21 18:38:43.265
 ***** ** ***  *** **   PROGRAM RAN ON                                   gnode39
 **    ****   ******    PROGRAM RAN BY                               mayank.modi
 ***** **    ** ** **   PROGRAM PROCESS ID                                 18448
  **** **  *******  **  PROGRAM STOPPED IN /home/mayank.modi/ab-initio-thermodyn
                                           amics-of-water/mayank/cp2k_energy_cal
                                           culations
