 DBCSR| CPU Multiplication driver                                           XSMM
 DBCSR| Multrec recursion limit                                              512
 DBCSR| Multiplication stack size                                           1000
 DBCSR| Maximum elements for images                                    UNLIMITED
 DBCSR| Multiplicative factor virtual images                                   1
 DBCSR| Use multiplication densification                                       T
 DBCSR| Multiplication size stacks                                             3


  **** **** ******  **  PROGRAM STARTED AT               2020-05-22 09:58:49.005
 ***** ** ***  *** **   PROGRAM STARTED ON                               gnode39
 **    ****   ******    PROGRAM STARTED BY                           mayank.modi
 ***** **    ** ** **   PROGRAM PROCESS ID                                 15827
  **** **  *******  **  PROGRAM STARTED IN /home/mayank.modi/ab-initio-thermodyn
                                           amics-of-water/mayank/cp2k_energy_cal
                                           culations

 CP2K| version string:                                          CP2K version 7.1
 CP2K| source code revision number:                                  git:e635599
 CP2K| cp2kflags: omp libint fftw3 libxc xsmm spglib                            
 CP2K| is freely available from                            https://www.cp2k.org/
 CP2K| Program compiled at                          Mon Dec 23 19:23:12 CET 2019
 CP2K| Program compiled on                                                pc9404
 CP2K| Program compiled for                                Linux-x86-64-gfortran
 CP2K| Data directory path                                        /opt/cp2k/data
 CP2K| Input file name                                             ./input184.in

 GLOBAL| Force Environment number                                              1
 GLOBAL| Basis set file name                                           BASIS_SET
 GLOBAL| Potential file name                                      GTH_POTENTIALS
 GLOBAL| MM Potential file name                                     MM_POTENTIAL
 GLOBAL| Coordinate file name                                      __STD_INPUT__
 GLOBAL| Method name                                                        CP2K
 GLOBAL| Project name                                                   H2O_bulk
 GLOBAL| Preferred FFT library                                             FFTW3
 GLOBAL| Preferred diagonalization lib.                                       SL
 GLOBAL| Run type                                                   ENERGY_FORCE
 GLOBAL| All-to-all communication in single precision                          F
 GLOBAL| FFTs using library dependent lengths                                  F
 GLOBAL| Global print level                                                  LOW
 GLOBAL| MPI I/O enabled                                                       T
 GLOBAL| Total number of message passing processes                             1
 GLOBAL| Number of threads for this process                                   20
 GLOBAL| This output is from process                                           0
 GLOBAL| CPU model name                Intel(R) Xeon(R) CPU E5-2640 v4 @ 2.40GHz
 GLOBAL| CPUID                                                              1002
 GLOBAL| Compiled for CPUID                                                    0

 MEMORY| system memory details [Kb]
 MEMORY|                        rank 0           min           max       average
 MEMORY| MemTotal            131898148     131898148     131898148     131898148
 MEMORY| MemFree              58850160      58850160      58850160      58850160
 MEMORY| Buffers               3188980       3188980       3188980       3188980
 MEMORY| Cached               35663948      35663948      35663948      35663948
 MEMORY| Slab                  4014660       4014660       4014660       4014660
 MEMORY| SReclaimable          3299116       3299116       3299116       3299116
 MEMORY| MemLikelyFree       101002204     101002204     101002204     101002204


 GENERATE|  Preliminary Number of Bonds generated:                             0
 GENERATE|  Achieved consistency in connectivity generation.

 *******************************************************************************
 *******************************************************************************
 **                                                                           **
 **     #####                         ##              ##                      **
 **    ##   ##            ##          ##              ##                      **
 **   ##     ##                       ##            ######                    **
 **   ##     ##  ##   ##  ##   #####  ##  ##   ####   ##    #####    #####    **
 **   ##     ##  ##   ##  ##  ##      ## ##   ##      ##   ##   ##  ##   ##   **
 **   ##  ## ##  ##   ##  ##  ##      ####     ###    ##   ######   ######    **
 **    ##  ###   ##   ##  ##  ##      ## ##      ##   ##   ##       ##        **
 **     #######   #####   ##   #####  ##  ##  ####    ##    #####   ##        **
 **           ##                                                    ##        **
 **                                                                           **
 **                                                ... make the atoms dance   **
 **                                                                           **
 **            Copyright (C) by CP2K developers group (2000 - 2019)           **
 **                                                                           **
 *******************************************************************************


 TOTAL NUMBERS AND MAXIMUM NUMBERS

  Total number of            - Atomic kinds:                                   2
                             - Atoms:                                        192
                             - Shell sets:                                   384
                             - Shells:                                       704
                             - Primitive Cartesian functions:                960
                             - Cartesian basis functions:                   1536
                             - Spherical basis functions:                   1472

  Maximum angular momentum of- Orbital basis functions:                        2
                             - Local part of the GTH pseudopotential:          2
                             - Non-local part of the GTH pseudopotential:      0


 SCF PARAMETERS         Density guess:                                    ATOMIC
                        --------------------------------------------------------
                        max_scf:                                             300
                        max_scf_history:                                       0
                        max_diis:                                              4
                        --------------------------------------------------------
                        eps_scf:                                        1.00E-07
                        eps_scf_history:                                0.00E+00
                        eps_diis:                                       1.00E-01
                        eps_eigval:                                     1.00E-05
                        --------------------------------------------------------
                        level_shift [a.u.]:                                 0.00
                        --------------------------------------------------------
                        Mixing method:                            BROYDEN_MIXING
                                                charge density mixing in g-space
                        --------------------------------------------------------
                        No outer SCF

 Number of electrons:                                                        512
 Number of occupied orbitals:                                                256
 Number of molecular orbitals:                                               256

 Number of orbital functions:                                               1472
 Number of independent orbital functions:                                   1472

 Extrapolation method: initial_guess


 SCF WAVEFUNCTION OPTIMIZATION

  Step     Update method      Time    Convergence         Total energy    Change
  ------------------------------------------------------------------------------
     1 NoMix/Diag. 0.40E+00   11.4     1.01554761     -1087.2727644144 -1.09E+03
     2 Broy./Diag. 0.40E+00   17.0     0.29166820     -1013.5127955056  7.38E+01
     3 Broy./Diag. 0.40E+00   18.0     0.02557487     -1094.9100244653 -8.14E+01
     4 Broy./Diag. 0.40E+00   18.7     0.02558034     -1094.3055001558  6.05E-01
     5 Broy./Diag. 0.40E+00   19.0     0.00278294     -1095.2192628629 -9.14E-01
     6 Broy./Diag. 0.40E+00   20.1     0.00413263     -1095.2553993744 -3.61E-02
     7 Broy./Diag. 0.40E+00   21.1     0.00248804     -1095.4048692302 -1.49E-01
     8 Broy./Diag. 0.40E+00   22.1     0.00306842     -1095.5284744358 -1.24E-01
     9 Broy./Diag. 0.40E+00   24.1     0.00295220     -1095.5962463524 -6.78E-02
    10 Broy./Diag. 0.40E+00   25.7     0.00152694     -1095.6269948460 -3.07E-02
    11 Broy./Diag. 0.40E+00   24.6     0.00137779     -1095.5988619090  2.81E-02
    12 Broy./Diag. 0.40E+00   25.4     0.00069277     -1095.6057766202 -6.91E-03
    13 Broy./Diag. 0.40E+00   25.9     0.00057403     -1095.6267952141 -2.10E-02
    14 Broy./Diag. 0.40E+00   25.5     0.00022283     -1095.6280977584 -1.30E-03
    15 Broy./Diag. 0.40E+00   24.3     0.00022350     -1095.6202504788  7.85E-03
    16 Broy./Diag. 0.40E+00   25.6     0.00012934     -1095.6199138775  3.37E-04
    17 Broy./Diag. 0.40E+00   26.5     0.00006502     -1095.6210183723 -1.10E-03
    18 Broy./Diag. 0.40E+00   24.8     0.00004533     -1095.6213206819 -3.02E-04
    19 Broy./Diag. 0.40E+00   26.0     0.00001574     -1095.6208136224  5.07E-04
    20 Broy./Diag. 0.40E+00   25.8     0.00001578     -1095.6200810141  7.33E-04
    21 Broy./Diag. 0.40E+00   25.7     0.00001207     -1095.6201429142 -6.19E-05
    22 Broy./Diag. 0.40E+00   25.1     0.00000567     -1095.6202647853 -1.22E-04
    23 Broy./Diag. 0.40E+00   26.3     0.00000529     -1095.6202744896 -9.70E-06
    24 Broy./Diag. 0.40E+00   25.9     0.00000170     -1095.6201871360  8.74E-05
    25 Broy./Diag. 0.40E+00   25.1     0.00000233     -1095.6201244590  6.27E-05
    26 Broy./Diag. 0.40E+00   25.4     0.00000105     -1095.6201327022 -8.24E-06
    27 Broy./Diag. 0.40E+00   25.3     0.00000069     -1095.6201439476 -1.12E-05
    28 Broy./Diag. 0.40E+00   24.9     0.00000093     -1095.6201456037 -1.66E-06
    29 Broy./Diag. 0.40E+00   25.5     0.00000031     -1095.6201355464  1.01E-05
    30 Broy./Diag. 0.40E+00   25.5     0.00000022     -1095.6201283896  7.16E-06
    31 Broy./Diag. 0.40E+00   24.9     0.00000014     -1095.6201277067  6.83E-07
    32 Broy./Diag. 0.40E+00   25.2     0.00000009     -1095.6201291419 -1.44E-06

  *** SCF run converged in    32 steps ***


  Electronic density on regular grids:       -512.0001143662       -0.0001143662
  Core density on regular grids:              512.0000695986        0.0000695986
  Total charge density on r-space grids:       -0.0000447676
  Total charge density g-space grids:          -0.0000447676

  Overlap energy of the core charge distribution:               0.00000452550513
  Self energy of the core charge distribution:              -2838.21791979120962
  Core Hamiltonian energy:                                    821.04443345056347
  Hartree energy:                                            1186.19025244365571
  Exchange-correlation energy:                               -264.63689977042031

  Total energy:                                             -1095.62012914190564

 ENERGY| Total FORCE_EVAL ( QS ) energy (a.u.):            -1095.620129537130197


 ATOMIC FORCES in [a.u.]

 # Atom   Kind   Element          X              Y              Z
      1      1      O          -0.02721685    -0.08856379     0.11907908
      2      2      H           0.01359587     0.01821017     0.00792091
      3      2      H           0.01568864     0.04808961    -0.02077794
      4      1      O           0.01415336    -0.07772462     0.11216578
      5      2      H          -0.03564966     0.03796184     0.02761453
      6      2      H          -0.00115907     0.02341086     0.00093685
      7      1      O           0.00064670    -0.03037343    -0.00516962
      8      2      H          -0.00783379    -0.05480378     0.00281320
      9      2      H          -0.01628568     0.02472962    -0.03001300
     10      1      O          -0.03459414    -0.01639426    -0.07121024
     11      2      H           0.03552563    -0.02856966    -0.03212114
     12      2      H          -0.03794212     0.02313583    -0.03319942
     13      1      O          -0.05971247    -0.09987761     0.09252107
     14      2      H          -0.00320611     0.02449176    -0.00904748
     15      2      H           0.02931457     0.03294938     0.05152105
     16      1      O           0.04413744    -0.09588414    -0.06371296
     17      2      H          -0.01942619     0.00535459     0.02026462
     18      2      H          -0.00384442    -0.01933719    -0.00922553
     19      1      O           0.06100957     0.03244249     0.14728590
     20      2      H          -0.01165683    -0.01424094     0.02417469
     21      2      H          -0.06328685    -0.02150023    -0.05427162
     22      1      O          -0.01518520    -0.09243652     0.07407599
     23      2      H          -0.02453209     0.02940013     0.02932195
     24      2      H           0.01339720    -0.00452228     0.01991855
     25      1      O          -0.07631214     0.02373502     0.00194796
     26      2      H           0.05619202    -0.00033410     0.01400261
     27      2      H           0.00846859     0.04276110     0.00549447
     28      1      O           0.02679513     0.03658979     0.03059162
     29      2      H           0.00445317     0.00518601     0.04834710
     30      2      H          -0.01330642    -0.01522063     0.04100152
     31      1      O          -0.00895476     0.11756242     0.03583751
     32      2      H           0.02442619    -0.03396848    -0.00536769
     33      2      H          -0.00651480     0.01110756    -0.01999175
     34      1      O          -0.00491399    -0.00948578    -0.00626983
     35      2      H          -0.00398912     0.01627903     0.00247951
     36      2      H           0.00671838    -0.00806052    -0.03414664
     37      1      O           0.04850694     0.08181146     0.06554564
     38      2      H          -0.02338438    -0.06056337    -0.01827865
     39      2      H           0.01139752    -0.03875088     0.04357495
     40      1      O          -0.02374229    -0.00913180     0.10869443
     41      2      H           0.00260552    -0.01640388     0.01965122
     42      2      H           0.00976641     0.04620368    -0.00241516
     43      1      O          -0.05104878     0.04493641     0.05627614
     44      2      H           0.00442247    -0.00278668    -0.03123228
     45      2      H          -0.00153094    -0.00165407     0.03658103
     46      1      O          -0.00186074     0.06032960     0.00979663
     47      2      H           0.00774663    -0.04710577     0.00130416
     48      2      H           0.01898418     0.01854340     0.00424038
     49      1      O           0.02239754    -0.00272587     0.05740331
     50      2      H           0.03312471    -0.00725822     0.01735058
     51      2      H          -0.02135143    -0.00937352    -0.00909869
     52      1      O           0.03425665     0.06372378     0.01612232
     53      2      H           0.00975190     0.00629125    -0.01602631
     54      2      H          -0.01033968     0.01522684    -0.00177983
     55      1      O           0.03833996    -0.01769253    -0.10512289
     56      2      H          -0.02634541    -0.02250128    -0.01751169
     57      2      H           0.00456014     0.01209151     0.01568311
     58      1      O           0.08597667     0.04625171    -0.02527674
     59      2      H          -0.04375064    -0.04185774     0.06821281
     60      2      H          -0.01648279    -0.01053528    -0.02145497
     61      1      O          -0.07247434     0.09000480    -0.00977173
     62      2      H          -0.00330613    -0.00690681     0.02636668
     63      2      H           0.05976504    -0.02343151     0.05790075
     64      1      O           0.02172099    -0.05816883    -0.08961103
     65      2      H           0.00377471    -0.01221127     0.00170736
     66      2      H          -0.02805250    -0.03273503    -0.04496253
     67      1      O          -0.00568958    -0.03491606     0.10735248
     68      2      H           0.01602897     0.01387124    -0.00510750
     69      2      H           0.02218537     0.01327237     0.03562130
     70      1      O           0.03118313     0.05070834    -0.05109446
     71      2      H          -0.01790853     0.00354927    -0.01349448
     72      2      H          -0.00781470     0.02153922    -0.00340969
     73      1      O           0.08854545     0.01479488    -0.09969273
     74      2      H          -0.07172389    -0.04793060     0.00172797
     75      2      H          -0.01161158     0.00805987    -0.00437820
     76      1      O          -0.00336917     0.08541729     0.11720770
     77      2      H          -0.00556744     0.01367703    -0.03940408
     78      2      H          -0.01402007    -0.00780766     0.00710149
     79      1      O          -0.01330411     0.06944774     0.03765051
     80      2      H          -0.01818314    -0.01333640    -0.00360755
     81      2      H           0.01255798     0.00601391     0.01120707
     82      1      O           0.01513828    -0.01362018    -0.04274893
     83      2      H          -0.00515814     0.00957174     0.03895269
     84      2      H           0.03720368     0.01724193    -0.03491006
     85      1      O          -0.01875965    -0.02407441    -0.04288274
     86      2      H          -0.00206806     0.02380636     0.05293413
     87      2      H           0.01802566     0.02769234    -0.02297571
     88      1      O          -0.03584326     0.07811261     0.04384525
     89      2      H           0.01547799    -0.04736308     0.01771978
     90      2      H          -0.00787563     0.03942528    -0.05484144
     91      1      O           0.03815699    -0.05284514     0.02358497
     92      2      H           0.01322925     0.00978686    -0.02501993
     93      2      H          -0.03677054    -0.01393312    -0.00521544
     94      1      O           0.00398684     0.01736783     0.07373808
     95      2      H           0.01746953     0.00772349    -0.03524156
     96      2      H          -0.00313233    -0.02782812    -0.00406301
     97      1      O           0.03479080     0.05725162    -0.10111309
     98      2      H          -0.03812207     0.03794945     0.01441606
     99      2      H           0.00708452    -0.02196452    -0.01031549
    100      1      O           0.05893717     0.05152469     0.02668427
    101      2      H           0.01543370    -0.02522825    -0.02550056
    102      2      H          -0.02874714    -0.00977638    -0.05613417
    103      1      O           0.02661739     0.05075608    -0.10768103
    104      2      H          -0.01377306     0.02620698    -0.00604367
    105      2      H          -0.01882797    -0.04562789     0.01543681
    106      1      O           0.03025245    -0.02837242     0.12117641
    107      2      H          -0.01305341    -0.04462994    -0.03737991
    108      2      H          -0.01781535     0.02209004    -0.02742680
    109      1      O          -0.06173761    -0.06090474     0.12841063
    110      2      H          -0.01036401    -0.01154279    -0.00283123
    111      2      H           0.03984466     0.01604359    -0.02123097
    112      1      O          -0.01662124    -0.03158655    -0.01168115
    113      2      H           0.02617922    -0.00859434    -0.00645649
    114      2      H           0.03050354     0.03972049    -0.06848254
    115      1      O           0.04086858     0.04266968     0.10598180
    116      2      H           0.01046588    -0.02383345     0.00403041
    117      2      H          -0.01462876     0.00155978     0.02543983
    118      1      O          -0.06780032    -0.04033588    -0.07487738
    119      2      H           0.06318371    -0.03237141    -0.00948081
    120      2      H          -0.00490966     0.03586531     0.03092674
    121      1      O           0.01932301    -0.01404698     0.06454092
    122      2      H           0.00124303    -0.04157605    -0.01369050
    123      2      H           0.01279233    -0.03086402     0.02137818
    124      1      O           0.05494932    -0.00308090    -0.09716450
    125      2      H          -0.03717351     0.00120693    -0.01075957
    126      2      H           0.01508868     0.03095257     0.00335652
    127      1      O           0.01277456     0.08456494     0.11260948
    128      2      H          -0.01611070     0.00998996    -0.03216754
    129      2      H           0.01816516    -0.04256951     0.01635959
    130      1      O          -0.02573176     0.08868110    -0.07377851
    131      2      H          -0.02981326    -0.06844109     0.00889405
    132      2      H           0.01431531     0.01118362     0.04164916
    133      1      O          -0.00950618    -0.03009428     0.09183251
    134      2      H          -0.00314908    -0.00856422    -0.01947734
    135      2      H           0.00892489    -0.01280379    -0.04803617
    136      1      O          -0.02104755     0.10462254     0.11614414
    137      2      H           0.00363001     0.01092956    -0.02525059
    138      2      H           0.01366365    -0.02034577    -0.04715731
    139      1      O           0.07186253     0.03829613     0.05028426
    140      2      H          -0.02692791    -0.04075518    -0.01146377
    141      2      H          -0.00647166     0.05075470    -0.00344615
    142      1      O          -0.05531786     0.12313452     0.08982388
    143      2      H           0.00372451    -0.00859195     0.02136880
    144      2      H           0.04300272    -0.04803232    -0.01357292
    145      1      O           0.06861267     0.04382194     0.13672026
    146      2      H          -0.05472639     0.03580165    -0.06183328
    147      2      H           0.01599410     0.01484037     0.04086437
    148      1      O          -0.03598415     0.00444150    -0.05837108
    149      2      H           0.05927944     0.06432965    -0.05037695
    150      2      H          -0.03824928    -0.02682508    -0.05146358
    151      1      O           0.06116688     0.01899598     0.02157518
    152      2      H          -0.03203624    -0.02543851     0.02346960
    153      2      H          -0.00562647    -0.00836596    -0.08176938
    154      1      O           0.05595921    -0.05641602     0.09616642
    155      2      H          -0.01885945     0.03586332     0.01128013
    156      2      H          -0.03152410    -0.00864084    -0.02551164
    157      1      O           0.02346017    -0.04112424    -0.03563600
    158      2      H           0.01314974    -0.00585129     0.01264602
    159      2      H          -0.03011284     0.00797046     0.00066282
    160      1      O          -0.01221169     0.00039300    -0.11017473
    161      2      H          -0.01772354     0.00073617    -0.03411187
    162      2      H          -0.00136041    -0.02618835    -0.02552434
    163      1      O           0.03754354     0.01156742    -0.04075380
    164      2      H          -0.00979467     0.03187012     0.01769811
    165      2      H          -0.03441980    -0.03537078     0.01677312
    166      1      O          -0.03116070    -0.04238059     0.03042291
    167      2      H           0.03649296     0.03211225    -0.01998048
    168      2      H           0.01046882    -0.02952664     0.04034640
    169      1      O           0.03309295    -0.08220373    -0.12745105
    170      2      H          -0.04642089     0.01195645     0.02520419
    171      2      H           0.00748626     0.02584060     0.01082258
    172      1      O           0.00917923    -0.03611320     0.03512268
    173      2      H           0.00474625     0.04032911     0.03412355
    174      2      H          -0.01246121     0.00409954    -0.02727311
    175      1      O          -0.03239419    -0.08332027     0.06445915
    176      2      H           0.01844515    -0.00163347    -0.02630635
    177      2      H          -0.00185197     0.02155814    -0.00130750
    178      1      O           0.02331641    -0.01650580     0.03443415
    179      2      H          -0.00830439     0.00548834     0.03148905
    180      2      H          -0.01322456    -0.05612804    -0.01107439
    181      1      O           0.01995118    -0.06623019     0.09304275
    182      2      H          -0.03129697     0.02739845    -0.05168209
    183      2      H          -0.00767157     0.03489860    -0.01948893
    184      1      O           0.08766647     0.09483300     0.10958005
    185      2      H           0.01363551    -0.10353313     0.03331402
    186      2      H          -0.06871727    -0.00423798     0.04754973
    187      1      O           0.01720778     0.05098605    -0.17069984
    188      2      H          -0.02783777     0.02217500     0.02137791
    189      2      H          -0.02042549    -0.07353337     0.06688626
    190      1      O           0.03146499    -0.07559096     0.04541975
    191      2      H          -0.04670260     0.04786655    -0.03265936
    192      2      H          -0.01425460    -0.00184888     0.04571548
 SUM OF ATOMIC FORCES           0.12575473     0.11773014     1.04107768     1.05523333

 -------------------------------------------------------------------------------
 -                                                                             -
 -                                DBCSR STATISTICS                             -
 -                                                                             -
 -------------------------------------------------------------------------------
 COUNTER                                    TOTAL       BLAS       SMM       ACC
 flops     5 x     5 x   256            723993600       0.0%    100.0%      0.0%
 flops    13 x     5 x   256            891770880       0.0%    100.0%      0.0%
 flops     5 x    13 x   256            914833920       0.0%    100.0%      0.0%
 flops    13 x    13 x   256           1270663680       0.0%    100.0%      0.0%
 flops inhomo. stacks                           0       0.0%      0.0%      0.0%
 flops total                         3.801262E+09       0.0%    100.0%      0.0%
 flops max/rank                      3.801262E+09       0.0%    100.0%      0.0%
 matmuls inhomo. stacks                         0       0.0%      0.0%      0.0%
 matmuls total                             125532       0.0%    100.0%      0.0%
 number of processed stacks                  2574       0.0%    100.0%      0.0%
 average stack size                                     0.0      48.8       0.0
 marketing flops                    36.609982E+09
 -------------------------------------------------------------------------------
 # multiplications                             33
 max memory usage/rank              25.805369E+09
 # max total images/rank                        1
 # max 3D layers                                1
 # MPI messages exchanged                       0
 MPI messages size (bytes):
  total size                         0.000000E+00
  min size                           0.000000E+00
  max size                           0.000000E+00
  average size                       0.000000E+00
 MPI breakdown and total messages size (bytes):
             size <=      128                   0                        0
       128 < size <=     8192                   0                        0
      8192 < size <=    32768                   0                        0
     32768 < size <=   131072                   0                        0
    131072 < size <=  4194304                   0                        0
   4194304 < size <= 16777216                   0                        0
  16777216 < size                               0                        0
 -------------------------------------------------------------------------------

 MEMORY| Estimated peak process memory [MiB]                               24612

 -------------------------------------------------------------------------------
 -                                                                             -
 -                           R E F E R E N C E S                               -
 -                                                                             -
 -------------------------------------------------------------------------------
 
 CP2K version 7.1, the CP2K developers group (2019).
 CP2K is freely available from https://www.cp2k.org/ .

 Schuett, Ole; Messmer, Peter; Hutter, Juerg; VandeVondele, Joost. 
 Electronic Structure Calculations on Graphics Processing Units, John
 Wiley & Sons, Ltd, 173-190 (2016). 
 GPU-Accelerated Sparse Matrix-Matrix Multiplication for
 Linear Scaling Density Functional Theory.
 https://dx.doi.org/10.1002/9781118670712.ch8

 Borstnik, U; VandeVondele, J; Weber, V; Hutter, J. 
 PARALLEL COMPUTING, 40 (5-6), 47-58 (2014). 
 Sparse matrix multiplication: The distributed block-compressed sparse
 row library.
 https://dx.doi.org/10.1016/j.parco.2014.03.012

 Hutter, J; Iannuzzi, M; Schiffmann, F; VandeVondele, J. 
 WIREs Comput Mol Sci., 4 (1), 15-25 (2014). 
 CP2K: atomistic simulations of condensed matter systems.
 https://dx.doi.org/10.1002/wcms.1159

 Krack, M. 
 THEORETICAL CHEMISTRY ACCOUNTS, 114 (1-3), 145-152 (2005). 
 Pseudopotentials for H to Kr optimized for gradient-corrected
 exchange-correlation functionals.
 https://dx.doi.org/10.1007/s00214-005-0655-y

 VandeVondele, J; Krack, M; Mohamed, F; Parrinello, M; Chassaing, T;
 Hutter, J. COMPUTER PHYSICS COMMUNICATIONS, 167 (2), 103-128 (2005). 
 QUICKSTEP: Fast and accurate density functional calculations using a
 mixed Gaussian and plane waves approach.
 https://dx.doi.org/10.1016/j.cpc.2004.12.014

 Frigo, M; Johnson, SG. 
 PROCEEDINGS OF THE IEEE, 93 (2), 216-231 (2005). 
 The design and implementation of FFTW3.
 https://dx.doi.org/10.1109/JPROC.2004.840301

 Hartwigsen, C; Goedecker, S; Hutter, J. 
 PHYSICAL REVIEW B, 58 (7), 3641-3662 (1998). 
 Relativistic separable dual-space Gaussian pseudopotentials from H to Rn.
 https://dx.doi.org/10.1103/PhysRevB.58.3641

 Lippert, G; Hutter, J; Parrinello, M. 
 MOLECULAR PHYSICS, 92 (3), 477-487 (1997). 
 A hybrid Gaussian and plane wave density functional scheme.
 https://dx.doi.org/10.1080/002689797170220

 Goedecker, S; Teter, M; Hutter, J. 
 PHYSICAL REVIEW B, 54 (3), 1703-1710 (1996). 
 Separable dual-space Gaussian pseudopotentials.
 https://dx.doi.org/10.1103/PhysRevB.54.1703


 -------------------------------------------------------------------------------
 -                                                                             -
 -                                T I M I N G                                  -
 -                                                                             -
 -------------------------------------------------------------------------------
 SUBROUTINE                       CALLS  ASD         SELF TIME        TOTAL TIME
                                MAXIMUM       AVERAGE  MAXIMUM  AVERAGE  MAXIMUM
 CP2K                                 1  1.0    0.709    0.709  788.342  788.342
 qs_forces                            1  2.0    0.000    0.000  777.055  777.055
 qs_energies                          1  3.0    0.000    0.000  772.118  772.118
 scf_env_do_scf                       1  4.0    0.000    0.000  760.157  760.157
 scf_env_do_scf_inner_loop           32  5.0    0.006    0.006  760.156  760.156
 gspace_mixing                       31  6.0    4.389    4.389  288.724  288.724
 broyden_mixing                      31  7.0  256.055  256.055  256.056  256.056
 qs_scf_new_mos                      32  6.0    0.001    0.001  208.732  208.732
 eigensolver                         32  7.0    0.003    0.003  200.489  200.489
 pw_transfer                        428  9.9    0.041    0.041  159.673  159.673
 fft_wrap_pw1pw2                    362 10.9    0.006    0.006  155.176  155.176
 rebuild_ks_matrix                   33  6.9    0.000    0.000  148.663  148.663
 qs_ks_build_kohn_sham_matrix        33  7.9    0.014    0.014  148.663  148.663
 qs_ks_update_qs_env                 32  6.0    0.000    0.000  143.883  143.883
 fft_wrap_pw1pw2_70                 164 11.2   11.390   11.390  140.543  140.543
 cp_fm_syevd                         32  8.0  136.423  136.423  136.567  136.567
 qs_rho_update_rho                   33  6.0    0.000    0.000  121.671  121.671
 calculate_rho_elec                  33  7.0   43.349   43.349  121.671  121.671
 fft3d_s                            363 12.8   78.153   78.153   78.162   78.162
 density_rs2pw                       33  8.0    0.006    0.006   77.127   77.127
 cp_fm_cholesky_restore              96  8.0   63.803   63.803   63.803   63.803
 sum_up_and_integrate                33  8.9    2.233    2.233   48.126   48.126
 pw_scatter_s                       196 13.1   46.803   46.803   46.803   46.803
 integrate_v_rspace                  33  9.9    2.833    2.833   45.894   45.894
 pw_poisson_solve                    33  8.9   37.726   37.726   42.494   42.494
 potential_pw2rs                     33 10.9    0.299    0.299   40.304   40.304
 qs_vxc_create                       33  8.9    0.001    0.001   21.309   21.309
 xc_vxc_pw_create                    33  9.9    4.723    4.723   21.308   21.308
 pw_gather_s                        166 12.6   17.077   17.077   17.077   17.077
 xc_rho_set_and_dset_create          33 10.9    0.001    0.001   16.584   16.584
 -------------------------------------------------------------------------------

 The number of warnings for this run is : 0
 
 -------------------------------------------------------------------------------
  **** **** ******  **  PROGRAM ENDED AT                 2020-05-22 10:11:57.448
 ***** ** ***  *** **   PROGRAM RAN ON                                   gnode39
 **    ****   ******    PROGRAM RAN BY                               mayank.modi
 ***** **    ** ** **   PROGRAM PROCESS ID                                 15827
  **** **  *******  **  PROGRAM STOPPED IN /home/mayank.modi/ab-initio-thermodyn
                                           amics-of-water/mayank/cp2k_energy_cal
                                           culations
