 DBCSR| CPU Multiplication driver                                           XSMM
 DBCSR| Multrec recursion limit                                              512
 DBCSR| Multiplication stack size                                           1000
 DBCSR| Maximum elements for images                                    UNLIMITED
 DBCSR| Multiplicative factor virtual images                                   1
 DBCSR| Use multiplication densification                                       T
 DBCSR| Multiplication size stacks                                             3


  **** **** ******  **  PROGRAM STARTED AT               2020-05-21 08:43:41.926
 ***** ** ***  *** **   PROGRAM STARTED ON                               gnode39
 **    ****   ******    PROGRAM STARTED BY                           mayank.modi
 ***** **    ** ** **   PROGRAM PROCESS ID                                 14255
  **** **  *******  **  PROGRAM STARTED IN /home/mayank.modi/ab-initio-thermodyn
                                           amics-of-water/mayank/cp2k_energy_cal
                                           culations

 CP2K| version string:                                          CP2K version 7.1
 CP2K| source code revision number:                                  git:e635599
 CP2K| cp2kflags: omp libint fftw3 libxc xsmm spglib                            
 CP2K| is freely available from                            https://www.cp2k.org/
 CP2K| Program compiled at                          Mon Dec 23 19:23:12 CET 2019
 CP2K| Program compiled on                                                pc9404
 CP2K| Program compiled for                                Linux-x86-64-gfortran
 CP2K| Data directory path                                        /opt/cp2k/data
 CP2K| Input file name                                              ./input72.in

 GLOBAL| Force Environment number                                              1
 GLOBAL| Basis set file name                                           BASIS_SET
 GLOBAL| Potential file name                                      GTH_POTENTIALS
 GLOBAL| MM Potential file name                                     MM_POTENTIAL
 GLOBAL| Coordinate file name                                      __STD_INPUT__
 GLOBAL| Method name                                                        CP2K
 GLOBAL| Project name                                                   H2O_bulk
 GLOBAL| Preferred FFT library                                             FFTW3
 GLOBAL| Preferred diagonalization lib.                                       SL
 GLOBAL| Run type                                                   ENERGY_FORCE
 GLOBAL| All-to-all communication in single precision                          F
 GLOBAL| FFTs using library dependent lengths                                  F
 GLOBAL| Global print level                                                  LOW
 GLOBAL| MPI I/O enabled                                                       T
 GLOBAL| Total number of message passing processes                             1
 GLOBAL| Number of threads for this process                                   20
 GLOBAL| This output is from process                                           0
 GLOBAL| CPU model name                Intel(R) Xeon(R) CPU E5-2640 v4 @ 2.40GHz
 GLOBAL| CPUID                                                              1002
 GLOBAL| Compiled for CPUID                                                    0

 MEMORY| system memory details [Kb]
 MEMORY|                        rank 0           min           max       average
 MEMORY| MemTotal            131898148     131898148     131898148     131898148
 MEMORY| MemFree              88696740      88696740      88696740      88696740
 MEMORY| Buffers               3187120       3187120       3187120       3187120
 MEMORY| Cached               34124832      34124832      34124832      34124832
 MEMORY| Slab                  3930160       3930160       3930160       3930160
 MEMORY| SReclaimable          3268508       3268508       3268508       3268508
 MEMORY| MemLikelyFree       129277200     129277200     129277200     129277200


 GENERATE|  Preliminary Number of Bonds generated:                             0
 GENERATE|  Achieved consistency in connectivity generation.

 *******************************************************************************
 *******************************************************************************
 **                                                                           **
 **     #####                         ##              ##                      **
 **    ##   ##            ##          ##              ##                      **
 **   ##     ##                       ##            ######                    **
 **   ##     ##  ##   ##  ##   #####  ##  ##   ####   ##    #####    #####    **
 **   ##     ##  ##   ##  ##  ##      ## ##   ##      ##   ##   ##  ##   ##   **
 **   ##  ## ##  ##   ##  ##  ##      ####     ###    ##   ######   ######    **
 **    ##  ###   ##   ##  ##  ##      ## ##      ##   ##   ##       ##        **
 **     #######   #####   ##   #####  ##  ##  ####    ##    #####   ##        **
 **           ##                                                    ##        **
 **                                                                           **
 **                                                ... make the atoms dance   **
 **                                                                           **
 **            Copyright (C) by CP2K developers group (2000 - 2019)           **
 **                                                                           **
 *******************************************************************************


 TOTAL NUMBERS AND MAXIMUM NUMBERS

  Total number of            - Atomic kinds:                                   2
                             - Atoms:                                        192
                             - Shell sets:                                   384
                             - Shells:                                       704
                             - Primitive Cartesian functions:                960
                             - Cartesian basis functions:                   1536
                             - Spherical basis functions:                   1472

  Maximum angular momentum of- Orbital basis functions:                        2
                             - Local part of the GTH pseudopotential:          2
                             - Non-local part of the GTH pseudopotential:      0


 SCF PARAMETERS         Density guess:                                    ATOMIC
                        --------------------------------------------------------
                        max_scf:                                             300
                        max_scf_history:                                       0
                        max_diis:                                              4
                        --------------------------------------------------------
                        eps_scf:                                        1.00E-07
                        eps_scf_history:                                0.00E+00
                        eps_diis:                                       1.00E-01
                        eps_eigval:                                     1.00E-05
                        --------------------------------------------------------
                        level_shift [a.u.]:                                 0.00
                        --------------------------------------------------------
                        Mixing method:                            BROYDEN_MIXING
                                                charge density mixing in g-space
                        --------------------------------------------------------
                        No outer SCF

 Number of electrons:                                                        512
 Number of occupied orbitals:                                                256
 Number of molecular orbitals:                                               256

 Number of orbital functions:                                               1472
 Number of independent orbital functions:                                   1472

 Extrapolation method: initial_guess


 SCF WAVEFUNCTION OPTIMIZATION

  Step     Update method      Time    Convergence         Total energy    Change
  ------------------------------------------------------------------------------
     1 NoMix/Diag. 0.40E+00   10.6     1.01849222     -1087.3419338175 -1.09E+03
     2 Broy./Diag. 0.40E+00   15.7     0.29602906     -1013.1056958477  7.42E+01
     3 Broy./Diag. 0.40E+00   18.4     0.02400329     -1094.7646905839 -8.17E+01
     4 Broy./Diag. 0.40E+00   18.3     0.02560274     -1094.3741224588  3.91E-01
     5 Broy./Diag. 0.40E+00   18.5     0.00243521     -1095.2821724385 -9.08E-01
     6 Broy./Diag. 0.40E+00   20.2     0.00384289     -1095.3249544381 -4.28E-02
     7 Broy./Diag. 0.40E+00   21.1     0.00234271     -1095.4698450797 -1.45E-01
     8 Broy./Diag. 0.40E+00   22.5     0.00324978     -1095.5944566039 -1.25E-01
     9 Broy./Diag. 0.40E+00   23.2     0.00304644     -1095.6609193412 -6.65E-02
    10 Broy./Diag. 0.40E+00   23.8     0.00150662     -1095.6886755791 -2.78E-02
    11 Broy./Diag. 0.40E+00   24.7     0.00120333     -1095.6597204312  2.90E-02
    12 Broy./Diag. 0.40E+00   25.5     0.00047172     -1095.6673964431 -7.68E-03
    13 Broy./Diag. 0.40E+00   24.3     0.00045381     -1095.6860290247 -1.86E-02
    14 Broy./Diag. 0.40E+00   25.4     0.00020464     -1095.6883530718 -2.32E-03
    15 Broy./Diag. 0.40E+00   25.2     0.00021586     -1095.6834038223  4.95E-03
    16 Broy./Diag. 0.40E+00   24.7     0.00013982     -1095.6852184885 -1.81E-03
    17 Broy./Diag. 0.40E+00   25.6     0.00005075     -1095.6862433583 -1.02E-03
    18 Broy./Diag. 0.40E+00   24.4     0.00003508     -1095.6857539758  4.89E-04
    19 Broy./Diag. 0.40E+00   24.7     0.00001871     -1095.6855551700  1.99E-04
    20 Broy./Diag. 0.40E+00   25.0     0.00001459     -1095.6853245007  2.31E-04
    21 Broy./Diag. 0.40E+00   24.4     0.00001020     -1095.6856923167 -3.68E-04
    22 Broy./Diag. 0.40E+00   24.8     0.00000605     -1095.6858351317 -1.43E-04
    23 Broy./Diag. 0.40E+00   25.1     0.00000767     -1095.6857657880  6.93E-05
    24 Broy./Diag. 0.40E+00   24.6     0.00000272     -1095.6857172564  4.85E-05
    25 Broy./Diag. 0.40E+00   25.3     0.00000325     -1095.6856971213  2.01E-05
    26 Broy./Diag. 0.40E+00   24.7     0.00000162     -1095.6856906179  6.50E-06
    27 Broy./Diag. 0.40E+00   24.4     0.00000069     -1095.6856863013  4.32E-06
    28 Broy./Diag. 0.40E+00   24.8     0.00000068     -1095.6856767484  9.55E-06
    29 Broy./Diag. 0.40E+00   25.7     0.00000028     -1095.6856742692  2.48E-06
    30 Broy./Diag. 0.40E+00   24.6     0.00000021     -1095.6856767019 -2.43E-06
    31 Broy./Diag. 0.40E+00   24.4     0.00000022     -1095.6856763502  3.52E-07
    32 Broy./Diag. 0.40E+00   24.8     0.00000011     -1095.6856769267 -5.77E-07
    33 Broy./Diag. 0.40E+00   25.3     0.00000013     -1095.6856776688 -7.42E-07
    34 Broy./Diag. 0.40E+00   24.5     0.00000006     -1095.6856784465 -7.78E-07

  *** SCF run converged in    34 steps ***


  Electronic density on regular grids:       -512.0004832829       -0.0004832829
  Core density on regular grids:              511.9999333380       -0.0000666620
  Total charge density on r-space grids:       -0.0005499449
  Total charge density g-space grids:          -0.0005499449

  Overlap energy of the core charge distribution:               0.00000459503777
  Self energy of the core charge distribution:              -2838.21791979120962
  Core Hamiltonian energy:                                    821.66185834561600
  Hartree energy:                                            1185.67047106786686
  Exchange-correlation energy:                               -264.80009266385872

  Total energy:                                             -1095.68567844654763

 ENERGY| Total FORCE_EVAL ( QS ) energy (a.u.):            -1095.685679052357273


 ATOMIC FORCES in [a.u.]

 # Atom   Kind   Element          X              Y              Z
      1      1      O           0.00319692    -0.01819766    -0.08681579
      2      2      H          -0.03272045    -0.03019827    -0.00374430
      3      2      H          -0.00728325     0.06040658     0.04106659
      4      1      O           0.01572710    -0.03606400     0.00089395
      5      2      H           0.00831868    -0.00155278    -0.02019489
      6      2      H          -0.00224251     0.00036631    -0.06033226
      7      1      O          -0.00360133     0.01673576     0.14091257
      8      2      H          -0.00121650    -0.05553612     0.02966864
      9      2      H           0.00569621    -0.01439069    -0.06103554
     10      1      O           0.00618858     0.09389814    -0.06492461
     11      2      H           0.01729710    -0.02188613     0.02314115
     12      2      H           0.02712780    -0.02509030    -0.01198501
     13      1      O           0.02449763    -0.09391144    -0.05661229
     14      2      H           0.00793684    -0.00906890    -0.02281045
     15      2      H          -0.00091461     0.03633114     0.02249513
     16      1      O          -0.00881080     0.02872296    -0.01319630
     17      2      H           0.00010711     0.01800748     0.01904938
     18      2      H           0.00929401     0.05058954     0.02208206
     19      1      O          -0.00804593     0.06402359    -0.01940663
     20      2      H           0.01774125    -0.06040294    -0.01969947
     21      2      H           0.02328385     0.00133511    -0.00896595
     22      1      O          -0.01134472    -0.01092408    -0.08653163
     23      2      H           0.03017882    -0.01889363    -0.00514788
     24      2      H          -0.05506989     0.08011408    -0.00080318
     25      1      O           0.05302193     0.06717605    -0.12544626
     26      2      H           0.01483568    -0.03325261    -0.00732580
     27      2      H          -0.02051690     0.00310706    -0.02457030
     28      1      O          -0.01464519    -0.02547217    -0.09265140
     29      2      H           0.02197016    -0.00045754     0.06581845
     30      2      H          -0.04492866    -0.00154612     0.01455562
     31      1      O           0.01473892    -0.02571268     0.09516675
     32      2      H          -0.00703041    -0.03199132     0.03671446
     33      2      H          -0.00848500     0.08489225     0.05914401
     34      1      O           0.02265485     0.10555075     0.08189997
     35      2      H          -0.00631864    -0.02897636    -0.03101929
     36      2      H           0.00000275     0.03870073     0.00116109
     37      1      O          -0.03406690    -0.01356988    -0.11333174
     38      2      H           0.03479444    -0.04093653    -0.02575687
     39      2      H          -0.02649320    -0.02817224    -0.05101344
     40      1      O          -0.01000438    -0.02300632     0.02700379
     41      2      H          -0.02051129    -0.00766113    -0.00110989
     42      2      H           0.02509671     0.01131908    -0.04957518
     43      1      O          -0.03585022     0.09072545     0.04178367
     44      2      H          -0.01361040    -0.02190863     0.07078730
     45      2      H           0.00853684    -0.00665463     0.02313701
     46      1      O          -0.00718546    -0.05747509     0.00240657
     47      2      H           0.00380117     0.02011085     0.00843513
     48      2      H           0.00474941     0.03464038    -0.02905116
     49      1      O           0.03973074    -0.05336150     0.08100859
     50      2      H          -0.02677176    -0.03748817     0.00685030
     51      2      H           0.01086671    -0.02064137    -0.03663622
     52      1      O           0.00343556    -0.09059831     0.08744231
     53      2      H           0.02899895     0.00966525    -0.01877284
     54      2      H          -0.01554814     0.01526764     0.01962863
     55      1      O           0.02998826    -0.07048851    -0.10733095
     56      2      H          -0.00119504     0.10603294    -0.03213182
     57      2      H          -0.01597461    -0.02793631     0.03068974
     58      1      O           0.02676450    -0.08259013     0.10616164
     59      2      H          -0.01121905     0.01117830     0.03145157
     60      2      H           0.00476116     0.01491813    -0.00114713
     61      1      O          -0.00077603     0.02067375    -0.05927038
     62      2      H           0.03146527    -0.03982861    -0.03500745
     63      2      H           0.00374751     0.04818262     0.01952872
     64      1      O          -0.06201413     0.02204112    -0.04348141
     65      2      H           0.03712379    -0.00712280    -0.07050487
     66      2      H          -0.01929314     0.01747723    -0.01186092
     67      1      O          -0.01502638    -0.01277329     0.03728652
     68      2      H          -0.03969437    -0.01766436     0.01162215
     69      2      H           0.03218679     0.02095634    -0.02587461
     70      1      O          -0.01178175    -0.12114533    -0.02729551
     71      2      H          -0.01735618     0.04731191    -0.03967045
     72      2      H           0.02126457     0.01890939     0.02075145
     73      1      O           0.02184204     0.02088805    -0.02703543
     74      2      H           0.00803442    -0.02559695     0.05698906
     75      2      H          -0.01143880    -0.01018180    -0.05673527
     76      1      O           0.09553736    -0.02967554     0.13952753
     77      2      H          -0.01389288    -0.06717594    -0.04204728
     78      2      H          -0.05692063     0.07726238     0.01136062
     79      1      O          -0.03577600     0.01310214     0.11005788
     80      2      H           0.01485240    -0.01383767     0.00063988
     81      2      H          -0.00967558     0.00356117    -0.04978562
     82      1      O          -0.05054775     0.00378313    -0.09317942
     83      2      H           0.01535008    -0.04223360     0.00242922
     84      2      H           0.03246664    -0.01272734     0.03863192
     85      1      O           0.00608846    -0.04618642     0.07120472
     86      2      H           0.03005862    -0.02045343    -0.00821123
     87      2      H          -0.01753006     0.04595736     0.01122196
     88      1      O          -0.05900788     0.01401648    -0.04865967
     89      2      H          -0.00919710    -0.05523539     0.02999667
     90      2      H           0.01003007     0.03920424    -0.06663970
     91      1      O           0.00416313    -0.07372668     0.04158796
     92      2      H           0.00403612     0.00486299    -0.00101854
     93      2      H          -0.03505877     0.00155100    -0.03420579
     94      1      O          -0.06029111    -0.04325950    -0.06788167
     95      2      H           0.03688182     0.01068130    -0.04852752
     96      2      H           0.00108206    -0.02804746     0.06455167
     97      1      O          -0.08649260    -0.03994046    -0.07451945
     98      2      H           0.01002263     0.08990744     0.00517685
     99      2      H           0.04710854     0.00925117     0.06177886
    100      1      O          -0.00580672     0.03058243    -0.08860450
    101      2      H          -0.01302421     0.02425658     0.02993328
    102      2      H          -0.02565886     0.00596336    -0.01036607
    103      1      O           0.00482966    -0.10799346     0.07808637
    104      2      H           0.02794794     0.04339347    -0.03140388
    105      2      H          -0.00763380     0.01990482    -0.04882350
    106      1      O          -0.00295919     0.03120932     0.15582217
    107      2      H           0.01309167    -0.01489526    -0.01370526
    108      2      H           0.01347476    -0.04491555    -0.03064246
    109      1      O           0.01389793    -0.06331198    -0.08919853
    110      2      H           0.01115796     0.02276181     0.02496405
    111      2      H          -0.00224266     0.00383448     0.04248162
    112      1      O          -0.01581873     0.00263484     0.01816651
    113      2      H          -0.00299763     0.03765528     0.07778067
    114      2      H           0.04888664    -0.02286657    -0.05037893
    115      1      O          -0.01956520     0.09209179     0.00694951
    116      2      H          -0.02287498     0.02802975    -0.04594302
    117      2      H           0.01918184    -0.04416028    -0.00154574
    118      1      O          -0.02640932    -0.07056923     0.02635446
    119      2      H           0.02511720     0.02234012     0.04553770
    120      2      H           0.00690608    -0.03795552    -0.05405345
    121      1      O           0.00494117    -0.00848471     0.04256064
    122      2      H          -0.00618463    -0.05661503     0.03756892
    123      2      H          -0.01546403     0.02577667     0.05156890
    124      1      O          -0.02449789    -0.05669727    -0.02705350
    125      2      H           0.01305027    -0.02595237     0.02521902
    126      2      H           0.00845587    -0.00086351    -0.01662040
    127      1      O           0.03827471     0.08009520    -0.13107688
    128      2      H          -0.03228589     0.02753626     0.02242069
    129      2      H          -0.00940183    -0.02632469     0.06658993
    130      1      O           0.00278840     0.06765201     0.01171589
    131      2      H          -0.02181837    -0.02179800     0.06203753
    132      2      H          -0.01793635     0.00365960    -0.00112708
    133      1      O          -0.04632954     0.04585619    -0.09385455
    134      2      H           0.03372831     0.01074261    -0.04764726
    135      2      H           0.01079053    -0.02287337     0.01081843
    136      1      O          -0.05989910     0.04529026    -0.04367414
    137      2      H           0.05065550     0.02635741     0.00123401
    138      2      H           0.03137432    -0.03378307    -0.01182964
    139      1      O           0.01675592    -0.07092535     0.10734293
    140      2      H          -0.02454657    -0.02760461     0.00747803
    141      2      H          -0.01774934    -0.03888859    -0.03074120
    142      1      O          -0.05876575     0.01115270     0.11709376
    143      2      H           0.01943222     0.01605145    -0.03176966
    144      2      H           0.01511821    -0.02199451    -0.07411431
    145      1      O          -0.06791424     0.02960280    -0.04522095
    146      2      H           0.02586916     0.00364447    -0.03496732
    147      2      H           0.03182241     0.02330684    -0.01449751
    148      1      O          -0.01780628     0.00058257     0.06845525
    149      2      H           0.02541181     0.04138714     0.01726585
    150      2      H           0.00901502     0.02075612    -0.05619479
    151      1      O           0.04631789     0.04337108    -0.07926394
    152      2      H          -0.01865068    -0.02396783    -0.02532672
    153      2      H           0.00291194    -0.02618347    -0.03893740
    154      1      O          -0.00612192     0.00961547    -0.08349480
    155      2      H           0.00072296     0.03983402    -0.03321404
    156      2      H          -0.00998878    -0.03735212     0.03418053
    157      1      O           0.04028610     0.10622171    -0.05949645
    158      2      H           0.02622566    -0.02094675     0.03529865
    159      2      H          -0.01726646    -0.00243806     0.03545523
    160      1      O          -0.04358830    -0.02239348     0.12343080
    161      2      H           0.00279184    -0.02932299    -0.01571450
    162      2      H           0.02279504    -0.02821519     0.02422606
    163      1      O          -0.01137944     0.05645754    -0.07240750
    164      2      H          -0.01699719     0.00229931     0.04803626
    165      2      H          -0.01034407     0.00931853     0.00984077
    166      1      O          -0.00567913    -0.06942053    -0.05081946
    167      2      H           0.00863325     0.01125305    -0.03444572
    168      2      H           0.01317522     0.01051536     0.03379363
    169      1      O           0.02218107     0.03579628    -0.04925978
    170      2      H          -0.03128708     0.02788765    -0.01725910
    171      2      H          -0.01009321     0.01925761     0.00575591
    172      1      O          -0.04890375    -0.05078343    -0.09191927
    173      2      H           0.01072414    -0.00579084    -0.00512735
    174      2      H           0.00255323     0.02972462    -0.04242668
    175      1      O           0.02392097    -0.08519860    -0.14779536
    176      2      H          -0.03644960     0.04084526     0.05841357
    177      2      H           0.00794006    -0.00460981    -0.03929690
    178      1      O          -0.07795450    -0.07244609    -0.11820598
    179      2      H           0.03019704    -0.03172776     0.03240076
    180      2      H           0.00870115     0.02810281     0.03929690
    181      1      O           0.08598149     0.08502004     0.04555642
    182      2      H          -0.04752897    -0.06739697     0.00022198
    183      2      H           0.00152154     0.01298861    -0.03112318
    184      1      O          -0.01788432     0.08228360    -0.09278462
    185      2      H           0.01040285    -0.03477420    -0.02857603
    186      2      H           0.00881438     0.01047089    -0.00437656
    187      1      O           0.01028405    -0.04761623     0.07576155
    188      2      H           0.02880644    -0.04593933    -0.01990533
    189      2      H          -0.04446982    -0.01665643    -0.02513866
    190      1      O           0.01878759     0.02980121    -0.09667072
    191      2      H          -0.02947671     0.06697188    -0.02356996
    192      2      H          -0.01334856     0.01915048     0.01678169
 SUM OF ATOMIC FORCES          -0.16104563    -0.16078794    -0.97330266     0.99955316

 -------------------------------------------------------------------------------
 -                                                                             -
 -                                DBCSR STATISTICS                             -
 -                                                                             -
 -------------------------------------------------------------------------------
 COUNTER                                    TOTAL       BLAS       SMM       ACC
 flops     5 x     5 x   256            889728000       0.0%    100.0%      0.0%
 flops    13 x     5 x   256           1114713600       0.0%    100.0%      0.0%
 flops     5 x    13 x   256           1126361600       0.0%    100.0%      0.0%
 flops    13 x    13 x   256           1550581760       0.0%    100.0%      0.0%
 flops inhomo. stacks                           0       0.0%      0.0%      0.0%
 flops total                         4.681385E+09       0.0%    100.0%      0.0%
 flops max/rank                      4.681385E+09       0.0%    100.0%      0.0%
 matmuls inhomo. stacks                         0       0.0%      0.0%      0.0%
 matmuls total                             154770       0.0%    100.0%      0.0%
 number of processed stacks                  2730       0.0%    100.0%      0.0%
 average stack size                                     0.0      56.7       0.0
 marketing flops                    38.828769E+09
 -------------------------------------------------------------------------------
 # multiplications                             35
 max memory usage/rank              25.807053E+09
 # max total images/rank                        1
 # max 3D layers                                1
 # MPI messages exchanged                       0
 MPI messages size (bytes):
  total size                         0.000000E+00
  min size                           0.000000E+00
  max size                           0.000000E+00
  average size                       0.000000E+00
 MPI breakdown and total messages size (bytes):
             size <=      128                   0                        0
       128 < size <=     8192                   0                        0
      8192 < size <=    32768                   0                        0
     32768 < size <=   131072                   0                        0
    131072 < size <=  4194304                   0                        0
   4194304 < size <= 16777216                   0                        0
  16777216 < size                               0                        0
 -------------------------------------------------------------------------------

 MEMORY| Estimated peak process memory [MiB]                               24614

 -------------------------------------------------------------------------------
 -                                                                             -
 -                           R E F E R E N C E S                               -
 -                                                                             -
 -------------------------------------------------------------------------------
 
 CP2K version 7.1, the CP2K developers group (2019).
 CP2K is freely available from https://www.cp2k.org/ .

 Schuett, Ole; Messmer, Peter; Hutter, Juerg; VandeVondele, Joost. 
 Electronic Structure Calculations on Graphics Processing Units, John
 Wiley & Sons, Ltd, 173-190 (2016). 
 GPU-Accelerated Sparse Matrix-Matrix Multiplication for
 Linear Scaling Density Functional Theory.
 https://dx.doi.org/10.1002/9781118670712.ch8

 Borstnik, U; VandeVondele, J; Weber, V; Hutter, J. 
 PARALLEL COMPUTING, 40 (5-6), 47-58 (2014). 
 Sparse matrix multiplication: The distributed block-compressed sparse
 row library.
 https://dx.doi.org/10.1016/j.parco.2014.03.012

 Hutter, J; Iannuzzi, M; Schiffmann, F; VandeVondele, J. 
 WIREs Comput Mol Sci., 4 (1), 15-25 (2014). 
 CP2K: atomistic simulations of condensed matter systems.
 https://dx.doi.org/10.1002/wcms.1159

 Krack, M. 
 THEORETICAL CHEMISTRY ACCOUNTS, 114 (1-3), 145-152 (2005). 
 Pseudopotentials for H to Kr optimized for gradient-corrected
 exchange-correlation functionals.
 https://dx.doi.org/10.1007/s00214-005-0655-y

 VandeVondele, J; Krack, M; Mohamed, F; Parrinello, M; Chassaing, T;
 Hutter, J. COMPUTER PHYSICS COMMUNICATIONS, 167 (2), 103-128 (2005). 
 QUICKSTEP: Fast and accurate density functional calculations using a
 mixed Gaussian and plane waves approach.
 https://dx.doi.org/10.1016/j.cpc.2004.12.014

 Frigo, M; Johnson, SG. 
 PROCEEDINGS OF THE IEEE, 93 (2), 216-231 (2005). 
 The design and implementation of FFTW3.
 https://dx.doi.org/10.1109/JPROC.2004.840301

 Hartwigsen, C; Goedecker, S; Hutter, J. 
 PHYSICAL REVIEW B, 58 (7), 3641-3662 (1998). 
 Relativistic separable dual-space Gaussian pseudopotentials from H to Rn.
 https://dx.doi.org/10.1103/PhysRevB.58.3641

 Lippert, G; Hutter, J; Parrinello, M. 
 MOLECULAR PHYSICS, 92 (3), 477-487 (1997). 
 A hybrid Gaussian and plane wave density functional scheme.
 https://dx.doi.org/10.1080/002689797170220

 Goedecker, S; Teter, M; Hutter, J. 
 PHYSICAL REVIEW B, 54 (3), 1703-1710 (1996). 
 Separable dual-space Gaussian pseudopotentials.
 https://dx.doi.org/10.1103/PhysRevB.54.1703


 -------------------------------------------------------------------------------
 -                                                                             -
 -                                T I M I N G                                  -
 -                                                                             -
 -------------------------------------------------------------------------------
 SUBROUTINE                       CALLS  ASD         SELF TIME        TOTAL TIME
                                MAXIMUM       AVERAGE  MAXIMUM  AVERAGE  MAXIMUM
 CP2K                                 1  1.0    0.666    0.666  820.056  820.056
 qs_forces                            1  2.0    0.000    0.000  809.058  809.058
 qs_energies                          1  3.0    0.000    0.000  804.773  804.773
 scf_env_do_scf                       1  4.0    0.000    0.000  793.006  793.006
 scf_env_do_scf_inner_loop           34  5.0    0.006    0.006  793.006  793.006
 gspace_mixing                       33  6.0    4.595    4.595  307.493  307.493
 broyden_mixing                      33  7.0  274.385  274.385  274.385  274.385
 qs_scf_new_mos                      34  6.0    0.001    0.001  222.046  222.046
 eigensolver                         34  7.0    0.004    0.004  210.042  210.042
 pw_transfer                        454  9.9    0.047    0.047  156.012  156.012
 fft_wrap_pw1pw2                    384 10.9    0.006    0.006  151.846  151.846
 rebuild_ks_matrix                   35  6.9    0.000    0.000  150.113  150.113
 qs_ks_build_kohn_sham_matrix        35  7.9    0.010    0.010  150.113  150.113
 qs_ks_update_qs_env                 34  6.0    0.001    0.001  146.018  146.018
 cp_fm_syevd                         34  8.0  142.991  142.991  143.158  143.158
 fft_wrap_pw1pw2_70                 174 11.2   11.188   11.188  137.033  137.033
 qs_rho_update_rho                   35  6.0    0.000    0.000  120.163  120.163
 calculate_rho_elec                  35  7.0   43.988   43.988  120.163  120.163
 fft3d_s                            385 12.8   76.158   76.158   76.167   76.167
 density_rs2pw                       35  8.0    0.007    0.007   74.975   74.975
 cp_fm_cholesky_restore             102  8.0   66.759   66.759   66.759   66.759
 sum_up_and_integrate                35  8.9    2.373    2.373   49.221   49.221
 pw_scatter_s                       208 13.1   46.926   46.926   46.926   46.926
 integrate_v_rspace                  35  9.9    3.001    3.001   46.848   46.848
 pw_poisson_solve                    35  8.9   38.408   38.408   42.825   42.825
 potential_pw2rs                     35 10.9    0.281    0.281   39.334   39.334
 qs_vxc_create                       35  8.9    0.001    0.001   21.616   21.616
 xc_vxc_pw_create                    35  9.9    4.877    4.877   21.615   21.615
 xc_rho_set_and_dset_create          35 10.9    0.001    0.001   16.738   16.738
 -------------------------------------------------------------------------------

 The number of warnings for this run is : 0
 
 -------------------------------------------------------------------------------
  **** **** ******  **  PROGRAM ENDED AT                 2020-05-21 08:57:22.101
 ***** ** ***  *** **   PROGRAM RAN ON                                   gnode39
 **    ****   ******    PROGRAM RAN BY                               mayank.modi
 ***** **    ** ** **   PROGRAM PROCESS ID                                 14255
  **** **  *******  **  PROGRAM STOPPED IN /home/mayank.modi/ab-initio-thermodyn
                                           amics-of-water/mayank/cp2k_energy_cal
                                           culations
