 DBCSR| CPU Multiplication driver                                           XSMM
 DBCSR| Multrec recursion limit                                              512
 DBCSR| Multiplication stack size                                           1000
 DBCSR| Maximum elements for images                                    UNLIMITED
 DBCSR| Multiplicative factor virtual images                                   1
 DBCSR| Use multiplication densification                                       T
 DBCSR| Multiplication size stacks                                             3


  **** **** ******  **  PROGRAM STARTED AT               2020-05-21 04:39:30.600
 ***** ** ***  *** **   PROGRAM STARTED ON                               gnode39
 **    ****   ******    PROGRAM STARTED BY                           mayank.modi
 ***** **    ** ** **   PROGRAM PROCESS ID                                 28755
  **** **  *******  **  PROGRAM STARTED IN /home/mayank.modi/ab-initio-thermodyn
                                           amics-of-water/mayank/cp2k_energy_cal
                                           culations

 CP2K| version string:                                          CP2K version 7.1
 CP2K| source code revision number:                                  git:e635599
 CP2K| cp2kflags: omp libint fftw3 libxc xsmm spglib                            
 CP2K| is freely available from                            https://www.cp2k.org/
 CP2K| Program compiled at                          Mon Dec 23 19:23:12 CET 2019
 CP2K| Program compiled on                                                pc9404
 CP2K| Program compiled for                                Linux-x86-64-gfortran
 CP2K| Data directory path                                        /opt/cp2k/data
 CP2K| Input file name                                              ./input53.in

 GLOBAL| Force Environment number                                              1
 GLOBAL| Basis set file name                                           BASIS_SET
 GLOBAL| Potential file name                                      GTH_POTENTIALS
 GLOBAL| MM Potential file name                                     MM_POTENTIAL
 GLOBAL| Coordinate file name                                      __STD_INPUT__
 GLOBAL| Method name                                                        CP2K
 GLOBAL| Project name                                                   H2O_bulk
 GLOBAL| Preferred FFT library                                             FFTW3
 GLOBAL| Preferred diagonalization lib.                                       SL
 GLOBAL| Run type                                                   ENERGY_FORCE
 GLOBAL| All-to-all communication in single precision                          F
 GLOBAL| FFTs using library dependent lengths                                  F
 GLOBAL| Global print level                                                  LOW
 GLOBAL| MPI I/O enabled                                                       T
 GLOBAL| Total number of message passing processes                             1
 GLOBAL| Number of threads for this process                                   20
 GLOBAL| This output is from process                                           0
 GLOBAL| CPU model name                Intel(R) Xeon(R) CPU E5-2640 v4 @ 2.40GHz
 GLOBAL| CPUID                                                              1002
 GLOBAL| Compiled for CPUID                                                    0

 MEMORY| system memory details [Kb]
 MEMORY|                        rank 0           min           max       average
 MEMORY| MemTotal            131898148     131898148     131898148     131898148
 MEMORY| MemFree              88705852      88705852      88705852      88705852
 MEMORY| Buffers               3187096       3187096       3187096       3187096
 MEMORY| Cached               34124224      34124224      34124224      34124224
 MEMORY| Slab                  3915600       3915600       3915600       3915600
 MEMORY| SReclaimable          3255724       3255724       3255724       3255724
 MEMORY| MemLikelyFree       129272896     129272896     129272896     129272896


 GENERATE|  Preliminary Number of Bonds generated:                             0
 GENERATE|  Achieved consistency in connectivity generation.

 *******************************************************************************
 *******************************************************************************
 **                                                                           **
 **     #####                         ##              ##                      **
 **    ##   ##            ##          ##              ##                      **
 **   ##     ##                       ##            ######                    **
 **   ##     ##  ##   ##  ##   #####  ##  ##   ####   ##    #####    #####    **
 **   ##     ##  ##   ##  ##  ##      ## ##   ##      ##   ##   ##  ##   ##   **
 **   ##  ## ##  ##   ##  ##  ##      ####     ###    ##   ######   ######    **
 **    ##  ###   ##   ##  ##  ##      ## ##      ##   ##   ##       ##        **
 **     #######   #####   ##   #####  ##  ##  ####    ##    #####   ##        **
 **           ##                                                    ##        **
 **                                                                           **
 **                                                ... make the atoms dance   **
 **                                                                           **
 **            Copyright (C) by CP2K developers group (2000 - 2019)           **
 **                                                                           **
 *******************************************************************************


 TOTAL NUMBERS AND MAXIMUM NUMBERS

  Total number of            - Atomic kinds:                                   2
                             - Atoms:                                        192
                             - Shell sets:                                   384
                             - Shells:                                       704
                             - Primitive Cartesian functions:                960
                             - Cartesian basis functions:                   1536
                             - Spherical basis functions:                   1472

  Maximum angular momentum of- Orbital basis functions:                        2
                             - Local part of the GTH pseudopotential:          2
                             - Non-local part of the GTH pseudopotential:      0


 SCF PARAMETERS         Density guess:                                    ATOMIC
                        --------------------------------------------------------
                        max_scf:                                             300
                        max_scf_history:                                       0
                        max_diis:                                              4
                        --------------------------------------------------------
                        eps_scf:                                        1.00E-07
                        eps_scf_history:                                0.00E+00
                        eps_diis:                                       1.00E-01
                        eps_eigval:                                     1.00E-05
                        --------------------------------------------------------
                        level_shift [a.u.]:                                 0.00
                        --------------------------------------------------------
                        Mixing method:                            BROYDEN_MIXING
                                                charge density mixing in g-space
                        --------------------------------------------------------
                        No outer SCF

 Number of electrons:                                                        512
 Number of occupied orbitals:                                                256
 Number of molecular orbitals:                                               256

 Number of orbital functions:                                               1472
 Number of independent orbital functions:                                   1472

 Extrapolation method: initial_guess


 SCF WAVEFUNCTION OPTIMIZATION

  Step     Update method      Time    Convergence         Total energy    Change
  ------------------------------------------------------------------------------
     1 NoMix/Diag. 0.40E+00   11.1     0.97965890     -1087.4672133509 -1.09E+03
     2 Broy./Diag. 0.40E+00   15.8     0.29239783     -1013.3714956092  7.41E+01
     3 Broy./Diag. 0.40E+00   17.6     0.02605810     -1094.6717236591 -8.13E+01
     4 Broy./Diag. 0.40E+00   18.1     0.02937716     -1094.3668528869  3.05E-01
     5 Broy./Diag. 0.40E+00   19.0     0.00290215     -1095.2583174752 -8.91E-01
     6 Broy./Diag. 0.40E+00   17.3     0.00454159     -1095.3011559047 -4.28E-02
     7 Broy./Diag. 0.40E+00   19.3     0.00267792     -1095.4445413437 -1.43E-01
     8 Broy./Diag. 0.40E+00   19.0     0.00347484     -1095.5786289133 -1.34E-01
     9 Broy./Diag. 0.40E+00   27.4     0.00356489     -1095.6497303192 -7.11E-02
    10 Broy./Diag. 0.40E+00   26.1     0.00150668     -1095.6848313156 -3.51E-02
    11 Broy./Diag. 0.40E+00   25.7     0.00135508     -1095.6523036453  3.25E-02
    12 Broy./Diag. 0.40E+00   22.3     0.00053129     -1095.6646128052 -1.23E-02
    13 Broy./Diag. 0.40E+00   24.1     0.00058325     -1095.6856128788 -2.10E-02
    14 Broy./Diag. 0.40E+00   27.9     0.00023187     -1095.6876296248 -2.02E-03
    15 Broy./Diag. 0.40E+00   25.9     0.00025397     -1095.6813581320  6.27E-03
    16 Broy./Diag. 0.40E+00   28.4     0.00015766     -1095.6820412669 -6.83E-04
    17 Broy./Diag. 0.40E+00   25.9     0.00006009     -1095.6827864903 -7.45E-04
    18 Broy./Diag. 0.40E+00   21.5     0.00004884     -1095.6825766343  2.10E-04
    19 Broy./Diag. 0.40E+00   22.1     0.00002858     -1095.6823246430  2.52E-04
    20 Broy./Diag. 0.40E+00   21.2     0.00001851     -1095.6819571472  3.67E-04
    21 Broy./Diag. 0.40E+00   23.6     0.00001367     -1095.6823186282 -3.61E-04
    22 Broy./Diag. 0.40E+00   23.8     0.00000424     -1095.6824677829 -1.49E-04
    23 Broy./Diag. 0.40E+00   22.2     0.00000568     -1095.6823703184  9.75E-05
    24 Broy./Diag. 0.40E+00   22.3     0.00000221     -1095.6823283571  4.20E-05
    25 Broy./Diag. 0.40E+00   20.7     0.00000241     -1095.6823329635 -4.61E-06
    26 Broy./Diag. 0.40E+00   25.3     0.00000123     -1095.6823588152 -2.59E-05
    27 Broy./Diag. 0.40E+00   23.7     0.00000078     -1095.6823570929  1.72E-06
    28 Broy./Diag. 0.40E+00   25.6     0.00000086     -1095.6823397561  1.73E-05
    29 Broy./Diag. 0.40E+00   25.1     0.00000043     -1095.6823346605  5.10E-06
    30 Broy./Diag. 0.40E+00   24.0     0.00000030     -1095.6823366344 -1.97E-06
    31 Broy./Diag. 0.40E+00   23.1     0.00000023     -1095.6823364902  1.44E-07
    32 Broy./Diag. 0.40E+00   21.5     0.00000009     -1095.6823355066  9.84E-07

  *** SCF run converged in    32 steps ***


  Electronic density on regular grids:       -512.0000731361       -0.0000731361
  Core density on regular grids:              512.0002322239        0.0002322239
  Total charge density on r-space grids:        0.0001590878
  Total charge density g-space grids:           0.0001590878

  Overlap energy of the core charge distribution:               0.00000475653731
  Self energy of the core charge distribution:              -2838.21791979120962
  Core Hamiltonian energy:                                    821.74696572511414
  Hartree energy:                                            1185.63396827206816
  Exchange-correlation energy:                               -264.84535446909916

  Total energy:                                             -1095.68233550658942

 ENERGY| Total FORCE_EVAL ( QS ) energy (a.u.):            -1095.682334458690093


 ATOMIC FORCES in [a.u.]

 # Atom   Kind   Element          X              Y              Z
      1      1      O           0.02066710    -0.03610275     0.15789285
      2      2      H          -0.04585972    -0.03611753    -0.01806591
      3      2      H          -0.00086134    -0.00233517     0.00271144
      4      1      O           0.02355075     0.08146869     0.13985778
      5      2      H          -0.03814909     0.02282721    -0.00526772
      6      2      H           0.02536872    -0.01310243    -0.06674335
      7      1      O          -0.01831992    -0.02592406    -0.07023462
      8      2      H           0.00705211     0.00411450     0.03163109
      9      2      H          -0.01207117     0.06077041    -0.05658254
     10      1      O          -0.06573808     0.02379057     0.00736116
     11      2      H           0.01038212    -0.02236902     0.00399539
     12      2      H           0.03072799    -0.03433681    -0.04174790
     13      1      O           0.05702005    -0.02591973    -0.12898143
     14      2      H          -0.00795209     0.01410503     0.03773900
     15      2      H          -0.06032067    -0.10036544     0.00118690
     16      1      O           0.05218152     0.11607163    -0.13396120
     17      2      H           0.01056759    -0.07492090     0.04236396
     18      2      H          -0.02858650     0.00594136     0.04011103
     19      1      O          -0.04199725     0.01927233    -0.02043433
     20      2      H          -0.00977815     0.01184426     0.04091305
     21      2      H           0.04001131     0.01478955    -0.09614718
     22      1      O          -0.00858325    -0.05704844     0.06767102
     23      2      H           0.05351070     0.01101657    -0.02219763
     24      2      H           0.00461472     0.00603434     0.01574454
     25      1      O          -0.00880746     0.10379916     0.01074395
     26      2      H          -0.00197933    -0.04548566     0.05662404
     27      2      H          -0.00736616    -0.03790648    -0.00726407
     28      1      O           0.05255419    -0.06150177    -0.04555695
     29      2      H          -0.02797490     0.02410438    -0.01873075
     30      2      H           0.00171553     0.05332083     0.00867489
     31      1      O          -0.03429674     0.02155031    -0.06389212
     32      2      H           0.03813549    -0.02697578    -0.03702788
     33      2      H          -0.02309539     0.00010471    -0.01167125
     34      1      O           0.04727821     0.05672778     0.11785971
     35      2      H          -0.00253409     0.00301090     0.02228123
     36      2      H          -0.06491169     0.02758030    -0.00879213
     37      1      O          -0.00079516     0.04703113     0.00434397
     38      2      H           0.01982081     0.01737778    -0.11800135
     39      2      H          -0.02902481    -0.05124982    -0.03310004
     40      1      O          -0.04418639    -0.04192251     0.06665311
     41      2      H           0.00360889    -0.01856184    -0.00069717
     42      2      H           0.03490139    -0.01455268    -0.00002901
     43      1      O          -0.02182339    -0.06602310     0.11914885
     44      2      H           0.01287689    -0.01125524     0.01435658
     45      2      H          -0.00509342     0.04452538    -0.00135547
     46      1      O           0.02479593     0.06810201    -0.08925109
     47      2      H          -0.01522352     0.02590583    -0.02650858
     48      2      H          -0.00798512    -0.01752964     0.03157379
     49      1      O          -0.02147582    -0.04665668     0.08135366
     50      2      H          -0.02120660     0.02663751    -0.02566043
     51      2      H           0.04122560    -0.04279122    -0.02048205
     52      1      O           0.02101615     0.03034924     0.15077638
     53      2      H           0.01363934    -0.00534225    -0.09107017
     54      2      H          -0.00281886     0.03556572     0.01639789
     55      1      O          -0.00293884    -0.02263848    -0.09362319
     56      2      H          -0.00348549    -0.00118239     0.03426365
     57      2      H          -0.04730808    -0.00454405    -0.03607433
     58      1      O           0.04442281     0.07876622    -0.08939835
     59      2      H          -0.03572824    -0.00770860     0.05171692
     60      2      H          -0.01530771    -0.03015363    -0.04660925
     61      1      O           0.03179802    -0.01450855     0.02494135
     62      2      H           0.00862684    -0.04020867     0.00767878
     63      2      H          -0.01569062     0.00805797     0.05542626
     64      1      O          -0.01599652     0.07772619    -0.06177252
     65      2      H           0.02033830    -0.03764449    -0.01079619
     66      2      H          -0.00310968     0.01366191    -0.00207369
     67      1      O          -0.01946595     0.01879050     0.01384383
     68      2      H          -0.00500226    -0.00403630     0.01411015
     69      2      H           0.01569779     0.01116689    -0.00282549
     70      1      O           0.03512957    -0.01985696    -0.08251917
     71      2      H          -0.02911581    -0.03586626     0.00819867
     72      2      H           0.00615126     0.05606616    -0.04487193
     73      1      O           0.01554033     0.08152643     0.12236699
     74      2      H          -0.00761218    -0.00398235    -0.00390227
     75      2      H          -0.00203578     0.02075341    -0.05052337
     76      1      O          -0.02108992    -0.02628845     0.08746086
     77      2      H           0.01518269    -0.04043950    -0.01104600
     78      2      H           0.01441911     0.00491427    -0.01332403
     79      1      O          -0.04866638    -0.01788693     0.08802656
     80      2      H           0.05538078     0.05482914     0.02027095
     81      2      H          -0.02130813     0.04919704    -0.06427351
     82      1      O          -0.02980167    -0.05531763     0.02111470
     83      2      H           0.00035604     0.01536390    -0.00457886
     84      2      H           0.01724304     0.01940458     0.00314674
     85      1      O          -0.02449023    -0.01960500    -0.04865329
     86      2      H           0.08534477    -0.01652422    -0.01557456
     87      2      H          -0.02845273     0.04860030     0.04645373
     88      1      O          -0.04795276     0.03124599     0.13484746
     89      2      H           0.01266744    -0.02261783     0.03391144
     90      2      H           0.01854703     0.00589439    -0.06740005
     91      1      O           0.02681292     0.07000424     0.07774971
     92      2      H          -0.01587600     0.03167995     0.04484950
     93      2      H          -0.03772804    -0.01225993     0.02317290
     94      1      O          -0.01191585     0.00878994    -0.07611012
     95      2      H           0.00205322     0.00250385     0.03466186
     96      2      H          -0.01373944     0.03519753     0.00575778
     97      1      O          -0.02258910     0.03879269     0.13479389
     98      2      H           0.01014223     0.03646289    -0.04144158
     99      2      H           0.00153858     0.03508573     0.01417096
    100      1      O           0.01663626     0.00154038     0.02323457
    101      2      H          -0.00146895    -0.01427089     0.00702468
    102      2      H          -0.01740038    -0.02955488    -0.02625292
    103      1      O          -0.02886272    -0.07521871     0.14198128
    104      2      H           0.04794043     0.01820868    -0.06828046
    105      2      H          -0.00848650    -0.00502480     0.02334977
    106      1      O          -0.00413798     0.09916836     0.13084068
    107      2      H           0.01253277    -0.01605192    -0.00590381
    108      2      H           0.00929502    -0.05744002    -0.02339769
    109      1      O          -0.04685107     0.09272182    -0.04853416
    110      2      H           0.01392040     0.00767250    -0.04787474
    111      2      H           0.01554146    -0.01265241     0.03209029
    112      1      O          -0.08085533    -0.08464307     0.06034807
    113      2      H           0.02168761    -0.01119176    -0.00958075
    114      2      H           0.03762494    -0.02696594    -0.05808505
    115      1      O           0.02494348     0.08118471    -0.12786043
    116      2      H          -0.00979637     0.00281300    -0.01654716
    117      2      H          -0.01499539     0.01056159     0.07533903
    118      1      O          -0.01921012     0.04887900    -0.06204418
    119      2      H           0.03101488     0.02322729    -0.01858097
    120      2      H           0.02634939    -0.02694283    -0.05882050
    121      1      O           0.03862080     0.04333770    -0.11003491
    122      2      H          -0.01025899    -0.01560364    -0.01454935
    123      2      H           0.01309123     0.00333343    -0.00369520
    124      1      O           0.06065492     0.05441854    -0.05744313
    125      2      H          -0.04278058     0.04459658     0.06198658
    126      2      H           0.01465510    -0.01862852     0.05156581
    127      1      O           0.03945958     0.02501932     0.02785517
    128      2      H          -0.01192592     0.05881369     0.03666252
    129      2      H          -0.00471753    -0.04197367     0.08922677
    130      1      O           0.02549551    -0.01772131    -0.03772380
    131      2      H          -0.02593056     0.00891824     0.01890062
    132      2      H          -0.00525422     0.05763795     0.00299697
    133      1      O          -0.02726654    -0.05136723     0.09596973
    134      2      H           0.03232163    -0.00402218     0.04325627
    135      2      H           0.00144778    -0.02719007    -0.04581341
    136      1      O           0.00325476    -0.13943019     0.06038988
    137      2      H           0.05187510     0.04946983     0.04781830
    138      2      H          -0.02669251     0.04821635    -0.06469517
    139      1      O           0.03486964    -0.01915932    -0.00131263
    140      2      H           0.01471495     0.03085609     0.02717206
    141      2      H          -0.02237307    -0.04899467    -0.04159773
    142      1      O          -0.00355436    -0.02835110     0.07745212
    143      2      H          -0.02937915    -0.02599130     0.00974626
    144      2      H           0.00268706    -0.01517297    -0.03188649
    145      1      O          -0.04110622    -0.00210320    -0.07125494
    146      2      H           0.02937473     0.00004416     0.00878079
    147      2      H          -0.00962378    -0.01627250     0.02341340
    148      1      O           0.06123715     0.02978206    -0.00691651
    149      2      H          -0.04560061    -0.00162758    -0.02175469
    150      2      H          -0.01996586    -0.03498378     0.06186310
    151      1      O          -0.07244736    -0.07827060     0.14442348
    152      2      H           0.01690549    -0.01404748    -0.07881087
    153      2      H           0.04186607     0.03873151    -0.02370051
    154      1      O           0.03483288    -0.02233161     0.09787076
    155      2      H           0.01183901    -0.03419685    -0.02456789
    156      2      H          -0.00267921    -0.02978292    -0.03297386
    157      1      O          -0.00245524     0.03825057    -0.14421104
    158      2      H           0.03777942     0.01276192     0.05472113
    159      2      H          -0.02022841    -0.03418638     0.06534174
    160      1      O           0.00618006    -0.05015678     0.10592776
    161      2      H           0.00036723    -0.00803953    -0.02080571
    162      2      H          -0.00447258    -0.00241694    -0.04163408
    163      1      O          -0.03262384     0.10141070     0.13146685
    164      2      H           0.02486139    -0.00529290     0.02916921
    165      2      H           0.04271367    -0.00651526    -0.00362486
    166      1      O          -0.00969859     0.08686378     0.02537846
    167      2      H           0.03154567     0.01469151    -0.03075631
    168      2      H           0.01532874     0.01692063     0.01133596
    169      1      O           0.03648217     0.05822127    -0.04815839
    170      2      H          -0.01580880     0.00965168    -0.05551438
    171      2      H           0.02672323     0.02325302     0.00666291
    172      1      O          -0.02201537    -0.03082294    -0.04968846
    173      2      H           0.00433951    -0.00442177     0.02093265
    174      2      H           0.01764519    -0.00367164    -0.00536547
    175      1      O          -0.00416820     0.05394754    -0.03457360
    176      2      H          -0.00039921    -0.01449436     0.02453212
    177      2      H           0.00740132     0.02198791     0.00204447
    178      1      O          -0.00327206    -0.03878509     0.15640565
    179      2      H           0.00816584    -0.00894275     0.02179758
    180      2      H           0.01165426    -0.06232443    -0.07317514
    181      1      O          -0.00030989    -0.00704589     0.11909664
    182      2      H           0.02235995     0.01073674    -0.01898677
    183      2      H           0.02282901     0.01483069     0.00010877
    184      1      O          -0.02002248     0.09097749     0.07383915
    185      2      H          -0.01445918    -0.01171356    -0.04446285
    186      2      H           0.02133464     0.02107230    -0.00499863
    187      1      O           0.02215669    -0.07270839    -0.12280834
    188      2      H          -0.00000567    -0.02269848     0.01283539
    189      2      H          -0.05178317     0.09579877    -0.03510238
    190      1      O           0.00598457    -0.06951716    -0.01469503
    191      2      H          -0.04809923     0.10895634    -0.05576981
    192      2      H           0.02753629    -0.02129965     0.01710547
 SUM OF ATOMIC FORCES           0.17602807     0.61990614     0.58149254     0.86798795

 -------------------------------------------------------------------------------
 -                                                                             -
 -                                DBCSR STATISTICS                             -
 -                                                                             -
 -------------------------------------------------------------------------------
 COUNTER                                    TOTAL       BLAS       SMM       ACC
 flops     5 x     5 x   256            870144000       0.0%    100.0%      0.0%
 flops     5 x    13 x   256           1092748800       0.0%    100.0%      0.0%
 flops    13 x     5 x   256           1108124160       0.0%    100.0%      0.0%
 flops    13 x    13 x   256           1533362688       0.0%    100.0%      0.0%
 flops inhomo. stacks                           0       0.0%      0.0%      0.0%
 flops total                         4.604380E+09       0.0%    100.0%      0.0%
 flops max/rank                      4.604380E+09       0.0%    100.0%      0.0%
 matmuls inhomo. stacks                         0       0.0%      0.0%      0.0%
 matmuls total                             151833       0.0%    100.0%      0.0%
 number of processed stacks                  2574       0.0%    100.0%      0.0%
 average stack size                                     0.0      59.0       0.0
 marketing flops                    36.609982E+09
 -------------------------------------------------------------------------------
 # multiplications                             33
 max memory usage/rank              25.807880E+09
 # max total images/rank                        1
 # max 3D layers                                1
 # MPI messages exchanged                       0
 MPI messages size (bytes):
  total size                         0.000000E+00
  min size                           0.000000E+00
  max size                           0.000000E+00
  average size                       0.000000E+00
 MPI breakdown and total messages size (bytes):
             size <=      128                   0                        0
       128 < size <=     8192                   0                        0
      8192 < size <=    32768                   0                        0
     32768 < size <=   131072                   0                        0
    131072 < size <=  4194304                   0                        0
   4194304 < size <= 16777216                   0                        0
  16777216 < size                               0                        0
 -------------------------------------------------------------------------------

 MEMORY| Estimated peak process memory [MiB]                               24614

 -------------------------------------------------------------------------------
 -                                                                             -
 -                           R E F E R E N C E S                               -
 -                                                                             -
 -------------------------------------------------------------------------------
 
 CP2K version 7.1, the CP2K developers group (2019).
 CP2K is freely available from https://www.cp2k.org/ .

 Schuett, Ole; Messmer, Peter; Hutter, Juerg; VandeVondele, Joost. 
 Electronic Structure Calculations on Graphics Processing Units, John
 Wiley & Sons, Ltd, 173-190 (2016). 
 GPU-Accelerated Sparse Matrix-Matrix Multiplication for
 Linear Scaling Density Functional Theory.
 https://dx.doi.org/10.1002/9781118670712.ch8

 Borstnik, U; VandeVondele, J; Weber, V; Hutter, J. 
 PARALLEL COMPUTING, 40 (5-6), 47-58 (2014). 
 Sparse matrix multiplication: The distributed block-compressed sparse
 row library.
 https://dx.doi.org/10.1016/j.parco.2014.03.012

 Hutter, J; Iannuzzi, M; Schiffmann, F; VandeVondele, J. 
 WIREs Comput Mol Sci., 4 (1), 15-25 (2014). 
 CP2K: atomistic simulations of condensed matter systems.
 https://dx.doi.org/10.1002/wcms.1159

 Krack, M. 
 THEORETICAL CHEMISTRY ACCOUNTS, 114 (1-3), 145-152 (2005). 
 Pseudopotentials for H to Kr optimized for gradient-corrected
 exchange-correlation functionals.
 https://dx.doi.org/10.1007/s00214-005-0655-y

 VandeVondele, J; Krack, M; Mohamed, F; Parrinello, M; Chassaing, T;
 Hutter, J. COMPUTER PHYSICS COMMUNICATIONS, 167 (2), 103-128 (2005). 
 QUICKSTEP: Fast and accurate density functional calculations using a
 mixed Gaussian and plane waves approach.
 https://dx.doi.org/10.1016/j.cpc.2004.12.014

 Frigo, M; Johnson, SG. 
 PROCEEDINGS OF THE IEEE, 93 (2), 216-231 (2005). 
 The design and implementation of FFTW3.
 https://dx.doi.org/10.1109/JPROC.2004.840301

 Hartwigsen, C; Goedecker, S; Hutter, J. 
 PHYSICAL REVIEW B, 58 (7), 3641-3662 (1998). 
 Relativistic separable dual-space Gaussian pseudopotentials from H to Rn.
 https://dx.doi.org/10.1103/PhysRevB.58.3641

 Lippert, G; Hutter, J; Parrinello, M. 
 MOLECULAR PHYSICS, 92 (3), 477-487 (1997). 
 A hybrid Gaussian and plane wave density functional scheme.
 https://dx.doi.org/10.1080/002689797170220

 Goedecker, S; Teter, M; Hutter, J. 
 PHYSICAL REVIEW B, 54 (3), 1703-1710 (1996). 
 Separable dual-space Gaussian pseudopotentials.
 https://dx.doi.org/10.1103/PhysRevB.54.1703


 -------------------------------------------------------------------------------
 -                                                                             -
 -                                T I M I N G                                  -
 -                                                                             -
 -------------------------------------------------------------------------------
 SUBROUTINE                       CALLS  ASD         SELF TIME        TOTAL TIME
                                MAXIMUM       AVERAGE  MAXIMUM  AVERAGE  MAXIMUM
 CP2K                                 1  1.0    0.678    0.678  746.995  746.995
 qs_forces                            1  2.0    0.000    0.000  735.332  735.332
 qs_energies                          1  3.0    0.000    0.000  731.770  731.770
 scf_env_do_scf                       1  4.0    0.000    0.000  719.127  719.127
 scf_env_do_scf_inner_loop           32  5.0    0.005    0.005  719.127  719.127
 gspace_mixing                       31  6.0    4.376    4.376  294.022  294.022
 broyden_mixing                      31  7.0  264.215  264.215  264.215  264.215
 qs_scf_new_mos                      32  6.0    0.001    0.001  204.365  204.365
 eigensolver                         32  7.0    0.003    0.003  201.181  201.181
 cp_fm_syevd                         32  8.0  137.513  137.513  137.645  137.645
 pw_transfer                        428  9.9    0.039    0.039  132.292  132.292
 fft_wrap_pw1pw2                    362 10.9    0.004    0.004  128.927  128.927
 rebuild_ks_matrix                   33  6.9    0.000    0.000  127.647  127.647
 qs_ks_build_kohn_sham_matrix        33  7.9    0.008    0.008  127.647  127.647
 qs_ks_update_qs_env                 32  6.0    0.000    0.000  124.263  124.263
 fft_wrap_pw1pw2_70                 164 11.2    9.994    9.994  119.319  119.319
 qs_rho_update_rho                   33  6.0    0.000    0.000   99.646   99.646
 calculate_rho_elec                  33  7.0   37.127   37.127   99.646   99.646
 cp_fm_cholesky_restore              96  8.0   63.397   63.397   63.397   63.397
 fft3d_s                            363 12.8   62.891   62.891   62.913   62.913
 density_rs2pw                       33  8.0    0.003    0.003   61.834   61.834
 pw_scatter_s                       196 13.1   43.788   43.788   43.788   43.788
 pw_poisson_solve                    33  8.9   36.823   36.823   40.459   40.459
 sum_up_and_integrate                33  8.9    2.009    2.009   35.811   35.811
 integrate_v_rspace                  33  9.9    2.337    2.337   33.803   33.803
 potential_pw2rs                     33 10.9    0.278    0.278   31.441   31.441
 qs_vxc_create                       33  8.9    0.001    0.001   19.122   19.122
 xc_vxc_pw_create                    33  9.9    4.663    4.663   19.121   19.121
 -------------------------------------------------------------------------------

 The number of warnings for this run is : 0
 
 -------------------------------------------------------------------------------
  **** **** ******  **  PROGRAM ENDED AT                 2020-05-21 04:51:57.704
 ***** ** ***  *** **   PROGRAM RAN ON                                   gnode39
 **    ****   ******    PROGRAM RAN BY                               mayank.modi
 ***** **    ** ** **   PROGRAM PROCESS ID                                 28755
  **** **  *******  **  PROGRAM STOPPED IN /home/mayank.modi/ab-initio-thermodyn
                                           amics-of-water/mayank/cp2k_energy_cal
                                           culations
