 DBCSR| CPU Multiplication driver                                           XSMM
 DBCSR| Multrec recursion limit                                              512
 DBCSR| Multiplication stack size                                           1000
 DBCSR| Maximum elements for images                                    UNLIMITED
 DBCSR| Multiplicative factor virtual images                                   1
 DBCSR| Use multiplication densification                                       T
 DBCSR| Multiplication size stacks                                             3


  **** **** ******  **  PROGRAM STARTED AT               2020-05-20 23:32:41.980
 ***** ** ***  *** **   PROGRAM STARTED ON                               gnode39
 **    ****   ******    PROGRAM STARTED BY                           mayank.modi
 ***** **    ** ** **   PROGRAM PROCESS ID                                 21239
  **** **  *******  **  PROGRAM STARTED IN /home/mayank.modi/ab-initio-thermodyn
                                           amics-of-water/mayank/cp2k_energy_cal
                                           culations

 CP2K| version string:                                          CP2K version 7.1
 CP2K| source code revision number:                                  git:e635599
 CP2K| cp2kflags: omp libint fftw3 libxc xsmm spglib                            
 CP2K| is freely available from                            https://www.cp2k.org/
 CP2K| Program compiled at                          Mon Dec 23 19:23:12 CET 2019
 CP2K| Program compiled on                                                pc9404
 CP2K| Program compiled for                                Linux-x86-64-gfortran
 CP2K| Data directory path                                        /opt/cp2k/data
 CP2K| Input file name                                              ./input30.in

 GLOBAL| Force Environment number                                              1
 GLOBAL| Basis set file name                                           BASIS_SET
 GLOBAL| Potential file name                                      GTH_POTENTIALS
 GLOBAL| MM Potential file name                                     MM_POTENTIAL
 GLOBAL| Coordinate file name                                      __STD_INPUT__
 GLOBAL| Method name                                                        CP2K
 GLOBAL| Project name                                                   H2O_bulk
 GLOBAL| Preferred FFT library                                             FFTW3
 GLOBAL| Preferred diagonalization lib.                                       SL
 GLOBAL| Run type                                                   ENERGY_FORCE
 GLOBAL| All-to-all communication in single precision                          F
 GLOBAL| FFTs using library dependent lengths                                  F
 GLOBAL| Global print level                                                  LOW
 GLOBAL| MPI I/O enabled                                                       T
 GLOBAL| Total number of message passing processes                             1
 GLOBAL| Number of threads for this process                                   20
 GLOBAL| This output is from process                                           0
 GLOBAL| CPU model name                Intel(R) Xeon(R) CPU E5-2640 v4 @ 2.40GHz
 GLOBAL| CPUID                                                              1002
 GLOBAL| Compiled for CPUID                                                    0

 MEMORY| system memory details [Kb]
 MEMORY|                        rank 0           min           max       average
 MEMORY| MemTotal            131898148     131898148     131898148     131898148
 MEMORY| MemFree              87883560      87883560      87883560      87883560
 MEMORY| Buffers               3186844       3186844       3186844       3186844
 MEMORY| Cached               34935948      34935948      34935948      34935948
 MEMORY| Slab                  3923164       3923164       3923164       3923164
 MEMORY| SReclaimable          3258116       3258116       3258116       3258116
 MEMORY| MemLikelyFree       129264468     129264468     129264468     129264468


 GENERATE|  Preliminary Number of Bonds generated:                             0
 GENERATE|  Achieved consistency in connectivity generation.

 *******************************************************************************
 *******************************************************************************
 **                                                                           **
 **     #####                         ##              ##                      **
 **    ##   ##            ##          ##              ##                      **
 **   ##     ##                       ##            ######                    **
 **   ##     ##  ##   ##  ##   #####  ##  ##   ####   ##    #####    #####    **
 **   ##     ##  ##   ##  ##  ##      ## ##   ##      ##   ##   ##  ##   ##   **
 **   ##  ## ##  ##   ##  ##  ##      ####     ###    ##   ######   ######    **
 **    ##  ###   ##   ##  ##  ##      ## ##      ##   ##   ##       ##        **
 **     #######   #####   ##   #####  ##  ##  ####    ##    #####   ##        **
 **           ##                                                    ##        **
 **                                                                           **
 **                                                ... make the atoms dance   **
 **                                                                           **
 **            Copyright (C) by CP2K developers group (2000 - 2019)           **
 **                                                                           **
 *******************************************************************************


 TOTAL NUMBERS AND MAXIMUM NUMBERS

  Total number of            - Atomic kinds:                                   2
                             - Atoms:                                        192
                             - Shell sets:                                   384
                             - Shells:                                       704
                             - Primitive Cartesian functions:                960
                             - Cartesian basis functions:                   1536
                             - Spherical basis functions:                   1472

  Maximum angular momentum of- Orbital basis functions:                        2
                             - Local part of the GTH pseudopotential:          2
                             - Non-local part of the GTH pseudopotential:      0


 SCF PARAMETERS         Density guess:                                    ATOMIC
                        --------------------------------------------------------
                        max_scf:                                             300
                        max_scf_history:                                       0
                        max_diis:                                              4
                        --------------------------------------------------------
                        eps_scf:                                        1.00E-07
                        eps_scf_history:                                0.00E+00
                        eps_diis:                                       1.00E-01
                        eps_eigval:                                     1.00E-05
                        --------------------------------------------------------
                        level_shift [a.u.]:                                 0.00
                        --------------------------------------------------------
                        Mixing method:                            BROYDEN_MIXING
                                                charge density mixing in g-space
                        --------------------------------------------------------
                        No outer SCF

 Number of electrons:                                                        512
 Number of occupied orbitals:                                                256
 Number of molecular orbitals:                                               256

 Number of orbital functions:                                               1472
 Number of independent orbital functions:                                   1472

 Extrapolation method: initial_guess


 SCF WAVEFUNCTION OPTIMIZATION

  Step     Update method      Time    Convergence         Total energy    Change
  ------------------------------------------------------------------------------
     1 NoMix/Diag. 0.40E+00   11.3     1.01092033     -1087.2984403523 -1.09E+03
     2 Broy./Diag. 0.40E+00   15.8     0.29679410     -1012.3381989330  7.50E+01
     3 Broy./Diag. 0.40E+00   17.3     0.02580086     -1094.4589319523 -8.21E+01
     4 Broy./Diag. 0.40E+00   18.1     0.02968552     -1094.3275971346  1.31E-01
     5 Broy./Diag. 0.40E+00   19.0     0.00284395     -1095.2386142682 -9.11E-01
     6 Broy./Diag. 0.40E+00   20.2     0.00449705     -1095.2740721052 -3.55E-02
     7 Broy./Diag. 0.40E+00   20.9     0.00224000     -1095.4160794021 -1.42E-01
     8 Broy./Diag. 0.40E+00   21.9     0.00352769     -1095.5298646625 -1.14E-01
     9 Broy./Diag. 0.40E+00   23.6     0.00288125     -1095.6053322178 -7.55E-02
    10 Broy./Diag. 0.40E+00   24.7     0.00169274     -1095.6265933867 -2.13E-02
    11 Broy./Diag. 0.40E+00   25.2     0.00126224     -1095.6068422544  1.98E-02
    12 Broy./Diag. 0.40E+00   24.6     0.00052235     -1095.6138752128 -7.03E-03
    13 Broy./Diag. 0.40E+00   24.8     0.00055045     -1095.6317708640 -1.79E-02
    14 Broy./Diag. 0.40E+00   25.1     0.00024556     -1095.6349400941 -3.17E-03
    15 Broy./Diag. 0.40E+00   24.6     0.00034176     -1095.6272061406  7.73E-03
    16 Broy./Diag. 0.40E+00   25.5     0.00013593     -1095.6269421953  2.64E-04
    17 Broy./Diag. 0.40E+00   24.5     0.00008124     -1095.6286299408 -1.69E-03
    18 Broy./Diag. 0.40E+00   24.6     0.00003253     -1095.6293072099 -6.77E-04
    19 Broy./Diag. 0.40E+00   25.3     0.00001728     -1095.6291015088  2.06E-04
    20 Broy./Diag. 0.40E+00   24.6     0.00001523     -1095.6284020564  6.99E-04
    21 Broy./Diag. 0.40E+00   24.6     0.00000769     -1095.6285316243 -1.30E-04
    22 Broy./Diag. 0.40E+00   24.7     0.00000443     -1095.6287023430 -1.71E-04
    23 Broy./Diag. 0.40E+00   25.3     0.00000549     -1095.6287627056 -6.04E-05
    24 Broy./Diag. 0.40E+00   24.3     0.00000216     -1095.6286495867  1.13E-04
    25 Broy./Diag. 0.40E+00   24.7     0.00000330     -1095.6285334912  1.16E-04
    26 Broy./Diag. 0.40E+00   24.7     0.00000132     -1095.6285168681  1.66E-05
    27 Broy./Diag. 0.40E+00   24.3     0.00000092     -1095.6285321554 -1.53E-05
    28 Broy./Diag. 0.40E+00   24.9     0.00000082     -1095.6285271302  5.03E-06
    29 Broy./Diag. 0.40E+00   24.7     0.00000026     -1095.6285150837  1.20E-05
    30 Broy./Diag. 0.40E+00   24.8     0.00000025     -1095.6285103031  4.78E-06
    31 Broy./Diag. 0.40E+00   24.4     0.00000022     -1095.6285134960 -3.19E-06
    32 Broy./Diag. 0.40E+00   24.4     0.00000010     -1095.6285162202 -2.72E-06
    33 Broy./Diag. 0.40E+00   25.4     0.00000010     -1095.6285176391 -1.42E-06

  *** SCF run converged in    33 steps ***


  Electronic density on regular grids:       -512.0005948913       -0.0005948913
  Core density on regular grids:              512.0002563759        0.0002563759
  Total charge density on r-space grids:       -0.0003385155
  Total charge density g-space grids:          -0.0003385155

  Overlap energy of the core charge distribution:               0.00000608650136
  Self energy of the core charge distribution:              -2838.21791979120962
  Core Hamiltonian energy:                                    822.47807451847541
  Hartree energy:                                            1185.12912711135732
  Exchange-correlation energy:                               -265.01780556427394

  Total energy:                                             -1095.62851763914955

 ENERGY| Total FORCE_EVAL ( QS ) energy (a.u.):            -1095.628517511346672


 ATOMIC FORCES in [a.u.]

 # Atom   Kind   Element          X              Y              Z
      1      1      O           0.05033016     0.09122223     0.11863453
      2      2      H          -0.06482302    -0.02222088     0.00566796
      3      2      H          -0.00174682    -0.01669331     0.02648477
      4      1      O           0.00088894     0.01938835    -0.05331691
      5      2      H           0.03662216     0.03686850    -0.05416034
      6      2      H          -0.00015002    -0.01273320    -0.03229380
      7      1      O          -0.01656213     0.00200558     0.12577677
      8      2      H           0.04411282    -0.04473041    -0.00364345
      9      2      H          -0.03422716    -0.01414567    -0.09571924
     10      1      O          -0.04927196    -0.01678931     0.10679559
     11      2      H           0.01307013    -0.00922750     0.04165092
     12      2      H           0.06655545     0.03697816    -0.08116409
     13      1      O           0.02558223    -0.13944747     0.05223438
     14      2      H           0.06048129     0.03947450     0.04767566
     15      2      H          -0.03827553     0.06754569     0.01380987
     16      1      O          -0.00609620     0.06804294    -0.10092479
     17      2      H           0.01139871    -0.03207604    -0.04417511
     18      2      H          -0.03663199    -0.00087195     0.01660824
     19      1      O          -0.02234029     0.02027313     0.17402792
     20      2      H          -0.04923682    -0.02017725    -0.01937669
     21      2      H           0.03595020    -0.04257329    -0.03724840
     22      1      O           0.01140877     0.01968933     0.11054973
     23      2      H           0.01410808     0.03272734    -0.01962569
     24      2      H          -0.01790050     0.00720254     0.01187551
     25      1      O          -0.03632558    -0.05811394    -0.06952971
     26      2      H          -0.01317996    -0.01477422    -0.02607785
     27      2      H          -0.00152448    -0.01405716     0.03714199
     28      1      O           0.01200367     0.04351278    -0.07561050
     29      2      H          -0.01667892    -0.03370375     0.05802095
     30      2      H          -0.00873625     0.02216909    -0.04737247
     31      1      O          -0.02506221     0.07726163     0.12262615
     32      2      H           0.05017259     0.00599167    -0.02103887
     33      2      H          -0.01486250    -0.01220622     0.00137549
     34      1      O           0.03215729     0.07507159     0.07458404
     35      2      H          -0.02300856     0.00303765    -0.04899418
     36      2      H          -0.02014912    -0.04989590     0.00064223
     37      1      O           0.04725870    -0.00497550     0.01295612
     38      2      H          -0.01905073     0.03556456    -0.11326228
     39      2      H          -0.05558165    -0.01999150     0.04520287
     40      1      O           0.02324721     0.03802524     0.07654544
     41      2      H          -0.02915422     0.01301690    -0.02714175
     42      2      H          -0.00513480    -0.01469040     0.06322719
     43      1      O          -0.07562210     0.07318337    -0.13332912
     44      2      H           0.05861377    -0.00948036    -0.03292949
     45      2      H          -0.01224943    -0.00370755     0.08490011
     46      1      O           0.00327652    -0.06423302    -0.05698559
     47      2      H          -0.00268300     0.01993348     0.00332213
     48      2      H           0.00119195     0.01337425    -0.00059795
     49      1      O          -0.02366895     0.12657055    -0.09063470
     50      2      H          -0.01418405     0.00597808     0.00035748
     51      2      H           0.02096848    -0.03842138    -0.04207316
     52      1      O          -0.01694676     0.03777039     0.04525803
     53      2      H           0.02883727    -0.02663127    -0.02095849
     54      2      H          -0.00971655     0.05577914    -0.04597006
     55      1      O           0.07106098     0.04534662    -0.13114995
     56      2      H           0.01711140     0.05969626     0.04093943
     57      2      H          -0.06507641    -0.04962988     0.01199694
     58      1      O           0.01056068     0.01827745    -0.02031554
     59      2      H          -0.02585987    -0.03580234     0.03356393
     60      2      H          -0.01990965    -0.01165779    -0.11632061
     61      1      O          -0.00225048     0.06855013     0.05566818
     62      2      H          -0.00745423    -0.02019191    -0.01796862
     63      2      H          -0.00833429     0.00469016    -0.00401850
     64      1      O           0.02117925    -0.06037634     0.13579643
     65      2      H          -0.01407544    -0.04625889    -0.08363878
     66      2      H          -0.03883000     0.00206793    -0.02343584
     67      1      O          -0.01477145     0.08322168    -0.04647115
     68      2      H           0.01405466    -0.02256945     0.02162790
     69      2      H           0.01924833     0.02142118     0.01845831
     70      1      O           0.02112968     0.02992564    -0.12271477
     71      2      H          -0.00375116    -0.02603320    -0.04176126
     72      2      H          -0.00174481     0.00070856     0.03640493
     73      1      O          -0.03573940    -0.07263804     0.08047019
     74      2      H           0.01066883    -0.03207048     0.03302215
     75      2      H           0.01094739     0.00055092     0.00671598
     76      1      O          -0.04418145     0.00877907     0.07575194
     77      2      H          -0.00492846    -0.04910005     0.06752601
     78      2      H           0.02546588     0.00215269    -0.00660833
     79      1      O          -0.00995349     0.04199645     0.08119748
     80      2      H          -0.00428501    -0.03098823     0.00407232
     81      2      H          -0.00009104     0.01430646    -0.03640807
     82      1      O          -0.02538295     0.09498575     0.12104806
     83      2      H          -0.00905879    -0.07736445    -0.02144962
     84      2      H           0.03191848     0.00817845     0.00622191
     85      1      O          -0.03246610    -0.02919408    -0.11620298
     86      2      H           0.08188226     0.01485673    -0.03161107
     87      2      H          -0.00187267     0.02824694    -0.02112881
     88      1      O          -0.03054795    -0.00178806     0.06083757
     89      2      H           0.02481372    -0.05334631     0.01956710
     90      2      H           0.01683666     0.04616651     0.02281524
     91      1      O          -0.03204810     0.06885248    -0.02433834
     92      2      H           0.00935394    -0.00804304     0.03852275
     93      2      H          -0.01703239    -0.03962513    -0.03984014
     94      1      O          -0.01100376     0.03216889     0.08013948
     95      2      H           0.06937389    -0.03368220    -0.00285079
     96      2      H          -0.01461603    -0.02871632    -0.02630878
     97      1      O          -0.04643360     0.01670915    -0.11658621
     98      2      H           0.01777386     0.05577529    -0.04333386
     99      2      H           0.01550571     0.01722728    -0.03441522
    100      1      O           0.01855535    -0.04621690     0.07068443
    101      2      H           0.02980126    -0.00239394     0.05023462
    102      2      H          -0.02662983     0.03904058     0.04388437
    103      1      O          -0.02371754     0.00357049     0.12789776
    104      2      H           0.03186863     0.02443756    -0.01701620
    105      2      H           0.00450666     0.02319216    -0.04727135
    106      1      O          -0.02359860    -0.05256514    -0.03930700
    107      2      H           0.03231323     0.00257590    -0.08918060
    108      2      H           0.02016758    -0.05538940    -0.03457319
    109      1      O          -0.04811717    -0.01235465    -0.03406829
    110      2      H           0.01451300    -0.00866554     0.02133359
    111      2      H           0.00499415     0.01066033     0.01414146
    112      1      O          -0.04846932     0.09017642    -0.11121608
    113      2      H           0.01561652    -0.01615233     0.08237311
    114      2      H           0.04192598     0.00426961    -0.06706226
    115      1      O           0.06542543    -0.02905738     0.01185273
    116      2      H          -0.05049917    -0.01583507     0.01787252
    117      2      H          -0.00033563     0.03054757     0.05030335
    118      1      O          -0.05833305     0.04553254    -0.02325912
    119      2      H           0.03903269     0.00562228     0.01744406
    120      2      H           0.02190013    -0.00146039    -0.02760641
    121      1      O          -0.01240575    -0.03670996    -0.09517739
    122      2      H          -0.01367346    -0.02018121     0.01085891
    123      2      H          -0.01126313     0.02064601     0.00056157
    124      1      O           0.02155391     0.02368529    -0.02560873
    125      2      H          -0.04187695     0.03477282    -0.01523795
    126      2      H          -0.00864455     0.04222267     0.01046534
    127      1      O           0.00842873     0.05219948     0.07742829
    128      2      H          -0.02224886     0.00219900    -0.02715668
    129      2      H          -0.00807312     0.01833770     0.06415121
    130      1      O           0.04000178    -0.01588228    -0.16555531
    131      2      H          -0.05152174     0.05001183     0.07516610
    132      2      H           0.02354541    -0.04102433     0.02131634
    133      1      O          -0.02676502    -0.03126821    -0.05524927
    134      2      H           0.06311529     0.00783355     0.01968768
    135      2      H          -0.00337024    -0.02786917     0.00488895
    136      1      O           0.00682554    -0.05070131    -0.10664059
    137      2      H          -0.01156719    -0.03543888    -0.01835935
    138      2      H          -0.02609548    -0.00639502    -0.00031080
    139      1      O          -0.01270894    -0.05842899     0.05587566
    140      2      H          -0.00523669    -0.02771376    -0.02217708
    141      2      H          -0.01563147    -0.02855615    -0.07469894
    142      1      O           0.05857621     0.02925991     0.17178595
    143      2      H           0.04771127    -0.03742509     0.02864166
    144      2      H          -0.05022602    -0.08214688    -0.04354321
    145      1      O           0.01914245    -0.02744039     0.00007563
    146      2      H          -0.01236398    -0.02336455    -0.03304953
    147      2      H           0.01487938     0.01875054     0.04315199
    148      1      O          -0.04452365    -0.01625099    -0.08745691
    149      2      H          -0.00090104    -0.04758851    -0.01381907
    150      2      H           0.07979249    -0.00497301     0.00524644
    151      1      O           0.04713928     0.11994207     0.02733107
    152      2      H          -0.02846417    -0.02461123    -0.09810078
    153      2      H          -0.02651722    -0.05676793     0.06272205
    154      1      O          -0.01385067    -0.04846654     0.08639317
    155      2      H           0.00471336     0.01547939    -0.04648200
    156      2      H          -0.00251993     0.01176919    -0.04006011
    157      1      O           0.01785759     0.07928381    -0.01219760
    158      2      H           0.03735786    -0.03878018    -0.02343289
    159      2      H          -0.01363843    -0.02545920     0.04159537
    160      1      O           0.01623498     0.15041240     0.13011919
    161      2      H           0.01054331    -0.10856128    -0.00178523
    162      2      H          -0.01740264     0.03688596    -0.07723659
    163      1      O          -0.04181731     0.02081000     0.14862864
    164      2      H           0.03513536    -0.00315993    -0.05928161
    165      2      H           0.00583957    -0.01479363    -0.02551284
    166      1      O          -0.05901216    -0.06321134     0.09111132
    167      2      H           0.04585660     0.06060802    -0.03084801
    168      2      H           0.00304660    -0.00867236    -0.02971969
    169      1      O           0.04336846    -0.08267231     0.15043313
    170      2      H          -0.05733429     0.01141869    -0.04600926
    171      2      H           0.02170172     0.03171022    -0.05411361
    172      1      O          -0.02885287    -0.10915376     0.00665166
    173      2      H           0.02000394    -0.05199672    -0.03310790
    174      2      H           0.05661130     0.07179171    -0.08190021
    175      1      O          -0.04992037    -0.00349952    -0.02539247
    176      2      H          -0.01059880    -0.02869401    -0.00258018
    177      2      H           0.01239979    -0.00275948    -0.03557891
    178      1      O          -0.07000134    -0.01760903    -0.05916491
    179      2      H           0.00621574    -0.06034427    -0.03704433
    180      2      H           0.02893903    -0.00871579     0.00100991
    181      1      O          -0.06245625     0.05548558     0.11776508
    182      2      H          -0.02698593    -0.02372457    -0.00316503
    183      2      H           0.05601627    -0.03894106    -0.03359329
    184      1      O          -0.05929918    -0.06499759    -0.09236958
    185      2      H          -0.00823699     0.10142273     0.01941070
    186      2      H           0.07149712     0.00650243     0.02572581
    187      1      O           0.00135059     0.07410915     0.05882294
    188      2      H          -0.02841908     0.01753785     0.00920768
    189      2      H           0.00574292    -0.02078502     0.01395826
    190      1      O          -0.03741551     0.05234317     0.08829525
    191      2      H          -0.00454614     0.03169869     0.04396452
    192      2      H          -0.01095249     0.01987361    -0.04201799
 SUM OF ATOMIC FORCES          -0.19063420     0.18967540    -0.03754249     0.27152825

 -------------------------------------------------------------------------------
 -                                                                             -
 -                                DBCSR STATISTICS                             -
 -                                                                             -
 -------------------------------------------------------------------------------
 COUNTER                                    TOTAL       BLAS       SMM       ACC
 flops     5 x     5 x   256            907392000       0.0%    100.0%      0.0%
 flops    13 x     5 x   256           1122467840       0.0%    100.0%      0.0%
 flops     5 x    13 x   256           1149624320       0.0%    100.0%      0.0%
 flops    13 x    13 x   256           1591596032       0.0%    100.0%      0.0%
 flops inhomo. stacks                           0       0.0%      0.0%      0.0%
 flops total                         4.771080E+09       0.0%    100.0%      0.0%
 flops max/rank                      4.771080E+09       0.0%    100.0%      0.0%
 matmuls inhomo. stacks                         0       0.0%      0.0%      0.0%
 matmuls total                             157556       0.0%    100.0%      0.0%
 number of processed stacks                  2652       0.0%    100.0%      0.0%
 average stack size                                     0.0      59.4       0.0
 marketing flops                    37.719376E+09
 -------------------------------------------------------------------------------
 # multiplications                             34
 max memory usage/rank              25.807913E+09
 # max total images/rank                        1
 # max 3D layers                                1
 # MPI messages exchanged                       0
 MPI messages size (bytes):
  total size                         0.000000E+00
  min size                           0.000000E+00
  max size                           0.000000E+00
  average size                       0.000000E+00
 MPI breakdown and total messages size (bytes):
             size <=      128                   0                        0
       128 < size <=     8192                   0                        0
      8192 < size <=    32768                   0                        0
     32768 < size <=   131072                   0                        0
    131072 < size <=  4194304                   0                        0
   4194304 < size <= 16777216                   0                        0
  16777216 < size                               0                        0
 -------------------------------------------------------------------------------

 MEMORY| Estimated peak process memory [MiB]                               24615

 -------------------------------------------------------------------------------
 -                                                                             -
 -                           R E F E R E N C E S                               -
 -                                                                             -
 -------------------------------------------------------------------------------
 
 CP2K version 7.1, the CP2K developers group (2019).
 CP2K is freely available from https://www.cp2k.org/ .

 Schuett, Ole; Messmer, Peter; Hutter, Juerg; VandeVondele, Joost. 
 Electronic Structure Calculations on Graphics Processing Units, John
 Wiley & Sons, Ltd, 173-190 (2016). 
 GPU-Accelerated Sparse Matrix-Matrix Multiplication for
 Linear Scaling Density Functional Theory.
 https://dx.doi.org/10.1002/9781118670712.ch8

 Borstnik, U; VandeVondele, J; Weber, V; Hutter, J. 
 PARALLEL COMPUTING, 40 (5-6), 47-58 (2014). 
 Sparse matrix multiplication: The distributed block-compressed sparse
 row library.
 https://dx.doi.org/10.1016/j.parco.2014.03.012

 Hutter, J; Iannuzzi, M; Schiffmann, F; VandeVondele, J. 
 WIREs Comput Mol Sci., 4 (1), 15-25 (2014). 
 CP2K: atomistic simulations of condensed matter systems.
 https://dx.doi.org/10.1002/wcms.1159

 Krack, M. 
 THEORETICAL CHEMISTRY ACCOUNTS, 114 (1-3), 145-152 (2005). 
 Pseudopotentials for H to Kr optimized for gradient-corrected
 exchange-correlation functionals.
 https://dx.doi.org/10.1007/s00214-005-0655-y

 VandeVondele, J; Krack, M; Mohamed, F; Parrinello, M; Chassaing, T;
 Hutter, J. COMPUTER PHYSICS COMMUNICATIONS, 167 (2), 103-128 (2005). 
 QUICKSTEP: Fast and accurate density functional calculations using a
 mixed Gaussian and plane waves approach.
 https://dx.doi.org/10.1016/j.cpc.2004.12.014

 Frigo, M; Johnson, SG. 
 PROCEEDINGS OF THE IEEE, 93 (2), 216-231 (2005). 
 The design and implementation of FFTW3.
 https://dx.doi.org/10.1109/JPROC.2004.840301

 Hartwigsen, C; Goedecker, S; Hutter, J. 
 PHYSICAL REVIEW B, 58 (7), 3641-3662 (1998). 
 Relativistic separable dual-space Gaussian pseudopotentials from H to Rn.
 https://dx.doi.org/10.1103/PhysRevB.58.3641

 Lippert, G; Hutter, J; Parrinello, M. 
 MOLECULAR PHYSICS, 92 (3), 477-487 (1997). 
 A hybrid Gaussian and plane wave density functional scheme.
 https://dx.doi.org/10.1080/002689797170220

 Goedecker, S; Teter, M; Hutter, J. 
 PHYSICAL REVIEW B, 54 (3), 1703-1710 (1996). 
 Separable dual-space Gaussian pseudopotentials.
 https://dx.doi.org/10.1103/PhysRevB.54.1703


 -------------------------------------------------------------------------------
 -                                                                             -
 -                                T I M I N G                                  -
 -                                                                             -
 -------------------------------------------------------------------------------
 SUBROUTINE                       CALLS  ASD         SELF TIME        TOTAL TIME
                                MAXIMUM       AVERAGE  MAXIMUM  AVERAGE  MAXIMUM
 CP2K                                 1  1.0    0.655    0.655  793.862  793.862
 qs_forces                            1  2.0    0.000    0.000  782.966  782.966
 qs_energies                          1  3.0    0.000    0.000  778.473  778.473
 scf_env_do_scf                       1  4.0    0.000    0.000  766.311  766.311
 scf_env_do_scf_inner_loop           33  5.0    0.005    0.005  766.311  766.311
 gspace_mixing                       32  6.0    4.499    4.499  298.210  298.210
 broyden_mixing                      32  7.0  266.091  266.091  266.091  266.091
 qs_scf_new_mos                      33  6.0    0.001    0.001  213.857  213.857
 eigensolver                         33  7.0    0.004    0.004  203.300  203.300
 pw_transfer                        441  9.9    0.041    0.041  151.161  151.161
 fft_wrap_pw1pw2                    373 10.9    0.006    0.006  146.825  146.825
 rebuild_ks_matrix                   34  6.9    0.000    0.000  145.635  145.635
 qs_ks_build_kohn_sham_matrix        34  7.9    0.014    0.014  145.635  145.635
 qs_ks_update_qs_env                 33  6.0    0.000    0.000  141.355  141.355
 cp_fm_syevd                         33  8.0  138.469  138.469  138.617  138.617
 fft_wrap_pw1pw2_70                 169 11.2   10.637   10.637  132.379  132.379
 qs_rho_update_rho                   34  6.0    0.000    0.000  115.724  115.724
 calculate_rho_elec                  34  7.0   42.431   42.431  115.724  115.724
 fft3d_s                            374 12.8   73.250   73.250   73.259   73.259
 density_rs2pw                       34  8.0    0.003    0.003   71.999   71.999
 cp_fm_cholesky_restore              99  8.0   64.564   64.564   64.564   64.564
 sum_up_and_integrate                34  8.9    2.229    2.229   47.847   47.847
 pw_scatter_s                       202 13.1   45.661   45.661   45.661   45.661
 integrate_v_rspace                  34  9.9    2.969    2.969   45.618   45.618
 pw_poisson_solve                    34  8.9   37.078   37.078   41.673   41.673
 potential_pw2rs                     34 10.9    0.277    0.277   38.956   38.956
 qs_vxc_create                       34  8.9    0.001    0.001   21.006   21.006
 xc_vxc_pw_create                    34  9.9    4.756    4.756   21.005   21.005
 xc_rho_set_and_dset_create          34 10.9    0.001    0.001   16.248   16.248
 -------------------------------------------------------------------------------

 The number of warnings for this run is : 0
 
 -------------------------------------------------------------------------------
  **** **** ******  **  PROGRAM ENDED AT                 2020-05-20 23:45:55.923
 ***** ** ***  *** **   PROGRAM RAN ON                                   gnode39
 **    ****   ******    PROGRAM RAN BY                               mayank.modi
 ***** **    ** ** **   PROGRAM PROCESS ID                                 21239
  **** **  *******  **  PROGRAM STOPPED IN /home/mayank.modi/ab-initio-thermodyn
                                           amics-of-water/mayank/cp2k_energy_cal
                                           culations
