 DBCSR| CPU Multiplication driver                                           XSMM
 DBCSR| Multrec recursion limit                                              512
 DBCSR| Multiplication stack size                                           1000
 DBCSR| Maximum elements for images                                    UNLIMITED
 DBCSR| Multiplicative factor virtual images                                   1
 DBCSR| Use multiplication densification                                       T
 DBCSR| Multiplication size stacks                                             3


  **** **** ******  **  PROGRAM STARTED AT               2020-05-21 02:01:56.826
 ***** ** ***  *** **   PROGRAM STARTED ON                               gnode39
 **    ****   ******    PROGRAM STARTED BY                           mayank.modi
 ***** **    ** ** **   PROGRAM PROCESS ID                                 26702
  **** **  *******  **  PROGRAM STARTED IN /home/mayank.modi/ab-initio-thermodyn
                                           amics-of-water/mayank/cp2k_energy_cal
                                           culations

 CP2K| version string:                                          CP2K version 7.1
 CP2K| source code revision number:                                  git:e635599
 CP2K| cp2kflags: omp libint fftw3 libxc xsmm spglib                            
 CP2K| is freely available from                            https://www.cp2k.org/
 CP2K| Program compiled at                          Mon Dec 23 19:23:12 CET 2019
 CP2K| Program compiled on                                                pc9404
 CP2K| Program compiled for                                Linux-x86-64-gfortran
 CP2K| Data directory path                                        /opt/cp2k/data
 CP2K| Input file name                                              ./input41.in

 GLOBAL| Force Environment number                                              1
 GLOBAL| Basis set file name                                           BASIS_SET
 GLOBAL| Potential file name                                      GTH_POTENTIALS
 GLOBAL| MM Potential file name                                     MM_POTENTIAL
 GLOBAL| Coordinate file name                                      __STD_INPUT__
 GLOBAL| Method name                                                        CP2K
 GLOBAL| Project name                                                   H2O_bulk
 GLOBAL| Preferred FFT library                                             FFTW3
 GLOBAL| Preferred diagonalization lib.                                       SL
 GLOBAL| Run type                                                   ENERGY_FORCE
 GLOBAL| All-to-all communication in single precision                          F
 GLOBAL| FFTs using library dependent lengths                                  F
 GLOBAL| Global print level                                                  LOW
 GLOBAL| MPI I/O enabled                                                       T
 GLOBAL| Total number of message passing processes                             1
 GLOBAL| Number of threads for this process                                   20
 GLOBAL| This output is from process                                           0
 GLOBAL| CPU model name                Intel(R) Xeon(R) CPU E5-2640 v4 @ 2.40GHz
 GLOBAL| CPUID                                                              1002
 GLOBAL| Compiled for CPUID                                                    0

 MEMORY| system memory details [Kb]
 MEMORY|                        rank 0           min           max       average
 MEMORY| MemTotal            131898148     131898148     131898148     131898148
 MEMORY| MemFree              88540372      88540372      88540372      88540372
 MEMORY| Buffers               3187092       3187092       3187092       3187092
 MEMORY| Cached               34219596      34219596      34219596      34219596
 MEMORY| Slab                  3920188       3920188       3920188       3920188
 MEMORY| SReclaimable          3257844       3257844       3257844       3257844
 MEMORY| MemLikelyFree       129204904     129204904     129204904     129204904


 GENERATE|  Preliminary Number of Bonds generated:                             0
 GENERATE|  Achieved consistency in connectivity generation.

 *******************************************************************************
 *******************************************************************************
 **                                                                           **
 **     #####                         ##              ##                      **
 **    ##   ##            ##          ##              ##                      **
 **   ##     ##                       ##            ######                    **
 **   ##     ##  ##   ##  ##   #####  ##  ##   ####   ##    #####    #####    **
 **   ##     ##  ##   ##  ##  ##      ## ##   ##      ##   ##   ##  ##   ##   **
 **   ##  ## ##  ##   ##  ##  ##      ####     ###    ##   ######   ######    **
 **    ##  ###   ##   ##  ##  ##      ## ##      ##   ##   ##       ##        **
 **     #######   #####   ##   #####  ##  ##  ####    ##    #####   ##        **
 **           ##                                                    ##        **
 **                                                                           **
 **                                                ... make the atoms dance   **
 **                                                                           **
 **            Copyright (C) by CP2K developers group (2000 - 2019)           **
 **                                                                           **
 *******************************************************************************


 TOTAL NUMBERS AND MAXIMUM NUMBERS

  Total number of            - Atomic kinds:                                   2
                             - Atoms:                                        192
                             - Shell sets:                                   384
                             - Shells:                                       704
                             - Primitive Cartesian functions:                960
                             - Cartesian basis functions:                   1536
                             - Spherical basis functions:                   1472

  Maximum angular momentum of- Orbital basis functions:                        2
                             - Local part of the GTH pseudopotential:          2
                             - Non-local part of the GTH pseudopotential:      0


 SCF PARAMETERS         Density guess:                                    ATOMIC
                        --------------------------------------------------------
                        max_scf:                                             300
                        max_scf_history:                                       0
                        max_diis:                                              4
                        --------------------------------------------------------
                        eps_scf:                                        1.00E-07
                        eps_scf_history:                                0.00E+00
                        eps_diis:                                       1.00E-01
                        eps_eigval:                                     1.00E-05
                        --------------------------------------------------------
                        level_shift [a.u.]:                                 0.00
                        --------------------------------------------------------
                        Mixing method:                            BROYDEN_MIXING
                                                charge density mixing in g-space
                        --------------------------------------------------------
                        No outer SCF

 Number of electrons:                                                        512
 Number of occupied orbitals:                                                256
 Number of molecular orbitals:                                               256

 Number of orbital functions:                                               1472
 Number of independent orbital functions:                                   1472

 Extrapolation method: initial_guess


 SCF WAVEFUNCTION OPTIMIZATION

  Step     Update method      Time    Convergence         Total energy    Change
  ------------------------------------------------------------------------------
     1 NoMix/Diag. 0.40E+00   10.4     0.97396361     -1087.4329323352 -1.09E+03
     2 Broy./Diag. 0.40E+00   15.9     0.30228153     -1013.6000016865  7.38E+01
     3 Broy./Diag. 0.40E+00   17.2     0.02425517     -1094.8351045115 -8.12E+01
     4 Broy./Diag. 0.40E+00   17.8     0.02734801     -1094.4435476205  3.92E-01
     5 Broy./Diag. 0.40E+00   19.0     0.00276113     -1095.3394258227 -8.96E-01
     6 Broy./Diag. 0.40E+00   19.6     0.00491121     -1095.3630956364 -2.37E-02
     7 Broy./Diag. 0.40E+00   20.6     0.00362527     -1095.5093488392 -1.46E-01
     8 Broy./Diag. 0.40E+00   23.5     0.00513564     -1095.6388148085 -1.29E-01
     9 Broy./Diag. 0.40E+00   24.2     0.00437028     -1095.7191601283 -8.03E-02
    10 Broy./Diag. 0.40E+00   24.8     0.00183226     -1095.7509492618 -3.18E-02
    11 Broy./Diag. 0.40E+00   24.2     0.00159866     -1095.7138315085  3.71E-02
    12 Broy./Diag. 0.40E+00   25.5     0.00059597     -1095.7222190266 -8.39E-03
    13 Broy./Diag. 0.40E+00   25.9     0.00051659     -1095.7433020955 -2.11E-02
    14 Broy./Diag. 0.40E+00   25.8     0.00022857     -1095.7444878819 -1.19E-03
    15 Broy./Diag. 0.40E+00   25.4     0.00031467     -1095.7380377969  6.45E-03
    16 Broy./Diag. 0.40E+00   24.1     0.00021052     -1095.7384861412 -4.48E-04
    17 Broy./Diag. 0.40E+00   25.4     0.00009492     -1095.7393724109 -8.86E-04
    18 Broy./Diag. 0.40E+00   25.3     0.00003923     -1095.7395705188 -1.98E-04
    19 Broy./Diag. 0.40E+00   24.7     0.00001877     -1095.7397279210 -1.57E-04
    20 Broy./Diag. 0.40E+00   24.4     0.00002268     -1095.7392822659  4.46E-04
    21 Broy./Diag. 0.40E+00   25.4     0.00001659     -1095.7394577844 -1.76E-04
    22 Broy./Diag. 0.40E+00   24.7     0.00000471     -1095.7395692957 -1.12E-04
    23 Broy./Diag. 0.40E+00   25.2     0.00000653     -1095.7395681039  1.19E-06
    24 Broy./Diag. 0.40E+00   24.6     0.00000289     -1095.7395280386  4.01E-05
    25 Broy./Diag. 0.40E+00   24.9     0.00000339     -1095.7394923219  3.57E-05
    26 Broy./Diag. 0.40E+00   24.6     0.00000175     -1095.7394822653  1.01E-05
    27 Broy./Diag. 0.40E+00   24.4     0.00000088     -1095.7394888749 -6.61E-06
    28 Broy./Diag. 0.40E+00   25.8     0.00000085     -1095.7394913506 -2.48E-06
    29 Broy./Diag. 0.40E+00   24.1     0.00000038     -1095.7394843087  7.04E-06
    30 Broy./Diag. 0.40E+00   24.5     0.00000031     -1095.7394841983  1.10E-07
    31 Broy./Diag. 0.40E+00   24.2     0.00000020     -1095.7394849372 -7.39E-07
    32 Broy./Diag. 0.40E+00   23.9     0.00000011     -1095.7394859418 -1.00E-06
    33 Broy./Diag. 0.40E+00   24.2     0.00000014     -1095.7394868558 -9.14E-07
    34 Broy./Diag. 0.40E+00   25.1     0.00000007     -1095.7394872725 -4.17E-07

  *** SCF run converged in    34 steps ***


  Electronic density on regular grids:       -512.0003940459       -0.0003940459
  Core density on regular grids:              511.9996320132       -0.0003679868
  Total charge density on r-space grids:       -0.0007620327
  Total charge density g-space grids:          -0.0007620327

  Overlap energy of the core charge distribution:               0.00000474738292
  Self energy of the core charge distribution:              -2838.21791979120962
  Core Hamiltonian energy:                                    821.45396625784906
  Hartree energy:                                            1185.78877273176727
  Exchange-correlation energy:                               -264.76431121832877

  Total energy:                                             -1095.73948727253946

 ENERGY| Total FORCE_EVAL ( QS ) energy (a.u.):            -1095.739487643236089


 ATOMIC FORCES in [a.u.]

 # Atom   Kind   Element          X              Y              Z
      1      1      O           0.03208762    -0.12599942    -0.20695253
      2      2      H           0.01477509    -0.01053464     0.01850880
      3      2      H          -0.05623834     0.02031638     0.11481520
      4      1      O           0.02351940    -0.02808679     0.12686532
      5      2      H           0.01175741    -0.00371437     0.01989231
      6      2      H           0.00477359    -0.06038464     0.01321015
      7      1      O           0.02583065    -0.03164270    -0.02154846
      8      2      H           0.00007675    -0.03233509     0.01888661
      9      2      H          -0.00062086    -0.02749451    -0.01479513
     10      1      O          -0.12075297    -0.02418157    -0.11899798
     11      2      H           0.08531976    -0.04552561     0.06389792
     12      2      H           0.04839758    -0.01663564    -0.05617616
     13      1      O          -0.02566154    -0.10378967     0.02491672
     14      2      H           0.00253514     0.02715945     0.03256982
     15      2      H           0.02359323     0.00478782     0.02765781
     16      1      O          -0.00041140     0.02326973     0.00354652
     17      2      H           0.03526688    -0.02108688    -0.00435868
     18      2      H          -0.01640128    -0.03445795    -0.00311991
     19      1      O           0.00523579     0.10136586    -0.07041747
     20      2      H          -0.02525360    -0.04095053    -0.03520623
     21      2      H           0.04163927     0.02398361    -0.01923119
     22      1      O          -0.05260609     0.06035062    -0.03002340
     23      2      H           0.04518913     0.08421586    -0.05651617
     24      2      H           0.04776669    -0.06220434     0.07577817
     25      1      O          -0.02384371    -0.02311205     0.09291415
     26      2      H           0.00386055    -0.01667071     0.00709443
     27      2      H           0.01043284     0.04592704    -0.01928110
     28      1      O           0.02979723    -0.03387955    -0.12376466
     29      2      H           0.01838151     0.01257332     0.00193702
     30      2      H          -0.01576992     0.02459881     0.00573142
     31      1      O           0.07261545    -0.08339198     0.03540476
     32      2      H          -0.05469525     0.05050274    -0.01283066
     33      2      H           0.01001856     0.01616209    -0.03638501
     34      1      O           0.00678159     0.09766350    -0.03373700
     35      2      H          -0.00621381    -0.00108076     0.00808452
     36      2      H          -0.04960535     0.01864619    -0.02044192
     37      1      O           0.03023253     0.00313506    -0.05707086
     38      2      H           0.01008419    -0.00061856    -0.02643933
     39      2      H          -0.01255203     0.02175108     0.01415555
     40      1      O          -0.01247322    -0.01603234     0.07452070
     41      2      H           0.01627934     0.01194827    -0.00954292
     42      2      H           0.03742761     0.02960534    -0.02579156
     43      1      O           0.00327350    -0.05477110    -0.10375528
     44      2      H           0.03720044     0.01370761    -0.04141969
     45      2      H          -0.00734545    -0.01161078     0.04756859
     46      1      O          -0.05921466    -0.00026391    -0.13276733
     47      2      H           0.00731403    -0.02291674     0.03375570
     48      2      H           0.03330886    -0.03604894    -0.00112275
     49      1      O          -0.02035631     0.10099289     0.10033971
     50      2      H           0.00546362    -0.03198237    -0.02829623
     51      2      H           0.04667703    -0.07973352     0.01919289
     52      1      O          -0.02365000    -0.08770906    -0.04903028
     53      2      H           0.00006009    -0.02016848     0.00053932
     54      2      H          -0.01923690     0.01167711     0.04239004
     55      1      O           0.04507162     0.02799499    -0.08406920
     56      2      H           0.00014296    -0.01373322    -0.02753805
     57      2      H          -0.04435282    -0.01888981     0.01164553
     58      1      O           0.06002923    -0.02874064    -0.01524331
     59      2      H          -0.03109628    -0.02667751     0.02670034
     60      2      H           0.01852933    -0.01577492     0.01469143
     61      1      O           0.02505605     0.02049220    -0.00703596
     62      2      H          -0.00601644    -0.02569076    -0.06185223
     63      2      H           0.01604770    -0.02721709     0.02352236
     64      1      O           0.04252102     0.10080937    -0.02895102
     65      2      H           0.01590012    -0.04580012    -0.01125641
     66      2      H          -0.05362415    -0.00213253    -0.02559008
     67      1      O          -0.04628326     0.02860351    -0.14270138
     68      2      H          -0.01164652    -0.00268768     0.04746791
     69      2      H           0.02882708     0.02613181     0.01653094
     70      1      O           0.01151445    -0.05209317     0.11799186
     71      2      H          -0.04355629    -0.01733803    -0.00902475
     72      2      H          -0.02201353     0.05473585     0.02368908
     73      1      O          -0.01109491     0.11056075    -0.07043114
     74      2      H           0.02199178    -0.07536136     0.03346420
     75      2      H          -0.00808331     0.02413463    -0.00834821
     76      1      O           0.01783139    -0.01691438     0.02545892
     77      2      H           0.00374385    -0.01727465    -0.01339672
     78      2      H          -0.00276537     0.02036665    -0.05278534
     79      1      O          -0.01113613    -0.03672765    -0.03782302
     80      2      H           0.01776520     0.00448136    -0.04180997
     81      2      H           0.02037266     0.03088683    -0.04353983
     82      1      O          -0.02486469    -0.03068359    -0.05707215
     83      2      H           0.01396881    -0.02597293     0.02843413
     84      2      H           0.01309260     0.00781825    -0.04883771
     85      1      O          -0.00551406     0.03259011    -0.01075205
     86      2      H           0.05829584     0.03086328     0.00553565
     87      2      H          -0.02714740     0.04669168     0.03651605
     88      1      O          -0.04701877    -0.07684338     0.11312783
     89      2      H           0.06968119    -0.03015684    -0.00085725
     90      2      H          -0.00526978     0.04685268    -0.05453234
     91      1      O           0.01476516    -0.05585272     0.10350040
     92      2      H           0.00307931     0.01919794    -0.01935185
     93      2      H          -0.04800023     0.00575694     0.00799672
     94      1      O           0.00930015     0.04394730     0.07752803
     95      2      H           0.01367791     0.02087494     0.01522239
     96      2      H          -0.01635621    -0.00540589     0.05466318
     97      1      O          -0.01203621     0.06596639     0.09105379
     98      2      H           0.01922291     0.01662760     0.02729532
     99      2      H           0.03549274     0.00410675    -0.01086824
    100      1      O           0.03398578     0.06901544    -0.12208462
    101      2      H          -0.00370106    -0.02005590    -0.00706207
    102      2      H          -0.02178385     0.01823756     0.02636087
    103      1      O          -0.05156040    -0.07416376    -0.09650207
    104      2      H           0.02705102    -0.00954428     0.02015123
    105      2      H           0.00788302     0.00473482    -0.03481083
    106      1      O           0.01679608    -0.03840313    -0.06481397
    107      2      H           0.00407735    -0.00138371    -0.00831766
    108      2      H           0.01358807    -0.00917783     0.03945734
    109      1      O          -0.05375188    -0.00536795    -0.05390567
    110      2      H           0.04364277     0.03477826    -0.05960054
    111      2      H           0.00141689     0.00175607     0.02059869
    112      1      O          -0.02040193     0.04983048    -0.06348591
    113      2      H           0.02908138    -0.00027836     0.05513626
    114      2      H           0.04026405     0.02784091    -0.01197181
    115      1      O           0.01967108     0.06933802     0.08664576
    116      2      H          -0.03102005    -0.00908344     0.01565597
    117      2      H           0.00862545    -0.02581776    -0.01685193
    118      1      O           0.01118146     0.01556797     0.09446104
    119      2      H           0.01873086     0.01241853     0.04108745
    120      2      H           0.02574138    -0.03683894    -0.04511848
    121      1      O           0.00686338     0.11014351    -0.05274331
    122      2      H           0.01996268    -0.01866124    -0.01019914
    123      2      H          -0.01605055     0.00161753     0.00925084
    124      1      O           0.03146916    -0.04957104     0.08035413
    125      2      H           0.00449940    -0.01792549    -0.02640831
    126      2      H          -0.00538965     0.01134433    -0.00674194
    127      1      O           0.06418360    -0.05800032    -0.06869392
    128      2      H          -0.01300596    -0.00966424     0.01312164
    129      2      H          -0.01909965     0.00126042    -0.01008781
    130      1      O           0.06985904     0.08488743    -0.07924488
    131      2      H          -0.05877018     0.01080838     0.02103128
    132      2      H          -0.01421082    -0.03212501    -0.02471936
    133      1      O          -0.09695286     0.01342501     0.10290486
    134      2      H           0.06510170     0.04422530     0.02362268
    135      2      H          -0.00435317     0.00118989     0.02978468
    136      1      O           0.04332353     0.03257157     0.07338615
    137      2      H          -0.00380715     0.03293480    -0.01098747
    138      2      H          -0.00890460     0.04153328    -0.00262199
    139      1      O           0.09138529     0.07095808     0.00506963
    140      2      H          -0.04685515    -0.03117581     0.06375460
    141      2      H          -0.02453327    -0.02207088    -0.03130907
    142      1      O           0.04893738     0.12582385     0.12168106
    143      2      H          -0.02790100     0.01914461     0.00898157
    144      2      H          -0.00732566    -0.04801136    -0.12148712
    145      1      O          -0.02263469     0.07404062    -0.05807028
    146      2      H           0.03590476    -0.03224121     0.01360331
    147      2      H          -0.00149175    -0.01221004     0.00345583
    148      1      O           0.00363836    -0.04939275     0.09601349
    149      2      H          -0.00306350    -0.01817052     0.01488498
    150      2      H           0.00637027     0.02715378     0.01154787
    151      1      O           0.00061675    -0.01785393    -0.11425262
    152      2      H          -0.00393404     0.03548144     0.00357752
    153      2      H           0.01278004    -0.00010616    -0.03107319
    154      1      O           0.00918633     0.04539161    -0.03982342
    155      2      H          -0.02421398    -0.02368262     0.05178264
    156      2      H          -0.00838371    -0.01188576     0.00097099
    157      1      O           0.01865908     0.05949583     0.07214889
    158      2      H           0.03800466     0.00660262     0.01600742
    159      2      H          -0.06596174     0.01829062     0.03640817
    160      1      O           0.01205494     0.02913786     0.09422637
    161      2      H           0.00373618     0.01967105     0.03442649
    162      2      H           0.00798021    -0.03352680    -0.01923501
    163      1      O          -0.01789237    -0.03140253     0.10196399
    164      2      H           0.01779364    -0.04184748     0.00851193
    165      2      H          -0.01050989     0.02606472    -0.01086666
    166      1      O          -0.02873323     0.10094340     0.05010195
    167      2      H          -0.00636070     0.04017903    -0.01830275
    168      2      H           0.01331511    -0.06674610    -0.02604074
    169      1      O          -0.01095330    -0.07671316     0.01137201
    170      2      H          -0.03586535    -0.01527969     0.02315148
    171      2      H           0.00986533    -0.00850883    -0.04550519
    172      1      O          -0.08075464     0.07763931     0.02498588
    173      2      H           0.04283851    -0.06925138     0.03609363
    174      2      H           0.05980303     0.04334561    -0.01674423
    175      1      O          -0.04226770     0.02064809    -0.12270091
    176      2      H           0.01104887     0.01901895    -0.04101433
    177      2      H          -0.00064974     0.02419906     0.00539712
    178      1      O          -0.06956712     0.08728356     0.12607852
    179      2      H           0.03375954     0.00222567    -0.03900024
    180      2      H           0.01482777    -0.08719232    -0.01780522
    181      1      O           0.00690105     0.01141742     0.01454632
    182      2      H          -0.01133146     0.00403505    -0.03419049
    183      2      H           0.00453473     0.00216762    -0.04271831
    184      1      O           0.06691149     0.09055747     0.02663979
    185      2      H          -0.00958546    -0.04312199     0.01236438
    186      2      H          -0.03188270     0.00541931     0.04432072
    187      1      O          -0.00126203     0.04751801    -0.05656967
    188      2      H          -0.02237076    -0.02091959     0.03529421
    189      2      H          -0.00514414     0.05231455     0.01083847
    190      1      O          -0.00512419     0.04957609     0.09221322
    191      2      H           0.00618289    -0.00758260     0.01496174
    192      2      H          -0.01153202     0.03085967    -0.03153564
 SUM OF ATOMIC FORCES           0.46530130     0.52895623    -0.07130965     0.70808548

 -------------------------------------------------------------------------------
 -                                                                             -
 -                                DBCSR STATISTICS                             -
 -                                                                             -
 -------------------------------------------------------------------------------
 COUNTER                                    TOTAL       BLAS       SMM       ACC
 flops     5 x     5 x   256            921088000       0.0%    100.0%      0.0%
 flops    13 x     5 x   256           1162470400       0.0%    100.0%      0.0%
 flops     5 x    13 x   256           1188096000       0.0%    100.0%      0.0%
 flops    13 x    13 x   256           1626293760       0.0%    100.0%      0.0%
 flops inhomo. stacks                           0       0.0%      0.0%      0.0%
 flops total                         4.897948E+09       0.0%    100.0%      0.0%
 flops max/rank                      4.897948E+09       0.0%    100.0%      0.0%
 matmuls inhomo. stacks                         0       0.0%      0.0%      0.0%
 matmuls total                             161385       0.0%    100.0%      0.0%
 number of processed stacks                  2730       0.0%    100.0%      0.0%
 average stack size                                     0.0      59.1       0.0
 marketing flops                    38.828769E+09
 -------------------------------------------------------------------------------
 # multiplications                             35
 max memory usage/rank              25.807634E+09
 # max total images/rank                        1
 # max 3D layers                                1
 # MPI messages exchanged                       0
 MPI messages size (bytes):
  total size                         0.000000E+00
  min size                           0.000000E+00
  max size                           0.000000E+00
  average size                       0.000000E+00
 MPI breakdown and total messages size (bytes):
             size <=      128                   0                        0
       128 < size <=     8192                   0                        0
      8192 < size <=    32768                   0                        0
     32768 < size <=   131072                   0                        0
    131072 < size <=  4194304                   0                        0
   4194304 < size <= 16777216                   0                        0
  16777216 < size                               0                        0
 -------------------------------------------------------------------------------

 MEMORY| Estimated peak process memory [MiB]                               24614

 -------------------------------------------------------------------------------
 -                                                                             -
 -                           R E F E R E N C E S                               -
 -                                                                             -
 -------------------------------------------------------------------------------
 
 CP2K version 7.1, the CP2K developers group (2019).
 CP2K is freely available from https://www.cp2k.org/ .

 Schuett, Ole; Messmer, Peter; Hutter, Juerg; VandeVondele, Joost. 
 Electronic Structure Calculations on Graphics Processing Units, John
 Wiley & Sons, Ltd, 173-190 (2016). 
 GPU-Accelerated Sparse Matrix-Matrix Multiplication for
 Linear Scaling Density Functional Theory.
 https://dx.doi.org/10.1002/9781118670712.ch8

 Borstnik, U; VandeVondele, J; Weber, V; Hutter, J. 
 PARALLEL COMPUTING, 40 (5-6), 47-58 (2014). 
 Sparse matrix multiplication: The distributed block-compressed sparse
 row library.
 https://dx.doi.org/10.1016/j.parco.2014.03.012

 Hutter, J; Iannuzzi, M; Schiffmann, F; VandeVondele, J. 
 WIREs Comput Mol Sci., 4 (1), 15-25 (2014). 
 CP2K: atomistic simulations of condensed matter systems.
 https://dx.doi.org/10.1002/wcms.1159

 Krack, M. 
 THEORETICAL CHEMISTRY ACCOUNTS, 114 (1-3), 145-152 (2005). 
 Pseudopotentials for H to Kr optimized for gradient-corrected
 exchange-correlation functionals.
 https://dx.doi.org/10.1007/s00214-005-0655-y

 VandeVondele, J; Krack, M; Mohamed, F; Parrinello, M; Chassaing, T;
 Hutter, J. COMPUTER PHYSICS COMMUNICATIONS, 167 (2), 103-128 (2005). 
 QUICKSTEP: Fast and accurate density functional calculations using a
 mixed Gaussian and plane waves approach.
 https://dx.doi.org/10.1016/j.cpc.2004.12.014

 Frigo, M; Johnson, SG. 
 PROCEEDINGS OF THE IEEE, 93 (2), 216-231 (2005). 
 The design and implementation of FFTW3.
 https://dx.doi.org/10.1109/JPROC.2004.840301

 Hartwigsen, C; Goedecker, S; Hutter, J. 
 PHYSICAL REVIEW B, 58 (7), 3641-3662 (1998). 
 Relativistic separable dual-space Gaussian pseudopotentials from H to Rn.
 https://dx.doi.org/10.1103/PhysRevB.58.3641

 Lippert, G; Hutter, J; Parrinello, M. 
 MOLECULAR PHYSICS, 92 (3), 477-487 (1997). 
 A hybrid Gaussian and plane wave density functional scheme.
 https://dx.doi.org/10.1080/002689797170220

 Goedecker, S; Teter, M; Hutter, J. 
 PHYSICAL REVIEW B, 54 (3), 1703-1710 (1996). 
 Separable dual-space Gaussian pseudopotentials.
 https://dx.doi.org/10.1103/PhysRevB.54.1703


 -------------------------------------------------------------------------------
 -                                                                             -
 -                                T I M I N G                                  -
 -                                                                             -
 -------------------------------------------------------------------------------
 SUBROUTINE                       CALLS  ASD         SELF TIME        TOTAL TIME
                                MAXIMUM       AVERAGE  MAXIMUM  AVERAGE  MAXIMUM
 CP2K                                 1  1.0    0.625    0.625  819.686  819.686
 qs_forces                            1  2.0    0.000    0.000  808.386  808.386
 qs_energies                          1  3.0    0.000    0.000  804.142  804.142
 scf_env_do_scf                       1  4.0    0.000    0.000  792.683  792.683
 scf_env_do_scf_inner_loop           34  5.0    0.005    0.005  792.683  792.683
 gspace_mixing                       33  6.0    4.643    4.643  322.515  322.515
 broyden_mixing                      33  7.0  289.327  289.327  289.328  289.328
 qs_scf_new_mos                      34  6.0    0.001    0.001  218.773  218.773
 eigensolver                         34  7.0    0.004    0.004  214.892  214.892
 pw_transfer                        454  9.9    0.042    0.042  151.076  151.076
 fft_wrap_pw1pw2                    384 10.9    0.005    0.005  147.203  147.203
 cp_fm_syevd                         34  8.0  146.785  146.785  146.946  146.946
 rebuild_ks_matrix                   35  6.9    0.000    0.000  143.855  143.855
 qs_ks_build_kohn_sham_matrix        35  7.9    0.010    0.010  143.855  143.855
 qs_ks_update_qs_env                 34  6.0    0.000    0.000  139.819  139.819
 fft_wrap_pw1pw2_70                 174 11.2   11.056   11.056  134.052  134.052
 qs_rho_update_rho                   35  6.0    0.000    0.000  114.437  114.437
 calculate_rho_elec                  35  7.0   40.262   40.262  114.437  114.437
 density_rs2pw                       35  8.0    0.003    0.003   72.996   72.996
 fft3d_s                            385 12.8   71.089   71.089   71.097   71.097
 cp_fm_cholesky_restore             102  8.0   67.815   67.815   67.815   67.815
 pw_scatter_s                       208 13.1   47.505   47.505   47.505   47.505
 pw_poisson_solve                    35  8.9   39.174   39.174   43.307   43.307
 sum_up_and_integrate                35  8.9    2.278    2.278   42.947   42.947
 integrate_v_rspace                  35  9.9    2.779    2.779   40.669   40.669
 potential_pw2rs                     35 10.9    0.287    0.287   37.690   37.690
 qs_vxc_create                       35  8.9    0.001    0.001   21.997   21.997
 xc_vxc_pw_create                    35  9.9    4.917    4.917   21.996   21.996
 xc_rho_set_and_dset_create          35 10.9    0.001    0.001   17.079   17.079
 -------------------------------------------------------------------------------

 The number of warnings for this run is : 0
 
 -------------------------------------------------------------------------------
  **** **** ******  **  PROGRAM ENDED AT                 2020-05-21 02:15:36.618
 ***** ** ***  *** **   PROGRAM RAN ON                                   gnode39
 **    ****   ******    PROGRAM RAN BY                               mayank.modi
 ***** **    ** ** **   PROGRAM PROCESS ID                                 26702
  **** **  *******  **  PROGRAM STOPPED IN /home/mayank.modi/ab-initio-thermodyn
                                           amics-of-water/mayank/cp2k_energy_cal
                                           culations
