 DBCSR| CPU Multiplication driver                                           XSMM
 DBCSR| Multrec recursion limit                                              512
 DBCSR| Multiplication stack size                                           1000
 DBCSR| Maximum elements for images                                    UNLIMITED
 DBCSR| Multiplicative factor virtual images                                   1
 DBCSR| Use multiplication densification                                       T
 DBCSR| Multiplication size stacks                                             3


  **** **** ******  **  PROGRAM STARTED AT               2020-05-21 17:02:19.467
 ***** ** ***  *** **   PROGRAM STARTED ON                               gnode39
 **    ****   ******    PROGRAM STARTED BY                           mayank.modi
 ***** **    ** ** **   PROGRAM PROCESS ID                                 37725
  **** **  *******  **  PROGRAM STARTED IN /home/mayank.modi/ab-initio-thermodyn
                                           amics-of-water/mayank/cp2k_energy_cal
                                           culations

 CP2K| version string:                                          CP2K version 7.1
 CP2K| source code revision number:                                  git:e635599
 CP2K| cp2kflags: omp libint fftw3 libxc xsmm spglib                            
 CP2K| is freely available from                            https://www.cp2k.org/
 CP2K| Program compiled at                          Mon Dec 23 19:23:12 CET 2019
 CP2K| Program compiled on                                                pc9404
 CP2K| Program compiled for                                Linux-x86-64-gfortran
 CP2K| Data directory path                                        /opt/cp2k/data
 CP2K| Input file name                                             ./input110.in

 GLOBAL| Force Environment number                                              1
 GLOBAL| Basis set file name                                           BASIS_SET
 GLOBAL| Potential file name                                      GTH_POTENTIALS
 GLOBAL| MM Potential file name                                     MM_POTENTIAL
 GLOBAL| Coordinate file name                                      __STD_INPUT__
 GLOBAL| Method name                                                        CP2K
 GLOBAL| Project name                                                   H2O_bulk
 GLOBAL| Preferred FFT library                                             FFTW3
 GLOBAL| Preferred diagonalization lib.                                       SL
 GLOBAL| Run type                                                   ENERGY_FORCE
 GLOBAL| All-to-all communication in single precision                          F
 GLOBAL| FFTs using library dependent lengths                                  F
 GLOBAL| Global print level                                                  LOW
 GLOBAL| MPI I/O enabled                                                       T
 GLOBAL| Total number of message passing processes                             1
 GLOBAL| Number of threads for this process                                   20
 GLOBAL| This output is from process                                           0
 GLOBAL| CPU model name                Intel(R) Xeon(R) CPU E5-2640 v4 @ 2.40GHz
 GLOBAL| CPUID                                                              1002
 GLOBAL| Compiled for CPUID                                                    0

 MEMORY| system memory details [Kb]
 MEMORY|                        rank 0           min           max       average
 MEMORY| MemTotal            131898148     131898148     131898148     131898148
 MEMORY| MemFree              81969420      81969420      81969420      81969420
 MEMORY| Buffers               3187604       3187604       3187604       3187604
 MEMORY| Cached               33724608      33724608      33724608      33724608
 MEMORY| Slab                  3996792       3996792       3996792       3996792
 MEMORY| SReclaimable          3291692       3291692       3291692       3291692
 MEMORY| MemLikelyFree       122173324     122173324     122173324     122173324


 GENERATE|  Preliminary Number of Bonds generated:                             0
 GENERATE|  Achieved consistency in connectivity generation.

 *******************************************************************************
 *******************************************************************************
 **                                                                           **
 **     #####                         ##              ##                      **
 **    ##   ##            ##          ##              ##                      **
 **   ##     ##                       ##            ######                    **
 **   ##     ##  ##   ##  ##   #####  ##  ##   ####   ##    #####    #####    **
 **   ##     ##  ##   ##  ##  ##      ## ##   ##      ##   ##   ##  ##   ##   **
 **   ##  ## ##  ##   ##  ##  ##      ####     ###    ##   ######   ######    **
 **    ##  ###   ##   ##  ##  ##      ## ##      ##   ##   ##       ##        **
 **     #######   #####   ##   #####  ##  ##  ####    ##    #####   ##        **
 **           ##                                                    ##        **
 **                                                                           **
 **                                                ... make the atoms dance   **
 **                                                                           **
 **            Copyright (C) by CP2K developers group (2000 - 2019)           **
 **                                                                           **
 *******************************************************************************


 TOTAL NUMBERS AND MAXIMUM NUMBERS

  Total number of            - Atomic kinds:                                   2
                             - Atoms:                                        192
                             - Shell sets:                                   384
                             - Shells:                                       704
                             - Primitive Cartesian functions:                960
                             - Cartesian basis functions:                   1536
                             - Spherical basis functions:                   1472

  Maximum angular momentum of- Orbital basis functions:                        2
                             - Local part of the GTH pseudopotential:          2
                             - Non-local part of the GTH pseudopotential:      0


 SCF PARAMETERS         Density guess:                                    ATOMIC
                        --------------------------------------------------------
                        max_scf:                                             300
                        max_scf_history:                                       0
                        max_diis:                                              4
                        --------------------------------------------------------
                        eps_scf:                                        1.00E-07
                        eps_scf_history:                                0.00E+00
                        eps_diis:                                       1.00E-01
                        eps_eigval:                                     1.00E-05
                        --------------------------------------------------------
                        level_shift [a.u.]:                                 0.00
                        --------------------------------------------------------
                        Mixing method:                            BROYDEN_MIXING
                                                charge density mixing in g-space
                        --------------------------------------------------------
                        No outer SCF

 Number of electrons:                                                        512
 Number of occupied orbitals:                                                256
 Number of molecular orbitals:                                               256

 Number of orbital functions:                                               1472
 Number of independent orbital functions:                                   1472

 Extrapolation method: initial_guess


 SCF WAVEFUNCTION OPTIMIZATION

  Step     Update method      Time    Convergence         Total energy    Change
  ------------------------------------------------------------------------------
     1 NoMix/Diag. 0.40E+00   11.9     1.02193053     -1087.1772711078 -1.09E+03
     2 Broy./Diag. 0.40E+00   18.2     0.29639399     -1012.4746574894  7.47E+01
     3 Broy./Diag. 0.40E+00   18.7     0.02576297     -1094.5536563691 -8.21E+01
     4 Broy./Diag. 0.40E+00   19.8     0.02833685     -1094.2205961175  3.33E-01
     5 Broy./Diag. 0.40E+00   20.1     0.00244018     -1095.1341486952 -9.14E-01
     6 Broy./Diag. 0.40E+00   20.2     0.00361213     -1095.2082546083 -7.41E-02
     7 Broy./Diag. 0.40E+00   21.9     0.00248512     -1095.3469034995 -1.39E-01
     8 Broy./Diag. 0.40E+00   23.1     0.00335407     -1095.4763416631 -1.29E-01
     9 Broy./Diag. 0.40E+00   23.9     0.00311344     -1095.5423474058 -6.60E-02
    10 Broy./Diag. 0.40E+00   26.7     0.00142618     -1095.5774849292 -3.51E-02
    11 Broy./Diag. 0.40E+00   25.8     0.00156303     -1095.5475042766  3.00E-02
    12 Broy./Diag. 0.40E+00   26.1     0.00058609     -1095.5584023637 -1.09E-02
    13 Broy./Diag. 0.40E+00   26.1     0.00055685     -1095.5794369679 -2.10E-02
    14 Broy./Diag. 0.40E+00   25.8     0.00022849     -1095.5818805514 -2.44E-03
    15 Broy./Diag. 0.40E+00   26.1     0.00021909     -1095.5769258102  4.95E-03
    16 Broy./Diag. 0.40E+00   25.0     0.00012917     -1095.5784028404 -1.48E-03
    17 Broy./Diag. 0.40E+00   28.4     0.00004478     -1095.5793665160 -9.64E-04
    18 Broy./Diag. 0.40E+00   25.1     0.00003497     -1095.5791391263  2.27E-04
    19 Broy./Diag. 0.40E+00   25.9     0.00001554     -1095.5788032409  3.36E-04
    20 Broy./Diag. 0.40E+00   25.7     0.00001197     -1095.5784759835  3.27E-04
    21 Broy./Diag. 0.40E+00   26.2     0.00001107     -1095.5788820165 -4.06E-04
    22 Broy./Diag. 0.40E+00   26.0     0.00000440     -1095.5790493638 -1.67E-04
    23 Broy./Diag. 0.40E+00   25.8     0.00000488     -1095.5789650703  8.43E-05
    24 Broy./Diag. 0.40E+00   25.6     0.00000247     -1095.5788815889  8.35E-05
    25 Broy./Diag. 0.40E+00   26.3     0.00000212     -1095.5788555814  2.60E-05
    26 Broy./Diag. 0.40E+00   25.8     0.00000148     -1095.5788566197 -1.04E-06
    27 Broy./Diag. 0.40E+00   25.1     0.00000064     -1095.5788582490 -1.63E-06
    28 Broy./Diag. 0.40E+00   26.0     0.00000078     -1095.5788451315  1.31E-05
    29 Broy./Diag. 0.40E+00   25.7     0.00000036     -1095.5788464300 -1.30E-06
    30 Broy./Diag. 0.40E+00   26.0     0.00000023     -1095.5788486424 -2.21E-06
    31 Broy./Diag. 0.40E+00   25.5     0.00000027     -1095.5788510180 -2.38E-06
    32 Broy./Diag. 0.40E+00   26.3     0.00000010     -1095.5788515944 -5.76E-07
    33 Broy./Diag. 0.40E+00   26.3     0.00000010     -1095.5788508728  7.22E-07
    34 Broy./Diag. 0.40E+00   25.1     0.00000007     -1095.5788516772 -8.04E-07

  *** SCF run converged in    34 steps ***


  Electronic density on regular grids:       -511.9994728262        0.0005271738
  Core density on regular grids:              511.9997582107       -0.0002417893
  Total charge density on r-space grids:        0.0002853845
  Total charge density g-space grids:           0.0002853845

  Overlap energy of the core charge distribution:               0.00000523886460
  Self energy of the core charge distribution:              -2838.21791979120962
  Core Hamiltonian energy:                                    821.87095489275168
  Hartree energy:                                            1185.60569267957089
  Exchange-correlation energy:                               -264.83758469720163

  Total energy:                                             -1095.57885167722407

 ENERGY| Total FORCE_EVAL ( QS ) energy (a.u.):            -1095.578853648164568


 ATOMIC FORCES in [a.u.]

 # Atom   Kind   Element          X              Y              Z
      1      1      O          -0.03732154    -0.10504730    -0.14175978
      2      2      H           0.03142274     0.00817992    -0.00068369
      3      2      H          -0.01021440     0.06894985    -0.01014254
      4      1      O          -0.05144536    -0.03135314     0.19705454
      5      2      H          -0.00090859     0.01153029     0.00728272
      6      2      H           0.02022736    -0.06471036    -0.02015334
      7      1      O           0.07099580     0.01825186     0.03318991
      8      2      H          -0.00463909    -0.06005271     0.03935068
      9      2      H          -0.01394023     0.00086556    -0.05095015
     10      1      O          -0.01117798     0.02509917     0.10453753
     11      2      H           0.02021138     0.02948231    -0.00967513
     12      2      H           0.01086332    -0.06915299    -0.00099526
     13      1      O          -0.04606917    -0.08105546     0.01946599
     14      2      H          -0.00833235     0.01827037     0.00598348
     15      2      H           0.02618140     0.05591678     0.04620309
     16      1      O          -0.04162058     0.06903417     0.02765212
     17      2      H           0.00402670     0.00674034     0.02813816
     18      2      H           0.01714590     0.01517328     0.02707990
     19      1      O           0.02178111     0.03031410    -0.11632000
     20      2      H          -0.00313445     0.02491489     0.09013426
     21      2      H           0.00419926    -0.03054533     0.03020730
     22      1      O          -0.02345151     0.04072734     0.07604791
     23      2      H           0.02471648     0.02150168    -0.01405232
     24      2      H          -0.01571761    -0.00411472    -0.02066133
     25      1      O          -0.02837524     0.07237777     0.12537497
     26      2      H           0.02154840    -0.05218588    -0.02987426
     27      2      H          -0.02073200     0.01322611    -0.02043832
     28      1      O          -0.04439615     0.01064834     0.10092272
     29      2      H           0.01187882     0.02295244     0.01825453
     30      2      H           0.00446220     0.02743571     0.03380169
     31      1      O          -0.04700474     0.06265816    -0.05950135
     32      2      H           0.08712981     0.02972007    -0.03799247
     33      2      H           0.00332586     0.00045129     0.03872602
     34      1      O          -0.00406945    -0.00555108     0.08750287
     35      2      H           0.00694738    -0.00684456     0.00222021
     36      2      H          -0.00207925     0.05002856    -0.03112882
     37      1      O           0.03022129    -0.01083823     0.04516628
     38      2      H           0.05563219    -0.02407825     0.05029862
     39      2      H          -0.05157182     0.01211260    -0.01130173
     40      1      O          -0.08409145     0.04425626    -0.10495792
     41      2      H           0.02614977    -0.06608155     0.00300094
     42      2      H           0.02746005     0.06281680     0.03696585
     43      1      O          -0.04601176     0.00014877    -0.01243838
     44      2      H           0.01141409     0.02806818     0.02345104
     45      2      H           0.06436036    -0.08304587     0.03889987
     46      1      O          -0.01889861    -0.06914913     0.01989938
     47      2      H           0.03232193     0.01308470     0.04378335
     48      2      H           0.00526319     0.00038867     0.03029175
     49      1      O          -0.06498878    -0.00556536    -0.08502068
     50      2      H           0.03462690    -0.04690938     0.06590935
     51      2      H           0.00991660    -0.03066429     0.02135304
     52      1      O          -0.00187349    -0.01613132     0.03646412
     53      2      H           0.00448979     0.01532107    -0.03735056
     54      2      H          -0.01203098     0.03209726    -0.03811639
     55      1      O           0.02589432     0.02214914     0.04235985
     56      2      H           0.00980965     0.04146301     0.05452324
     57      2      H          -0.00220267     0.01634272    -0.00818391
     58      1      O           0.04885474     0.06222671    -0.03103942
     59      2      H          -0.01333487     0.04164119    -0.01646426
     60      2      H          -0.00301810    -0.02962570    -0.03251504
     61      1      O          -0.04113829     0.02797208    -0.08742333
     62      2      H          -0.01313626    -0.03202885    -0.00848371
     63      2      H           0.00094335    -0.01274724     0.01581650
     64      1      O          -0.06277474     0.04354693     0.08087909
     65      2      H           0.03099870     0.00891800    -0.01540015
     66      2      H          -0.01725022    -0.01928976     0.02867796
     67      1      O           0.03975151     0.05103230     0.05744927
     68      2      H          -0.00382320     0.01481595     0.02609401
     69      2      H          -0.01159207     0.01159038    -0.01962008
     70      1      O          -0.01657814    -0.07854879    -0.09539123
     71      2      H          -0.01085385     0.01236391     0.00870080
     72      2      H           0.02605094     0.02033007     0.06174917
     73      1      O           0.01115016     0.01021321    -0.09129384
     74      2      H           0.00664491    -0.03582370     0.05378258
     75      2      H          -0.01464238     0.01719279    -0.00135581
     76      1      O           0.05872586    -0.02288058    -0.02351926
     77      2      H          -0.01264702    -0.01503542     0.03502428
     78      2      H          -0.06015245     0.05569219    -0.03146845
     79      1      O          -0.05056780     0.08599740    -0.08645319
     80      2      H           0.01611710     0.01309920     0.01203222
     81      2      H           0.02647639    -0.03659416    -0.04105050
     82      1      O          -0.00133860     0.09764034    -0.09540704
     83      2      H          -0.00758848    -0.05348919     0.00966533
     84      2      H           0.00119210     0.00758210    -0.01766597
     85      1      O           0.00614949     0.00025370     0.08002560
     86      2      H          -0.00527931     0.01187573    -0.06350114
     87      2      H          -0.01844401     0.04008208    -0.01247608
     88      1      O           0.02430206    -0.01159576    -0.05508322
     89      2      H           0.00905921    -0.01708244     0.03247895
     90      2      H          -0.00266002     0.03762500    -0.00055160
     91      1      O           0.05412399    -0.02920629    -0.09047790
     92      2      H          -0.01176043     0.03603012     0.03943367
     93      2      H          -0.03294495    -0.00930890     0.03412307
     94      1      O          -0.04034422    -0.02227341    -0.05271778
     95      2      H           0.02408397    -0.00666869    -0.02827353
     96      2      H           0.00074477    -0.05335947     0.00431328
     97      1      O           0.01031192     0.00407586    -0.07842126
     98      2      H           0.00529663     0.02094064     0.02216534
     99      2      H          -0.00845607     0.02865726    -0.02572689
    100      1      O          -0.00249516     0.06239732    -0.10127941
    101      2      H           0.00507240    -0.03191583     0.01898999
    102      2      H           0.00235776    -0.03968731    -0.01446236
    103      1      O           0.00214028    -0.06648807     0.00163623
    104      2      H          -0.01006125     0.01308925     0.04772683
    105      2      H           0.02475612     0.05871825    -0.01962397
    106      1      O          -0.05531154    -0.05805093    -0.09936343
    107      2      H          -0.00215315    -0.00939537    -0.00498729
    108      2      H           0.01745541     0.00954459     0.03840042
    109      1      O          -0.04805359    -0.07000146     0.05715548
    110      2      H           0.02347970    -0.01083341     0.04503436
    111      2      H           0.04278816    -0.00552069    -0.04996119
    112      1      O          -0.02389031     0.07288670    -0.13887888
    113      2      H          -0.01938593     0.04313085     0.09413325
    114      2      H           0.01983325    -0.02259506    -0.03654258
    115      1      O           0.01506420    -0.05750440     0.04184255
    116      2      H          -0.02837378     0.00644591     0.02399407
    117      2      H          -0.00871742    -0.02042969     0.02997010
    118      1      O          -0.00529506    -0.00075215    -0.09371732
    119      2      H          -0.01994283     0.00026938     0.02976420
    120      2      H           0.00572775    -0.00422569     0.02317796
    121      1      O          -0.00430010     0.03965113     0.08571288
    122      2      H           0.00556937    -0.04873570    -0.00923012
    123      2      H          -0.01509903     0.02402469     0.01261010
    124      1      O          -0.00037886     0.04422019    -0.04094916
    125      2      H          -0.02065315     0.04657478    -0.02218817
    126      2      H           0.01820364     0.01486429     0.01416128
    127      1      O          -0.02057128     0.05601231    -0.07073289
    128      2      H           0.02891001    -0.03399689     0.01413549
    129      2      H          -0.03447854     0.02570896    -0.00190472
    130      1      O          -0.03438007    -0.05478952     0.10412578
    131      2      H           0.01563957    -0.04074741     0.02338317
    132      2      H           0.05012313    -0.02095001    -0.01994929
    133      1      O           0.01725705     0.03677330    -0.02572585
    134      2      H           0.01446549     0.00166059    -0.05308979
    135      2      H           0.00071889    -0.00320988     0.03617035
    136      1      O          -0.05695711     0.09899704     0.01689586
    137      2      H           0.01735115     0.05170027     0.03683201
    138      2      H           0.04345219    -0.04899349    -0.03599473
    139      1      O           0.05875218     0.09207614    -0.00999432
    140      2      H          -0.02961236    -0.01610353     0.02569367
    141      2      H          -0.02254843    -0.01065380    -0.05201366
    142      1      O          -0.05924610    -0.01228572    -0.03963725
    143      2      H           0.02735435     0.02327451     0.01191023
    144      2      H           0.05023932    -0.04539173     0.03563465
    145      1      O           0.03064068    -0.02558690    -0.10056462
    146      2      H          -0.01808932    -0.02034414     0.02449031
    147      2      H           0.00706059     0.03965966     0.00511658
    148      1      O           0.08544072     0.06054326     0.13826090
    149      2      H          -0.08206713     0.02674548    -0.01206022
    150      2      H          -0.00768635    -0.00570250    -0.00058917
    151      1      O          -0.03290339    -0.07449826    -0.02068948
    152      2      H           0.01535934    -0.01873094     0.01935670
    153      2      H          -0.01520492     0.04046773     0.03902597
    154      1      O          -0.07140901     0.04760211     0.06830852
    155      2      H           0.00579430     0.01309308     0.01095081
    156      2      H           0.03109875    -0.05450322    -0.00364389
    157      1      O           0.02490909    -0.02050534    -0.14903910
    158      2      H           0.03129269    -0.01426790     0.05949820
    159      2      H          -0.00711169    -0.02260347    -0.00780682
    160      1      O          -0.00969270    -0.03286828    -0.04038894
    161      2      H          -0.00575311    -0.05987055     0.06974105
    162      2      H           0.00117378    -0.00236536    -0.03010715
    163      1      O           0.05638104     0.05783416     0.12307935
    164      2      H           0.00976832    -0.05855582    -0.00313092
    165      2      H          -0.02725115     0.03674185    -0.04394386
    166      1      O          -0.02912653    -0.05751962    -0.03127643
    167      2      H          -0.00081002    -0.01147588     0.01677999
    168      2      H           0.01727617    -0.01116701     0.02513474
    169      1      O           0.00395275    -0.01202145    -0.01536476
    170      2      H          -0.03902947     0.03999363    -0.00868828
    171      2      H           0.06101624     0.06585567    -0.00763358
    172      1      O           0.01794196    -0.01544117     0.01802552
    173      2      H           0.01271611    -0.00054086     0.02258342
    174      2      H           0.02021484     0.00184621    -0.03970081
    175      1      O           0.02867947     0.02952854    -0.00064923
    176      2      H           0.00954630     0.02612999    -0.01877847
    177      2      H          -0.01019459     0.00595803    -0.01879297
    178      1      O           0.08310124     0.06966840    -0.03134583
    179      2      H          -0.03777215    -0.02655312     0.00023754
    180      2      H          -0.01565777     0.02255672    -0.02498658
    181      1      O          -0.00539304     0.11677895    -0.11835988
    182      2      H          -0.01290148    -0.03204316     0.08846922
    183      2      H           0.00250097    -0.00462964     0.00282210
    184      1      O           0.05206430    -0.12501391     0.00403323
    185      2      H          -0.05455837    -0.03256474     0.04076540
    186      2      H           0.00919511     0.09762301     0.02546324
    187      1      O           0.00105001     0.08295427     0.05146499
    188      2      H           0.01587224    -0.04053956     0.05224293
    189      2      H           0.01264330    -0.00796906     0.02659242
    190      1      O           0.01002721    -0.01587609     0.01519572
    191      2      H          -0.00061200     0.02578981     0.00601246
    192      2      H           0.00465061    -0.01595281     0.02443989
 SUM OF ATOMIC FORCES           0.13192741     0.61188188     0.46984420     0.78266075

 -------------------------------------------------------------------------------
 -                                                                             -
 -                                DBCSR STATISTICS                             -
 -                                                                             -
 -------------------------------------------------------------------------------
 COUNTER                                    TOTAL       BLAS       SMM       ACC
 flops     5 x     5 x   256            883904000       0.0%    100.0%      0.0%
 flops     5 x    13 x   256           1112384000       0.0%    100.0%      0.0%
 flops    13 x     5 x   256           1117043200       0.0%    100.0%      0.0%
 flops    13 x    13 x   256           1550581760       0.0%    100.0%      0.0%
 flops inhomo. stacks                           0       0.0%      0.0%      0.0%
 flops total                         4.663913E+09       0.0%    100.0%      0.0%
 flops max/rank                      4.663913E+09       0.0%    100.0%      0.0%
 matmuls inhomo. stacks                         0       0.0%      0.0%      0.0%
 matmuls total                             153965       0.0%    100.0%      0.0%
 number of processed stacks                  2730       0.0%    100.0%      0.0%
 average stack size                                     0.0      56.4       0.0
 marketing flops                    38.828769E+09
 -------------------------------------------------------------------------------
 # multiplications                             35
 max memory usage/rank              25.806782E+09
 # max total images/rank                        1
 # max 3D layers                                1
 # MPI messages exchanged                       0
 MPI messages size (bytes):
  total size                         0.000000E+00
  min size                           0.000000E+00
  max size                           0.000000E+00
  average size                       0.000000E+00
 MPI breakdown and total messages size (bytes):
             size <=      128                   0                        0
       128 < size <=     8192                   0                        0
      8192 < size <=    32768                   0                        0
     32768 < size <=   131072                   0                        0
    131072 < size <=  4194304                   0                        0
   4194304 < size <= 16777216                   0                        0
  16777216 < size                               0                        0
 -------------------------------------------------------------------------------

 MEMORY| Estimated peak process memory [MiB]                               24613

 -------------------------------------------------------------------------------
 -                                                                             -
 -                           R E F E R E N C E S                               -
 -                                                                             -
 -------------------------------------------------------------------------------
 
 CP2K version 7.1, the CP2K developers group (2019).
 CP2K is freely available from https://www.cp2k.org/ .

 Schuett, Ole; Messmer, Peter; Hutter, Juerg; VandeVondele, Joost. 
 Electronic Structure Calculations on Graphics Processing Units, John
 Wiley & Sons, Ltd, 173-190 (2016). 
 GPU-Accelerated Sparse Matrix-Matrix Multiplication for
 Linear Scaling Density Functional Theory.
 https://dx.doi.org/10.1002/9781118670712.ch8

 Borstnik, U; VandeVondele, J; Weber, V; Hutter, J. 
 PARALLEL COMPUTING, 40 (5-6), 47-58 (2014). 
 Sparse matrix multiplication: The distributed block-compressed sparse
 row library.
 https://dx.doi.org/10.1016/j.parco.2014.03.012

 Hutter, J; Iannuzzi, M; Schiffmann, F; VandeVondele, J. 
 WIREs Comput Mol Sci., 4 (1), 15-25 (2014). 
 CP2K: atomistic simulations of condensed matter systems.
 https://dx.doi.org/10.1002/wcms.1159

 Krack, M. 
 THEORETICAL CHEMISTRY ACCOUNTS, 114 (1-3), 145-152 (2005). 
 Pseudopotentials for H to Kr optimized for gradient-corrected
 exchange-correlation functionals.
 https://dx.doi.org/10.1007/s00214-005-0655-y

 VandeVondele, J; Krack, M; Mohamed, F; Parrinello, M; Chassaing, T;
 Hutter, J. COMPUTER PHYSICS COMMUNICATIONS, 167 (2), 103-128 (2005). 
 QUICKSTEP: Fast and accurate density functional calculations using a
 mixed Gaussian and plane waves approach.
 https://dx.doi.org/10.1016/j.cpc.2004.12.014

 Frigo, M; Johnson, SG. 
 PROCEEDINGS OF THE IEEE, 93 (2), 216-231 (2005). 
 The design and implementation of FFTW3.
 https://dx.doi.org/10.1109/JPROC.2004.840301

 Hartwigsen, C; Goedecker, S; Hutter, J. 
 PHYSICAL REVIEW B, 58 (7), 3641-3662 (1998). 
 Relativistic separable dual-space Gaussian pseudopotentials from H to Rn.
 https://dx.doi.org/10.1103/PhysRevB.58.3641

 Lippert, G; Hutter, J; Parrinello, M. 
 MOLECULAR PHYSICS, 92 (3), 477-487 (1997). 
 A hybrid Gaussian and plane wave density functional scheme.
 https://dx.doi.org/10.1080/002689797170220

 Goedecker, S; Teter, M; Hutter, J. 
 PHYSICAL REVIEW B, 54 (3), 1703-1710 (1996). 
 Separable dual-space Gaussian pseudopotentials.
 https://dx.doi.org/10.1103/PhysRevB.54.1703


 -------------------------------------------------------------------------------
 -                                                                             -
 -                                T I M I N G                                  -
 -                                                                             -
 -------------------------------------------------------------------------------
 SUBROUTINE                       CALLS  ASD         SELF TIME        TOTAL TIME
                                MAXIMUM       AVERAGE  MAXIMUM  AVERAGE  MAXIMUM
 CP2K                                 1  1.0    0.784    0.784  858.712  858.712
 qs_forces                            1  2.0    0.000    0.000  847.481  847.481
 qs_energies                          1  3.0    0.000    0.000  842.790  842.790
 scf_env_do_scf                       1  4.0    0.000    0.000  830.106  830.106
 scf_env_do_scf_inner_loop           34  5.0    0.006    0.006  830.106  830.106
 gspace_mixing                       33  6.0    4.838    4.838  317.487  317.487
 broyden_mixing                      33  7.0  281.591  281.591  281.591  281.591
 qs_scf_new_mos                      34  6.0    0.001    0.001  225.412  225.412
 eigensolver                         34  7.0    0.004    0.004  215.997  215.997
 pw_transfer                        454  9.9    0.046    0.046  173.642  173.642
 fft_wrap_pw1pw2                    384 10.9    0.007    0.007  168.646  168.646
 rebuild_ks_matrix                   35  6.9    0.000    0.000  162.292  162.292
 qs_ks_build_kohn_sham_matrix        35  7.9    0.011    0.011  162.292  162.292
 qs_ks_update_qs_env                 34  6.0    0.001    0.001  157.786  157.786
 fft_wrap_pw1pw2_70                 174 11.2   12.992   12.992  152.524  152.524
 cp_fm_syevd                         34  8.0  146.210  146.210  146.372  146.372
 qs_rho_update_rho                   35  6.0    0.000    0.000  132.655  132.655
 calculate_rho_elec                  35  7.0   48.478   48.478  132.655  132.655
 fft3d_s                            385 12.8   84.834   84.834   84.847   84.847
 density_rs2pw                       35  8.0    0.004    0.004   82.797   82.797
 cp_fm_cholesky_restore             102  8.0   69.497   69.497   69.497   69.497
 sum_up_and_integrate                35  8.9    2.550    2.550   53.105   53.105
 integrate_v_rspace                  35  9.9    3.146    3.146   50.555   50.555
 pw_scatter_s                       208 13.1   50.253   50.253   50.253   50.253
 pw_poisson_solve                    35  8.9   40.721   40.721   45.989   45.989
 potential_pw2rs                     35 10.9    0.320    0.320   43.966   43.966
 qs_vxc_create                       35  8.9    0.001    0.001   23.017   23.017
 xc_vxc_pw_create                    35  9.9    5.039    5.039   23.017   23.017
 pw_gather_s                        176 12.6   18.574   18.574   18.574   18.574
 xc_rho_set_and_dset_create          35 10.9    0.001    0.001   17.978   17.978
 pw_copy                            280 11.3   17.500   17.500   17.500   17.500
 -------------------------------------------------------------------------------

 The number of warnings for this run is : 0
 
 -------------------------------------------------------------------------------
  **** **** ******  **  PROGRAM ENDED AT                 2020-05-21 17:16:38.313
 ***** ** ***  *** **   PROGRAM RAN ON                                   gnode39
 **    ****   ******    PROGRAM RAN BY                               mayank.modi
 ***** **    ** ** **   PROGRAM PROCESS ID                                 37725
  **** **  *******  **  PROGRAM STOPPED IN /home/mayank.modi/ab-initio-thermodyn
                                           amics-of-water/mayank/cp2k_energy_cal
                                           culations
