 DBCSR| CPU Multiplication driver                                           XSMM
 DBCSR| Multrec recursion limit                                              512
 DBCSR| Multiplication stack size                                           1000
 DBCSR| Maximum elements for images                                    UNLIMITED
 DBCSR| Multiplicative factor virtual images                                   1
 DBCSR| Use multiplication densification                                       T
 DBCSR| Multiplication size stacks                                             3


  **** **** ******  **  PROGRAM STARTED AT               2020-05-21 03:09:04.126
 ***** ** ***  *** **   PROGRAM STARTED ON                               gnode39
 **    ****   ******    PROGRAM STARTED BY                           mayank.modi
 ***** **    ** ** **   PROGRAM PROCESS ID                                 27581
  **** **  *******  **  PROGRAM STARTED IN /home/mayank.modi/ab-initio-thermodyn
                                           amics-of-water/mayank/cp2k_energy_cal
                                           culations

 CP2K| version string:                                          CP2K version 7.1
 CP2K| source code revision number:                                  git:e635599
 CP2K| cp2kflags: omp libint fftw3 libxc xsmm spglib                            
 CP2K| is freely available from                            https://www.cp2k.org/
 CP2K| Program compiled at                          Mon Dec 23 19:23:12 CET 2019
 CP2K| Program compiled on                                                pc9404
 CP2K| Program compiled for                                Linux-x86-64-gfortran
 CP2K| Data directory path                                        /opt/cp2k/data
 CP2K| Input file name                                              ./input46.in

 GLOBAL| Force Environment number                                              1
 GLOBAL| Basis set file name                                           BASIS_SET
 GLOBAL| Potential file name                                      GTH_POTENTIALS
 GLOBAL| MM Potential file name                                     MM_POTENTIAL
 GLOBAL| Coordinate file name                                      __STD_INPUT__
 GLOBAL| Method name                                                        CP2K
 GLOBAL| Project name                                                   H2O_bulk
 GLOBAL| Preferred FFT library                                             FFTW3
 GLOBAL| Preferred diagonalization lib.                                       SL
 GLOBAL| Run type                                                   ENERGY_FORCE
 GLOBAL| All-to-all communication in single precision                          F
 GLOBAL| FFTs using library dependent lengths                                  F
 GLOBAL| Global print level                                                  LOW
 GLOBAL| MPI I/O enabled                                                       T
 GLOBAL| Total number of message passing processes                             1
 GLOBAL| Number of threads for this process                                   20
 GLOBAL| This output is from process                                           0
 GLOBAL| CPU model name                Intel(R) Xeon(R) CPU E5-2640 v4 @ 2.40GHz
 GLOBAL| CPUID                                                              1002
 GLOBAL| Compiled for CPUID                                                    0

 MEMORY| system memory details [Kb]
 MEMORY|                        rank 0           min           max       average
 MEMORY| MemTotal            131898148     131898148     131898148     131898148
 MEMORY| MemFree              88706500      88706500      88706500      88706500
 MEMORY| Buffers               3187096       3187096       3187096       3187096
 MEMORY| Cached               34123876      34123876      34123876      34123876
 MEMORY| Slab                  3915816       3915816       3915816       3915816
 MEMORY| SReclaimable          3255756       3255756       3255756       3255756
 MEMORY| MemLikelyFree       129273228     129273228     129273228     129273228


 GENERATE|  Preliminary Number of Bonds generated:                             0
 GENERATE|  Achieved consistency in connectivity generation.

 *******************************************************************************
 *******************************************************************************
 **                                                                           **
 **     #####                         ##              ##                      **
 **    ##   ##            ##          ##              ##                      **
 **   ##     ##                       ##            ######                    **
 **   ##     ##  ##   ##  ##   #####  ##  ##   ####   ##    #####    #####    **
 **   ##     ##  ##   ##  ##  ##      ## ##   ##      ##   ##   ##  ##   ##   **
 **   ##  ## ##  ##   ##  ##  ##      ####     ###    ##   ######   ######    **
 **    ##  ###   ##   ##  ##  ##      ## ##      ##   ##   ##       ##        **
 **     #######   #####   ##   #####  ##  ##  ####    ##    #####   ##        **
 **           ##                                                    ##        **
 **                                                                           **
 **                                                ... make the atoms dance   **
 **                                                                           **
 **            Copyright (C) by CP2K developers group (2000 - 2019)           **
 **                                                                           **
 *******************************************************************************


 TOTAL NUMBERS AND MAXIMUM NUMBERS

  Total number of            - Atomic kinds:                                   2
                             - Atoms:                                        192
                             - Shell sets:                                   384
                             - Shells:                                       704
                             - Primitive Cartesian functions:                960
                             - Cartesian basis functions:                   1536
                             - Spherical basis functions:                   1472

  Maximum angular momentum of- Orbital basis functions:                        2
                             - Local part of the GTH pseudopotential:          2
                             - Non-local part of the GTH pseudopotential:      0


 SCF PARAMETERS         Density guess:                                    ATOMIC
                        --------------------------------------------------------
                        max_scf:                                             300
                        max_scf_history:                                       0
                        max_diis:                                              4
                        --------------------------------------------------------
                        eps_scf:                                        1.00E-07
                        eps_scf_history:                                0.00E+00
                        eps_diis:                                       1.00E-01
                        eps_eigval:                                     1.00E-05
                        --------------------------------------------------------
                        level_shift [a.u.]:                                 0.00
                        --------------------------------------------------------
                        Mixing method:                            BROYDEN_MIXING
                                                charge density mixing in g-space
                        --------------------------------------------------------
                        No outer SCF

 Number of electrons:                                                        512
 Number of occupied orbitals:                                                256
 Number of molecular orbitals:                                               256

 Number of orbital functions:                                               1472
 Number of independent orbital functions:                                   1472

 Extrapolation method: initial_guess


 SCF WAVEFUNCTION OPTIMIZATION

  Step     Update method      Time    Convergence         Total energy    Change
  ------------------------------------------------------------------------------
     1 NoMix/Diag. 0.40E+00   10.3     0.98317745     -1087.4060635392 -1.09E+03
     2 Broy./Diag. 0.40E+00   14.8     0.29823962     -1013.5387675860  7.39E+01
     3 Broy./Diag. 0.40E+00   16.2     0.02553438     -1094.7152268160 -8.12E+01
     4 Broy./Diag. 0.40E+00   16.3     0.03020881     -1094.4037843598  3.11E-01
     5 Broy./Diag. 0.40E+00   16.4     0.00295155     -1095.3100828382 -9.06E-01
     6 Broy./Diag. 0.40E+00   17.7     0.00543028     -1095.3545816245 -4.45E-02
     7 Broy./Diag. 0.40E+00   19.0     0.00320665     -1095.4948241611 -1.40E-01
     8 Broy./Diag. 0.40E+00   22.5     0.00389450     -1095.6278947086 -1.33E-01
     9 Broy./Diag. 0.40E+00   24.1     0.00354902     -1095.6914251520 -6.35E-02
    10 Broy./Diag. 0.40E+00   23.2     0.00162315     -1095.7234654286 -3.20E-02
    11 Broy./Diag. 0.40E+00   21.3     0.00153373     -1095.6908828503  3.26E-02
    12 Broy./Diag. 0.40E+00   24.3     0.00078248     -1095.7006408957 -9.76E-03
    13 Broy./Diag. 0.40E+00   23.8     0.00063015     -1095.7209948868 -2.04E-02
    14 Broy./Diag. 0.40E+00   25.6     0.00025634     -1095.7240184183 -3.02E-03
    15 Broy./Diag. 0.40E+00   24.5     0.00035155     -1095.7174192714  6.60E-03
    16 Broy./Diag. 0.40E+00   23.2     0.00019333     -1095.7177273006 -3.08E-04
    17 Broy./Diag. 0.40E+00   22.9     0.00009061     -1095.7187624003 -1.04E-03
    18 Broy./Diag. 0.40E+00   22.3     0.00003537     -1095.7188081660 -4.58E-05
    19 Broy./Diag. 0.40E+00   20.6     0.00001815     -1095.7186902068  1.18E-04
    20 Broy./Diag. 0.40E+00   21.6     0.00001463     -1095.7183027318  3.87E-04
    21 Broy./Diag. 0.40E+00   21.7     0.00001466     -1095.7184718443 -1.69E-04
    22 Broy./Diag. 0.40E+00   22.3     0.00000431     -1095.7186126292 -1.41E-04
    23 Broy./Diag. 0.40E+00   22.2     0.00000541     -1095.7186361037 -2.35E-05
    24 Broy./Diag. 0.40E+00   22.4     0.00000281     -1095.7185656320  7.05E-05
    25 Broy./Diag. 0.40E+00   21.2     0.00000373     -1095.7184894548  7.62E-05
    26 Broy./Diag. 0.40E+00   22.1     0.00000161     -1095.7184708534  1.86E-05
    27 Broy./Diag. 0.40E+00   21.4     0.00000078     -1095.7184816367 -1.08E-05
    28 Broy./Diag. 0.40E+00   22.6     0.00000068     -1095.7184842144 -2.58E-06
    29 Broy./Diag. 0.40E+00   21.8     0.00000037     -1095.7184774805  6.73E-06
    30 Broy./Diag. 0.40E+00   21.8     0.00000032     -1095.7184755563  1.92E-06
    31 Broy./Diag. 0.40E+00   24.2     0.00000029     -1095.7184796652 -4.11E-06
    32 Broy./Diag. 0.40E+00   24.1     0.00000012     -1095.7184825782 -2.91E-06
    33 Broy./Diag. 0.40E+00   22.4     0.00000015     -1095.7184832311 -6.53E-07
    34 Broy./Diag. 0.40E+00   24.0     0.00000006     -1095.7184836562 -4.25E-07

  *** SCF run converged in    34 steps ***


  Electronic density on regular grids:       -511.9997095875        0.0002904125
  Core density on regular grids:              511.9996548615       -0.0003451385
  Total charge density on r-space grids:       -0.0000547260
  Total charge density g-space grids:          -0.0000547260

  Overlap energy of the core charge distribution:               0.00000446708156
  Self energy of the core charge distribution:              -2838.21791979120962
  Core Hamiltonian energy:                                    821.54639415799545
  Hartree energy:                                            1185.75593536093857
  Exchange-correlation energy:                               -264.80289785102860

  Total energy:                                             -1095.71848365622259

 ENERGY| Total FORCE_EVAL ( QS ) energy (a.u.):            -1095.718484817057060


 ATOMIC FORCES in [a.u.]

 # Atom   Kind   Element          X              Y              Z
      1      1      O          -0.00418670     0.02059513     0.07520874
      2      2      H          -0.01541937    -0.02787254     0.02721550
      3      2      H          -0.01582879    -0.02327403     0.03133190
      4      1      O          -0.03736071    -0.01051227     0.12739493
      5      2      H           0.00287460     0.02414820    -0.03363635
      6      2      H           0.01980813    -0.01405752    -0.04826339
      7      1      O          -0.03248841     0.09615941     0.09956077
      8      2      H           0.02141538    -0.09659988     0.03055324
      9      2      H          -0.01951809     0.01752536    -0.05875653
     10      1      O          -0.00225347    -0.03594559    -0.02882187
     11      2      H          -0.01600352    -0.00779426    -0.05525927
     12      2      H           0.02335741     0.01433710     0.01107876
     13      1      O           0.05770794    -0.03856808     0.01269245
     14      2      H          -0.02157803    -0.03744626    -0.05222553
     15      2      H          -0.03240239    -0.01972322     0.03922677
     16      1      O           0.02962788    -0.05359389    -0.15476664
     17      2      H          -0.00790611    -0.03719896    -0.00844234
     18      2      H          -0.02224642     0.02720118     0.01868895
     19      1      O           0.03820549     0.06579744    -0.06407384
     20      2      H          -0.03778112    -0.04415366     0.02719741
     21      2      H          -0.01055836     0.02180295    -0.00305410
     22      1      O           0.00524090     0.04474206    -0.05270506
     23      2      H          -0.00174813    -0.00155231     0.02204678
     24      2      H          -0.01227073     0.02147262     0.03733134
     25      1      O          -0.04434371    -0.07102146     0.05505728
     26      2      H          -0.02263009    -0.02786119     0.00171481
     27      2      H           0.03010429     0.00406961    -0.03006100
     28      1      O           0.01465520     0.06332222     0.04882244
     29      2      H          -0.00775197    -0.01525118     0.03282925
     30      2      H          -0.03198570     0.05446460    -0.00784179
     31      1      O           0.03156191     0.00386826    -0.14500358
     32      2      H          -0.07117038    -0.06523625     0.04272748
     33      2      H           0.01442979    -0.00587609    -0.02919686
     34      1      O           0.04721830    -0.04094680    -0.12518142
     35      2      H           0.00792711    -0.03277892     0.03731629
     36      2      H          -0.02911001     0.02088162     0.02611427
     37      1      O           0.00618037     0.01917729     0.08316988
     38      2      H           0.01174223     0.00687068    -0.02955428
     39      2      H          -0.04109382    -0.01287596     0.00591691
     40      1      O          -0.02727082     0.10042129    -0.13928770
     41      2      H          -0.01556482    -0.03945208     0.06245418
     42      2      H           0.01724795     0.01735650     0.03782995
     43      1      O          -0.00538359     0.02368175     0.02132602
     44      2      H           0.03347192     0.01145555    -0.03979458
     45      2      H           0.00141250    -0.01663760     0.03839078
     46      1      O           0.02828781    -0.11294812    -0.12781273
     47      2      H           0.01967062     0.01932487     0.00851415
     48      2      H          -0.03217014     0.06277588     0.02655824
     49      1      O           0.00281431     0.04873849    -0.08857222
     50      2      H          -0.03054549     0.00212774    -0.03266239
     51      2      H           0.04044500    -0.04867282     0.03308944
     52      1      O           0.02809000    -0.06296097    -0.03683845
     53      2      H           0.00160690     0.04038500     0.00747301
     54      2      H          -0.01445267     0.01804121    -0.09264651
     55      1      O           0.02137320    -0.01262334     0.11707987
     56      2      H           0.00756065    -0.01473313    -0.03675188
     57      2      H          -0.01810050    -0.01703748     0.02337432
     58      1      O           0.03184441    -0.02616560     0.13677355
     59      2      H           0.00617171     0.02069080     0.01403007
     60      2      H          -0.03024771    -0.01225801    -0.02731993
     61      1      O           0.00400974     0.08518206    -0.04893095
     62      2      H           0.01530606     0.00669492    -0.01625443
     63      2      H           0.01251454    -0.01734747     0.04325819
     64      1      O           0.00986039    -0.05848016     0.13103821
     65      2      H           0.02388041    -0.04608917    -0.05591463
     66      2      H          -0.03749077    -0.03304093    -0.03278884
     67      1      O          -0.05487409    -0.09252530    -0.13975013
     68      2      H          -0.01891891    -0.00745758     0.00144322
     69      2      H           0.03546452     0.02408154     0.03739140
     70      1      O          -0.00376392    -0.07645447    -0.09164249
     71      2      H          -0.01015561    -0.01101727     0.01259793
     72      2      H          -0.01478739     0.04096286     0.03157906
     73      1      O          -0.03796310     0.09219922     0.03307643
     74      2      H           0.02622047    -0.07277162     0.05040419
     75      2      H           0.01363445     0.00130810    -0.09551466
     76      1      O          -0.03808251    -0.01623852    -0.08330566
     77      2      H           0.00588519    -0.01674980    -0.03399198
     78      2      H           0.00581048    -0.03056533    -0.02793246
     79      1      O           0.02710470    -0.04241600     0.10571582
     80      2      H           0.01040393    -0.03511124    -0.01095889
     81      2      H          -0.01367385     0.02783029     0.00355975
     82      1      O          -0.05883911    -0.01543593    -0.00113232
     83      2      H           0.01006702    -0.00755582    -0.02863865
     84      2      H           0.05914753     0.02132483     0.02976180
     85      1      O          -0.02345572    -0.10097229    -0.00858764
     86      2      H           0.01708122    -0.01540104    -0.01439918
     87      2      H           0.00039004    -0.00513080    -0.04302299
     88      1      O          -0.03168619    -0.05806953    -0.07580419
     89      2      H           0.02454169    -0.00966763     0.02391604
     90      2      H           0.00827224     0.03447552    -0.03208786
     91      1      O           0.02732815     0.03040816    -0.12807616
     92      2      H           0.01283456     0.00729098    -0.01307649
     93      2      H          -0.03426003     0.00153590     0.03282469
     94      1      O           0.00064536     0.05821065     0.07686786
     95      2      H           0.01627257     0.00946471     0.02153863
     96      2      H           0.01720533    -0.06191697     0.00918094
     97      1      O          -0.01312946    -0.08655163    -0.08785458
     98      2      H           0.04017473     0.02404165    -0.02495564
     99      2      H           0.00703780    -0.01796825     0.03790609
    100      1      O          -0.03579363     0.04144247    -0.04356623
    101      2      H           0.05334997    -0.00050217     0.00488442
    102      2      H          -0.00088797    -0.00126683     0.00239350
    103      1      O          -0.05330162    -0.08272776     0.02126174
    104      2      H           0.02141502    -0.00181099    -0.04702498
    105      2      H           0.02807114     0.04597193    -0.02175190
    106      1      O           0.01807446     0.09559691    -0.01546486
    107      2      H          -0.00974515     0.02442143    -0.04928718
    108      2      H           0.00555627    -0.05513693     0.03478074
    109      1      O           0.01933345    -0.00258449    -0.06973122
    110      2      H           0.03005538     0.03502643     0.01816609
    111      2      H          -0.00454994    -0.00366947    -0.04138194
    112      1      O          -0.07594475     0.05248269    -0.06912862
    113      2      H           0.03944587     0.00071334     0.09524127
    114      2      H           0.00761739    -0.02765679     0.01288647
    115      1      O           0.04386448    -0.09223596     0.10375165
    116      2      H          -0.00946644     0.00682127     0.02279767
    117      2      H          -0.02498493     0.02170852    -0.00278766
    118      1      O          -0.01174986     0.02015056     0.10649383
    119      2      H           0.02944176     0.00539918     0.06019351
    120      2      H           0.02892621     0.00662658    -0.02270381
    121      1      O           0.01362397     0.09120201    -0.00921296
    122      2      H           0.01664860    -0.05791379    -0.02141862
    123      2      H          -0.01089809     0.03222575     0.00627806
    124      1      O           0.02470775    -0.02688753    -0.00135546
    125      2      H          -0.02780111    -0.02126228     0.02573178
    126      2      H           0.01133210     0.00595509     0.05357614
    127      1      O           0.06104717     0.08017054    -0.10650913
    128      2      H          -0.03124156     0.00416273    -0.00005489
    129      2      H          -0.01145253    -0.00685428     0.07782146
    130      1      O          -0.02558466     0.10483525    -0.09406097
    131      2      H          -0.03364027    -0.00488518     0.06311656
    132      2      H           0.05084449    -0.02873810    -0.00126271
    133      1      O          -0.03487738     0.06204273     0.13108128
    134      2      H           0.04860797     0.01422989    -0.02612424
    135      2      H          -0.00787491    -0.04263302    -0.01340330
    136      1      O          -0.08721369     0.01240283     0.07972189
    137      2      H           0.00646411     0.02499891    -0.01522287
    138      2      H           0.04881172    -0.05103623    -0.01642316
    139      1      O           0.06728847    -0.01017350     0.09825097
    140      2      H          -0.02885378     0.01319459     0.05804034
    141      2      H          -0.01013253    -0.02256767    -0.04677400
    142      1      O          -0.04187023     0.09762369     0.09442615
    143      2      H           0.01686502    -0.02410826    -0.03228283
    144      2      H           0.01120086    -0.02587548    -0.05572552
    145      1      O           0.00683571    -0.10738528     0.06693981
    146      2      H          -0.00757776    -0.01705716    -0.01966079
    147      2      H           0.03035655     0.05155688     0.06595432
    148      1      O          -0.06559345    -0.02626556    -0.04094276
    149      2      H           0.00868906    -0.03543976     0.00441590
    150      2      H           0.01089630     0.04130993     0.00047702
    151      1      O          -0.06249936     0.07298263     0.11578688
    152      2      H          -0.00523575     0.00796675    -0.08281222
    153      2      H           0.06176842    -0.01931076    -0.02646997
    154      1      O           0.05222793    -0.00043667     0.03609379
    155      2      H          -0.02728969    -0.00122714     0.04738731
    156      2      H           0.00080622    -0.03995733    -0.08193923
    157      1      O           0.00174557    -0.03008204    -0.08019813
    158      2      H           0.01702621     0.00160979     0.03450785
    159      2      H          -0.00427343    -0.00081140     0.05714134
    160      1      O          -0.03162320    -0.01929499     0.09468802
    161      2      H           0.01637529    -0.08467627     0.02830246
    162      2      H           0.02099219     0.04376980    -0.02934880
    163      1      O          -0.01153771     0.07590024     0.04980173
    164      2      H           0.01435921    -0.02852835     0.00411106
    165      2      H           0.00273896    -0.02522467    -0.04058718
    166      1      O          -0.04925456    -0.02580811    -0.14525152
    167      2      H           0.01394591     0.02357976     0.02504758
    168      2      H           0.01559079    -0.01448352     0.02888884
    169      1      O          -0.01118919    -0.07273835     0.10164091
    170      2      H          -0.02095705    -0.00099950    -0.00101145
    171      2      H           0.03117257     0.01899279    -0.05114551
    172      1      O          -0.06072802     0.06178853     0.02631112
    173      2      H           0.00628872    -0.07422541    -0.02345363
    174      2      H           0.08157594     0.02961052     0.02276190
    175      1      O          -0.03360688    -0.01370236     0.07891267
    176      2      H          -0.00197913    -0.02158215     0.00184802
    177      2      H           0.01052216     0.02111024     0.02729611
    178      1      O          -0.05729793     0.00923185    -0.09449527
    179      2      H           0.03011649    -0.02373438    -0.00911474
    180      2      H           0.00596079     0.03423115    -0.02832865
    181      1      O          -0.04758138     0.05633527    -0.09215387
    182      2      H           0.00574210    -0.01873854    -0.02598106
    183      2      H           0.00591687     0.00258420     0.01824393
    184      1      O          -0.01197739     0.05702243    -0.06343647
    185      2      H          -0.02342547    -0.00424596     0.04760091
    186      2      H          -0.00873905     0.00053254    -0.03588920
    187      1      O          -0.02807927    -0.05484009    -0.06764071
    188      2      H          -0.01887353    -0.04456492     0.02350447
    189      2      H           0.00634946     0.01533506     0.00468120
    190      1      O          -0.00994523     0.01542020     0.04133880
    191      2      H          -0.02494683     0.01613171    -0.03991382
    192      2      H           0.01451193     0.02807808     0.04537061
 SUM OF ATOMIC FORCES          -0.09627665    -0.47351976    -0.17348505     0.51340745

 -------------------------------------------------------------------------------
 -                                                                             -
 -                                DBCSR STATISTICS                             -
 -                                                                             -
 -------------------------------------------------------------------------------
 COUNTER                                    TOTAL       BLAS       SMM       ACC
 flops     5 x     5 x   256            923776000       0.0%    100.0%      0.0%
 flops     5 x    13 x   256           1160140800       0.0%    100.0%      0.0%
 flops    13 x     5 x   256           1161305600       0.0%    100.0%      0.0%
 flops    13 x    13 x   256           1626293760       0.0%    100.0%      0.0%
 flops inhomo. stacks                           0       0.0%      0.0%      0.0%
 flops total                         4.871516E+09       0.0%    100.0%      0.0%
 flops max/rank                      4.871516E+09       0.0%    100.0%      0.0%
 matmuls inhomo. stacks                         0       0.0%      0.0%      0.0%
 matmuls total                             160720       0.0%    100.0%      0.0%
 number of processed stacks                  2730       0.0%    100.0%      0.0%
 average stack size                                     0.0      58.9       0.0
 marketing flops                    38.828769E+09
 -------------------------------------------------------------------------------
 # multiplications                             35
 max memory usage/rank              25.807835E+09
 # max total images/rank                        1
 # max 3D layers                                1
 # MPI messages exchanged                       0
 MPI messages size (bytes):
  total size                         0.000000E+00
  min size                           0.000000E+00
  max size                           0.000000E+00
  average size                       0.000000E+00
 MPI breakdown and total messages size (bytes):
             size <=      128                   0                        0
       128 < size <=     8192                   0                        0
      8192 < size <=    32768                   0                        0
     32768 < size <=   131072                   0                        0
    131072 < size <=  4194304                   0                        0
   4194304 < size <= 16777216                   0                        0
  16777216 < size                               0                        0
 -------------------------------------------------------------------------------

 MEMORY| Estimated peak process memory [MiB]                               24615

 -------------------------------------------------------------------------------
 -                                                                             -
 -                           R E F E R E N C E S                               -
 -                                                                             -
 -------------------------------------------------------------------------------
 
 CP2K version 7.1, the CP2K developers group (2019).
 CP2K is freely available from https://www.cp2k.org/ .

 Schuett, Ole; Messmer, Peter; Hutter, Juerg; VandeVondele, Joost. 
 Electronic Structure Calculations on Graphics Processing Units, John
 Wiley & Sons, Ltd, 173-190 (2016). 
 GPU-Accelerated Sparse Matrix-Matrix Multiplication for
 Linear Scaling Density Functional Theory.
 https://dx.doi.org/10.1002/9781118670712.ch8

 Borstnik, U; VandeVondele, J; Weber, V; Hutter, J. 
 PARALLEL COMPUTING, 40 (5-6), 47-58 (2014). 
 Sparse matrix multiplication: The distributed block-compressed sparse
 row library.
 https://dx.doi.org/10.1016/j.parco.2014.03.012

 Hutter, J; Iannuzzi, M; Schiffmann, F; VandeVondele, J. 
 WIREs Comput Mol Sci., 4 (1), 15-25 (2014). 
 CP2K: atomistic simulations of condensed matter systems.
 https://dx.doi.org/10.1002/wcms.1159

 Krack, M. 
 THEORETICAL CHEMISTRY ACCOUNTS, 114 (1-3), 145-152 (2005). 
 Pseudopotentials for H to Kr optimized for gradient-corrected
 exchange-correlation functionals.
 https://dx.doi.org/10.1007/s00214-005-0655-y

 VandeVondele, J; Krack, M; Mohamed, F; Parrinello, M; Chassaing, T;
 Hutter, J. COMPUTER PHYSICS COMMUNICATIONS, 167 (2), 103-128 (2005). 
 QUICKSTEP: Fast and accurate density functional calculations using a
 mixed Gaussian and plane waves approach.
 https://dx.doi.org/10.1016/j.cpc.2004.12.014

 Frigo, M; Johnson, SG. 
 PROCEEDINGS OF THE IEEE, 93 (2), 216-231 (2005). 
 The design and implementation of FFTW3.
 https://dx.doi.org/10.1109/JPROC.2004.840301

 Hartwigsen, C; Goedecker, S; Hutter, J. 
 PHYSICAL REVIEW B, 58 (7), 3641-3662 (1998). 
 Relativistic separable dual-space Gaussian pseudopotentials from H to Rn.
 https://dx.doi.org/10.1103/PhysRevB.58.3641

 Lippert, G; Hutter, J; Parrinello, M. 
 MOLECULAR PHYSICS, 92 (3), 477-487 (1997). 
 A hybrid Gaussian and plane wave density functional scheme.
 https://dx.doi.org/10.1080/002689797170220

 Goedecker, S; Teter, M; Hutter, J. 
 PHYSICAL REVIEW B, 54 (3), 1703-1710 (1996). 
 Separable dual-space Gaussian pseudopotentials.
 https://dx.doi.org/10.1103/PhysRevB.54.1703


 -------------------------------------------------------------------------------
 -                                                                             -
 -                                T I M I N G                                  -
 -                                                                             -
 -------------------------------------------------------------------------------
 SUBROUTINE                       CALLS  ASD         SELF TIME        TOTAL TIME
                                MAXIMUM       AVERAGE  MAXIMUM  AVERAGE  MAXIMUM
 CP2K                                 1  1.0    0.634    0.634  755.026  755.026
 qs_forces                            1  2.0    0.000    0.000  743.735  743.735
 qs_energies                          1  3.0    0.000    0.000  739.443  739.443
 scf_env_do_scf                       1  4.0    0.000    0.000  727.990  727.990
 scf_env_do_scf_inner_loop           34  5.0    0.004    0.004  727.990  727.990
 gspace_mixing                       33  6.0    4.637    4.637  282.323  282.323
 broyden_mixing                      33  7.0  250.255  250.255  250.255  250.255
 qs_scf_new_mos                      34  6.0    0.001    0.001  216.037  216.037
 eigensolver                         34  7.0    0.004    0.004  212.660  212.660
 cp_fm_syevd                         34  8.0  145.405  145.405  145.523  145.523
 pw_transfer                        454  9.9    0.041    0.041  139.629  139.629
 fft_wrap_pw1pw2                    384 10.9    0.004    0.004  136.731  136.731
 rebuild_ks_matrix                   35  6.9    0.000    0.000  132.770  132.770
 qs_ks_build_kohn_sham_matrix        35  7.9    0.008    0.008  132.770  132.770
 qs_ks_update_qs_env                 34  6.0    0.000    0.000  128.651  128.651
 fft_wrap_pw1pw2_70                 174 11.2   10.500   10.500  126.529  126.529
 qs_rho_update_rho                   35  6.0    0.000    0.000  103.845  103.845
 calculate_rho_elec                  35  7.0   39.086   39.086  103.845  103.845
 cp_fm_cholesky_restore             102  8.0   67.000   67.000   67.000   67.000
 fft3d_s                            385 12.8   66.949   66.949   66.969   66.969
 density_rs2pw                       35  8.0    0.003    0.003   64.001   64.001
 pw_scatter_s                       208 13.1   46.745   46.745   46.745   46.745
 pw_poisson_solve                    35  8.9   38.896   38.896   42.058   42.058
 sum_up_and_integrate                35  8.9    2.108    2.108   38.334   38.334
 integrate_v_rspace                  35  9.9    2.439    2.439   36.225   36.225
 potential_pw2rs                     35 10.9    0.300    0.300   33.762   33.762
 qs_vxc_create                       35  8.9    0.001    0.001   18.925   18.925
 xc_vxc_pw_create                    35  9.9    4.919    4.919   18.925   18.925
 -------------------------------------------------------------------------------

 The number of warnings for this run is : 0
 
 -------------------------------------------------------------------------------
  **** **** ******  **  PROGRAM ENDED AT                 2020-05-21 03:21:39.313
 ***** ** ***  *** **   PROGRAM RAN ON                                   gnode39
 **    ****   ******    PROGRAM RAN BY                               mayank.modi
 ***** **    ** ** **   PROGRAM PROCESS ID                                 27581
  **** **  *******  **  PROGRAM STOPPED IN /home/mayank.modi/ab-initio-thermodyn
                                           amics-of-water/mayank/cp2k_energy_cal
                                           culations
