 DBCSR| CPU Multiplication driver                                           XSMM
 DBCSR| Multrec recursion limit                                              512
 DBCSR| Multiplication stack size                                           1000
 DBCSR| Maximum elements for images                                    UNLIMITED
 DBCSR| Multiplicative factor virtual images                                   1
 DBCSR| Use multiplication densification                                       T
 DBCSR| Multiplication size stacks                                             3


  **** **** ******  **  PROGRAM STARTED AT               2020-05-21 11:45:53.190
 ***** ** ***  *** **   PROGRAM STARTED ON                               gnode39
 **    ****   ******    PROGRAM STARTED BY                           mayank.modi
 ***** **    ** ** **   PROGRAM PROCESS ID                                 16607
  **** **  *******  **  PROGRAM STARTED IN /home/mayank.modi/ab-initio-thermodyn
                                           amics-of-water/mayank/cp2k_energy_cal
                                           culations

 CP2K| version string:                                          CP2K version 7.1
 CP2K| source code revision number:                                  git:e635599
 CP2K| cp2kflags: omp libint fftw3 libxc xsmm spglib                            
 CP2K| is freely available from                            https://www.cp2k.org/
 CP2K| Program compiled at                          Mon Dec 23 19:23:12 CET 2019
 CP2K| Program compiled on                                                pc9404
 CP2K| Program compiled for                                Linux-x86-64-gfortran
 CP2K| Data directory path                                        /opt/cp2k/data
 CP2K| Input file name                                              ./input86.in

 GLOBAL| Force Environment number                                              1
 GLOBAL| Basis set file name                                           BASIS_SET
 GLOBAL| Potential file name                                      GTH_POTENTIALS
 GLOBAL| MM Potential file name                                     MM_POTENTIAL
 GLOBAL| Coordinate file name                                      __STD_INPUT__
 GLOBAL| Method name                                                        CP2K
 GLOBAL| Project name                                                   H2O_bulk
 GLOBAL| Preferred FFT library                                             FFTW3
 GLOBAL| Preferred diagonalization lib.                                       SL
 GLOBAL| Run type                                                   ENERGY_FORCE
 GLOBAL| All-to-all communication in single precision                          F
 GLOBAL| FFTs using library dependent lengths                                  F
 GLOBAL| Global print level                                                  LOW
 GLOBAL| MPI I/O enabled                                                       T
 GLOBAL| Total number of message passing processes                             1
 GLOBAL| Number of threads for this process                                   20
 GLOBAL| This output is from process                                           0
 GLOBAL| CPU model name                Intel(R) Xeon(R) CPU E5-2640 v4 @ 2.40GHz
 GLOBAL| CPUID                                                              1002
 GLOBAL| Compiled for CPUID                                                    0

 MEMORY| system memory details [Kb]
 MEMORY|                        rank 0           min           max       average
 MEMORY| MemTotal            131898148     131898148     131898148     131898148
 MEMORY| MemFree              88688936      88688936      88688936      88688936
 MEMORY| Buffers               3187120       3187120       3187120       3187120
 MEMORY| Cached               34125528      34125528      34125528      34125528
 MEMORY| Slab                  3929816       3929816       3929816       3929816
 MEMORY| SReclaimable          3268572       3268572       3268572       3268572
 MEMORY| MemLikelyFree       129270156     129270156     129270156     129270156


 GENERATE|  Preliminary Number of Bonds generated:                             0
 GENERATE|  Achieved consistency in connectivity generation.

 *******************************************************************************
 *******************************************************************************
 **                                                                           **
 **     #####                         ##              ##                      **
 **    ##   ##            ##          ##              ##                      **
 **   ##     ##                       ##            ######                    **
 **   ##     ##  ##   ##  ##   #####  ##  ##   ####   ##    #####    #####    **
 **   ##     ##  ##   ##  ##  ##      ## ##   ##      ##   ##   ##  ##   ##   **
 **   ##  ## ##  ##   ##  ##  ##      ####     ###    ##   ######   ######    **
 **    ##  ###   ##   ##  ##  ##      ## ##      ##   ##   ##       ##        **
 **     #######   #####   ##   #####  ##  ##  ####    ##    #####   ##        **
 **           ##                                                    ##        **
 **                                                                           **
 **                                                ... make the atoms dance   **
 **                                                                           **
 **            Copyright (C) by CP2K developers group (2000 - 2019)           **
 **                                                                           **
 *******************************************************************************


 TOTAL NUMBERS AND MAXIMUM NUMBERS

  Total number of            - Atomic kinds:                                   2
                             - Atoms:                                        192
                             - Shell sets:                                   384
                             - Shells:                                       704
                             - Primitive Cartesian functions:                960
                             - Cartesian basis functions:                   1536
                             - Spherical basis functions:                   1472

  Maximum angular momentum of- Orbital basis functions:                        2
                             - Local part of the GTH pseudopotential:          2
                             - Non-local part of the GTH pseudopotential:      0


 SCF PARAMETERS         Density guess:                                    ATOMIC
                        --------------------------------------------------------
                        max_scf:                                             300
                        max_scf_history:                                       0
                        max_diis:                                              4
                        --------------------------------------------------------
                        eps_scf:                                        1.00E-07
                        eps_scf_history:                                0.00E+00
                        eps_diis:                                       1.00E-01
                        eps_eigval:                                     1.00E-05
                        --------------------------------------------------------
                        level_shift [a.u.]:                                 0.00
                        --------------------------------------------------------
                        Mixing method:                            BROYDEN_MIXING
                                                charge density mixing in g-space
                        --------------------------------------------------------
                        No outer SCF

 Number of electrons:                                                        512
 Number of occupied orbitals:                                                256
 Number of molecular orbitals:                                               256

 Number of orbital functions:                                               1472
 Number of independent orbital functions:                                   1472

 Extrapolation method: initial_guess


 SCF WAVEFUNCTION OPTIMIZATION

  Step     Update method      Time    Convergence         Total energy    Change
  ------------------------------------------------------------------------------
     1 NoMix/Diag. 0.40E+00   11.2     0.98177320     -1087.3635334223 -1.09E+03
     2 Broy./Diag. 0.40E+00   16.4     0.29546894     -1012.7774047513  7.46E+01
     3 Broy./Diag. 0.40E+00   17.9     0.02461293     -1094.4083070621 -8.16E+01
     4 Broy./Diag. 0.40E+00   18.2     0.02822977     -1094.2711102434  1.37E-01
     5 Broy./Diag. 0.40E+00   19.1     0.00305593     -1095.1970161327 -9.26E-01
     6 Broy./Diag. 0.40E+00   19.6     0.00488137     -1095.2243442198 -2.73E-02
     7 Broy./Diag. 0.40E+00   21.0     0.00274389     -1095.3864296649 -1.62E-01
     8 Broy./Diag. 0.40E+00   22.4     0.00336848     -1095.5111796696 -1.25E-01
     9 Broy./Diag. 0.40E+00   23.4     0.00303685     -1095.5824152712 -7.12E-02
    10 Broy./Diag. 0.40E+00   25.9     0.00128613     -1095.6098899775 -2.75E-02
    11 Broy./Diag. 0.40E+00   26.1     0.00109571     -1095.5783846923  3.15E-02
    12 Broy./Diag. 0.40E+00   26.3     0.00060143     -1095.5883458559 -9.96E-03
    13 Broy./Diag. 0.40E+00   25.8     0.00054693     -1095.6094105794 -2.11E-02
    14 Broy./Diag. 0.40E+00   25.0     0.00021110     -1095.6118866639 -2.48E-03
    15 Broy./Diag. 0.40E+00   24.1     0.00025032     -1095.6051451902  6.74E-03
    16 Broy./Diag. 0.40E+00   24.7     0.00014338     -1095.6056423599 -4.97E-04
    17 Broy./Diag. 0.40E+00   25.0     0.00006044     -1095.6062471424 -6.05E-04
    18 Broy./Diag. 0.40E+00   25.0     0.00004814     -1095.6062995237 -5.24E-05
    19 Broy./Diag. 0.40E+00   25.5     0.00001668     -1095.6064225880 -1.23E-04
    20 Broy./Diag. 0.40E+00   25.1     0.00001940     -1095.6059324759  4.90E-04
    21 Broy./Diag. 0.40E+00   24.7     0.00001576     -1095.6061213296 -1.89E-04
    22 Broy./Diag. 0.40E+00   24.7     0.00000517     -1095.6062356935 -1.14E-04
    23 Broy./Diag. 0.40E+00   25.3     0.00000546     -1095.6062115768  2.41E-05
    24 Broy./Diag. 0.40E+00   24.2     0.00000236     -1095.6061485273  6.30E-05
    25 Broy./Diag. 0.40E+00   24.6     0.00000348     -1095.6061131716  3.54E-05
    26 Broy./Diag. 0.40E+00   24.8     0.00000161     -1095.6061654581 -5.23E-05
    27 Broy./Diag. 0.40E+00   24.0     0.00000106     -1095.6061862828 -2.08E-05
    28 Broy./Diag. 0.40E+00   24.3     0.00000073     -1095.6061841092  2.17E-06
    29 Broy./Diag. 0.40E+00   24.4     0.00000033     -1095.6061738736  1.02E-05
    30 Broy./Diag. 0.40E+00   25.3     0.00000025     -1095.6061712649  2.61E-06
    31 Broy./Diag. 0.40E+00   24.5     0.00000017     -1095.6061724173 -1.15E-06
    32 Broy./Diag. 0.40E+00   24.5     0.00000006     -1095.6061728011 -3.84E-07

  *** SCF run converged in    32 steps ***


  Electronic density on regular grids:       -511.9998378247        0.0001621753
  Core density on regular grids:              511.9999944175       -0.0000055825
  Total charge density on r-space grids:        0.0001565929
  Total charge density g-space grids:           0.0001565929

  Overlap energy of the core charge distribution:               0.00000532913073
  Self energy of the core charge distribution:              -2838.21791979120962
  Core Hamiltonian energy:                                    822.12029425626804
  Hartree energy:                                            1185.42732592111929
  Exchange-correlation energy:                               -264.93587851645134

  Total energy:                                             -1095.60617280114298

 ENERGY| Total FORCE_EVAL ( QS ) energy (a.u.):            -1095.606172610962631


 ATOMIC FORCES in [a.u.]

 # Atom   Kind   Element          X              Y              Z
      1      1      O          -0.02745770    -0.01717095    -0.09634555
      2      2      H           0.01880412     0.01475496     0.03190152
      3      2      H          -0.03006052     0.00820702    -0.03710830
      4      1      O          -0.00285830     0.06814817     0.06128423
      5      2      H           0.01978179     0.01831375    -0.01496543
      6      2      H          -0.01003336    -0.04933594    -0.03384670
      7      1      O           0.04693640     0.06527857     0.14192454
      8      2      H          -0.02437738     0.00674490     0.02864593
      9      2      H          -0.00201590     0.00411214    -0.04321907
     10      1      O          -0.06905809     0.12889388    -0.01501863
     11      2      H          -0.01640181    -0.00451012     0.03544673
     12      2      H           0.03937541    -0.02464342    -0.06313450
     13      1      O           0.00056983    -0.06561059     0.01710286
     14      2      H           0.02545662     0.03827906     0.05706983
     15      2      H          -0.05878030     0.05401104     0.01595051
     16      1      O          -0.01493350    -0.01770023    -0.09360570
     17      2      H           0.00021276    -0.04263045     0.02281949
     18      2      H           0.04051885     0.03410334    -0.00862695
     19      1      O          -0.06811480    -0.06136212     0.07042204
     20      2      H          -0.02486162     0.02514835    -0.00353424
     21      2      H           0.06056615     0.01940278    -0.04139846
     22      1      O          -0.04607787    -0.06839615    -0.11919192
     23      2      H           0.01597531    -0.00377295    -0.03465858
     24      2      H           0.02279540     0.02486830     0.01601374
     25      1      O          -0.03091417     0.13695790    -0.04332124
     26      2      H           0.02248508    -0.00515860     0.00206711
     27      2      H          -0.01832652    -0.05188843    -0.01937331
     28      1      O          -0.03560544    -0.01642078     0.06524502
     29      2      H           0.01554823     0.01162006    -0.04141249
     30      2      H           0.05021583    -0.05567139     0.01681114
     31      1      O          -0.03746203     0.11688331     0.12600719
     32      2      H           0.02117345    -0.00144956    -0.02818253
     33      2      H           0.02270912    -0.05280790     0.01706598
     34      1      O           0.05763793    -0.06178741    -0.00992937
     35      2      H           0.00252330    -0.01100213    -0.03386419
     36      2      H          -0.09225288     0.01528077    -0.00709477
     37      1      O           0.00865806     0.12666781    -0.08929409
     38      2      H           0.01388613    -0.02304215     0.05771781
     39      2      H          -0.05027935    -0.00345459     0.02123371
     40      1      O          -0.06403451    -0.04458600     0.08396101
     41      2      H           0.00821925    -0.01383274    -0.01984553
     42      2      H           0.02620500     0.06053313    -0.00606556
     43      1      O           0.02167099     0.08609569    -0.12077428
     44      2      H           0.00459817    -0.02601116    -0.00206412
     45      2      H          -0.00221927     0.01615128     0.02540722
     46      1      O           0.04743534     0.07517458     0.08056025
     47      2      H          -0.01015216    -0.04290058    -0.03146382
     48      2      H          -0.01477144     0.04422595    -0.05606743
     49      1      O          -0.04822418     0.12178033     0.06017272
     50      2      H           0.00671874    -0.00910878     0.00542170
     51      2      H           0.01942336    -0.02666130     0.00609030
     52      1      O           0.00080195     0.08440033     0.02349100
     53      2      H          -0.01227168     0.01981302     0.03496594
     54      2      H          -0.00106322     0.00738437    -0.02152574
     55      1      O           0.00853521    -0.02217910     0.06405527
     56      2      H          -0.01283016     0.04980409     0.01184017
     57      2      H          -0.00675082     0.02112938    -0.00876085
     58      1      O           0.01845371    -0.07424956    -0.08343566
     59      2      H          -0.01434306    -0.01231307     0.00993198
     60      2      H           0.00500089     0.01205915     0.01070870
     61      1      O          -0.00878657    -0.06370946     0.08467847
     62      2      H          -0.01582077    -0.02661575    -0.01048900
     63      2      H           0.02982718    -0.01295530     0.04747156
     64      1      O          -0.01669627     0.05209504     0.06723182
     65      2      H           0.02343674     0.00279019     0.00037537
     66      2      H          -0.04193832     0.02572279     0.00511230
     67      1      O          -0.04621905    -0.08675393    -0.02627410
     68      2      H          -0.00636288     0.00713710    -0.00152973
     69      2      H           0.04153975    -0.03738942     0.00011639
     70      1      O          -0.01951097    -0.08128662     0.13442217
     71      2      H          -0.01440486     0.04262321     0.01603739
     72      2      H           0.02767896     0.01174705     0.01579097
     73      1      O          -0.00868847     0.02685630     0.08480910
     74      2      H          -0.00018513    -0.03058418    -0.03101914
     75      2      H           0.00252557    -0.02010944     0.00317618
     76      1      O          -0.03207468     0.06432113    -0.09545933
     77      2      H           0.01059481    -0.01556243     0.01069835
     78      2      H          -0.01168004    -0.00158200    -0.03771828
     79      1      O           0.00007679    -0.01257409     0.10686504
     80      2      H          -0.01386588     0.05794112     0.00855678
     81      2      H           0.00873923    -0.03503303    -0.02094689
     82      1      O           0.03895530     0.05786111    -0.00627390
     83      2      H          -0.05043564     0.03960234    -0.00210644
     84      2      H           0.04198068    -0.04131814     0.04127699
     85      1      O           0.02452984     0.00590455     0.01849412
     86      2      H           0.01089240    -0.02435058     0.02801408
     87      2      H          -0.02171826     0.04852646    -0.01618480
     88      1      O          -0.04768236     0.08471174    -0.00081539
     89      2      H           0.00429359    -0.04844613    -0.05785516
     90      2      H           0.01891516    -0.01328934    -0.04783199
     91      1      O           0.05499390    -0.08883947     0.09689111
     92      2      H          -0.00040837     0.00347909     0.00223307
     93      2      H          -0.04432414     0.01103758    -0.03733111
     94      1      O          -0.08363118    -0.07335550     0.06539737
     95      2      H           0.05375333    -0.01392135    -0.06609403
     96      2      H          -0.00246768    -0.01074491     0.00255896
     97      1      O          -0.04752580     0.04586768     0.05271122
     98      2      H           0.00213348     0.03697966    -0.02745154
     99      2      H           0.00369860    -0.03310969     0.03139278
    100      1      O           0.05000460     0.01103312    -0.01944566
    101      2      H          -0.04131880     0.05038511     0.00020722
    102      2      H           0.01977095     0.01785548    -0.01259752
    103      1      O          -0.01322217    -0.07681326     0.16580804
    104      2      H           0.01212348     0.06694402    -0.00979230
    105      2      H          -0.02736524    -0.05552719    -0.07528859
    106      1      O          -0.00291742     0.04991560     0.01330560
    107      2      H           0.02899508     0.03411159    -0.10896824
    108      2      H           0.01228629    -0.03638881     0.02281896
    109      1      O          -0.07716336     0.00963934    -0.04446154
    110      2      H          -0.00017903    -0.02936527    -0.03034651
    111      2      H           0.04935030    -0.01586148     0.00128755
    112      1      O          -0.06164031    -0.04089575    -0.04475599
    113      2      H          -0.00617139    -0.01314260     0.03589458
    114      2      H           0.03409783     0.00134973     0.02880493
    115      1      O          -0.01910504    -0.02947697     0.09840945
    116      2      H           0.00493855    -0.02522695     0.02553568
    117      2      H          -0.00584561     0.01112287     0.04475906
    118      1      O          -0.02280857    -0.04304990    -0.11445484
    119      2      H           0.06571989     0.02632411     0.01865776
    120      2      H          -0.00930041     0.00737005     0.01702631
    121      1      O           0.01165636    -0.04699602    -0.05262910
    122      2      H          -0.00767986    -0.01430384     0.03647689
    123      2      H          -0.00573932    -0.00126021     0.04673525
    124      1      O          -0.03170571    -0.06043117     0.08414958
    125      2      H           0.00296821    -0.02187991    -0.01706175
    126      2      H           0.01750037    -0.00794894    -0.01884866
    127      1      O          -0.03248037    -0.01979756    -0.02181813
    128      2      H           0.02375978     0.01063720     0.00636790
    129      2      H           0.03142348    -0.08766249     0.03922988
    130      1      O           0.03127904    -0.02058762    -0.08703262
    131      2      H          -0.01072981     0.01252719     0.03347875
    132      2      H          -0.01037559    -0.02679505    -0.02589355
    133      1      O          -0.03466245     0.04989086    -0.08462098
    134      2      H           0.05462892     0.01006302    -0.04311396
    135      2      H          -0.01142610    -0.02882310     0.01897271
    136      1      O          -0.06684512    -0.12286528     0.11891236
    137      2      H           0.03107362     0.08036836     0.02985262
    138      2      H           0.01122266    -0.03210456     0.01331105
    139      1      O           0.00557593    -0.05501547     0.11899361
    140      2      H           0.00165810    -0.00387790    -0.03813477
    141      2      H          -0.00541321    -0.00952708    -0.01628792
    142      1      O           0.03796409     0.02281864    -0.15557166
    143      2      H          -0.02899016     0.00198210     0.03880420
    144      2      H           0.00608783    -0.01271624     0.02480270
    145      1      O           0.01133362    -0.00716987     0.13609264
    146      2      H          -0.00020469    -0.00615595    -0.07701295
    147      2      H           0.00333514     0.04861038     0.04496506
    148      1      O           0.01256303    -0.04814263     0.07255210
    149      2      H           0.02153291     0.04972894     0.01601497
    150      2      H          -0.01295717    -0.04451368    -0.05131511
    151      1      O          -0.01833127    -0.01200206     0.14536329
    152      2      H          -0.05515796     0.00962015    -0.05303659
    153      2      H           0.02172890     0.00038330    -0.06670046
    154      1      O          -0.00947344     0.14203306    -0.03913924
    155      2      H           0.00850302    -0.03945423     0.03809355
    156      2      H           0.00201051    -0.06779777    -0.09061429
    157      1      O           0.03753173     0.09472240    -0.05923437
    158      2      H           0.01087771    -0.02109343     0.00755239
    159      2      H          -0.03090271    -0.01636014     0.07230219
    160      1      O           0.03116331     0.08349646    -0.02535931
    161      2      H          -0.01465950    -0.03423823    -0.02981409
    162      2      H          -0.01857575     0.02404160     0.00880546
    163      1      O           0.04068464     0.03658526     0.01446057
    164      2      H          -0.01646609     0.03963609    -0.01664351
    165      2      H          -0.01759613     0.01785984     0.02560320
    166      1      O          -0.03173197     0.06871807     0.07238111
    167      2      H           0.00974455     0.00789364    -0.01241253
    168      2      H          -0.01702480    -0.01085823    -0.02748345
    169      1      O           0.00506875    -0.00930673    -0.08766975
    170      2      H          -0.03687129     0.01039557     0.02269957
    171      2      H          -0.00302819     0.05812578    -0.03490471
    172      1      O          -0.00738036    -0.10184756     0.05005950
    173      2      H           0.03459745     0.02507068    -0.02144715
    174      2      H           0.01020835     0.01765095    -0.02880457
    175      1      O          -0.02272971    -0.00759855     0.04675856
    176      2      H          -0.01598042    -0.00973052     0.01884232
    177      2      H           0.02098844     0.03058803    -0.05732129
    178      1      O           0.02270489     0.04789362    -0.08935179
    179      2      H          -0.02705474    -0.04085021     0.02265248
    180      2      H           0.00132927    -0.00535791     0.04492881
    181      1      O          -0.01014855     0.07070893    -0.13434453
    182      2      H          -0.03766827    -0.02586191     0.01656669
    183      2      H           0.04877768    -0.04133962     0.04627227
    184      1      O          -0.01919890     0.03059692    -0.11208806
    185      2      H          -0.02295083    -0.00574754     0.00945444
    186      2      H          -0.00806538    -0.02358075    -0.04027418
    187      1      O          -0.06123241    -0.01351206     0.11218251
    188      2      H          -0.00487877    -0.05032290    -0.01110553
    189      2      H           0.05206749     0.03534649    -0.01521018
    190      1      O           0.04725851    -0.10115143     0.10336112
    191      2      H          -0.03205165     0.01449746    -0.00508084
    192      2      H           0.00472597     0.03012676    -0.04586473
 SUM OF ATOMIC FORCES          -0.39208641     0.24657682     0.41034737     0.61880275

 -------------------------------------------------------------------------------
 -                                                                             -
 -                                DBCSR STATISTICS                             -
 -                                                                             -
 -------------------------------------------------------------------------------
 COUNTER                                    TOTAL       BLAS       SMM       ACC
 flops     5 x     5 x   256            856204800       0.0%    100.0%      0.0%
 flops     5 x    13 x   256           1088355840       0.0%    100.0%      0.0%
 flops    13 x     5 x   256           1091650560       0.0%    100.0%      0.0%
 flops    13 x    13 x   256           1501953024       0.0%    100.0%      0.0%
 flops inhomo. stacks                           0       0.0%      0.0%      0.0%
 flops total                         4.538164E+09       0.0%    100.0%      0.0%
 flops max/rank                      4.538164E+09       0.0%    100.0%      0.0%
 matmuls inhomo. stacks                         0       0.0%      0.0%      0.0%
 matmuls total                             149754       0.0%    100.0%      0.0%
 number of processed stacks                  2574       0.0%    100.0%      0.0%
 average stack size                                     0.0      58.2       0.0
 marketing flops                    36.609982E+09
 -------------------------------------------------------------------------------
 # multiplications                             33
 max memory usage/rank              25.807815E+09
 # max total images/rank                        1
 # max 3D layers                                1
 # MPI messages exchanged                       0
 MPI messages size (bytes):
  total size                         0.000000E+00
  min size                           0.000000E+00
  max size                           0.000000E+00
  average size                       0.000000E+00
 MPI breakdown and total messages size (bytes):
             size <=      128                   0                        0
       128 < size <=     8192                   0                        0
      8192 < size <=    32768                   0                        0
     32768 < size <=   131072                   0                        0
    131072 < size <=  4194304                   0                        0
   4194304 < size <= 16777216                   0                        0
  16777216 < size                               0                        0
 -------------------------------------------------------------------------------

 MEMORY| Estimated peak process memory [MiB]                               24614

 -------------------------------------------------------------------------------
 -                                                                             -
 -                           R E F E R E N C E S                               -
 -                                                                             -
 -------------------------------------------------------------------------------
 
 CP2K version 7.1, the CP2K developers group (2019).
 CP2K is freely available from https://www.cp2k.org/ .

 Schuett, Ole; Messmer, Peter; Hutter, Juerg; VandeVondele, Joost. 
 Electronic Structure Calculations on Graphics Processing Units, John
 Wiley & Sons, Ltd, 173-190 (2016). 
 GPU-Accelerated Sparse Matrix-Matrix Multiplication for
 Linear Scaling Density Functional Theory.
 https://dx.doi.org/10.1002/9781118670712.ch8

 Borstnik, U; VandeVondele, J; Weber, V; Hutter, J. 
 PARALLEL COMPUTING, 40 (5-6), 47-58 (2014). 
 Sparse matrix multiplication: The distributed block-compressed sparse
 row library.
 https://dx.doi.org/10.1016/j.parco.2014.03.012

 Hutter, J; Iannuzzi, M; Schiffmann, F; VandeVondele, J. 
 WIREs Comput Mol Sci., 4 (1), 15-25 (2014). 
 CP2K: atomistic simulations of condensed matter systems.
 https://dx.doi.org/10.1002/wcms.1159

 Krack, M. 
 THEORETICAL CHEMISTRY ACCOUNTS, 114 (1-3), 145-152 (2005). 
 Pseudopotentials for H to Kr optimized for gradient-corrected
 exchange-correlation functionals.
 https://dx.doi.org/10.1007/s00214-005-0655-y

 VandeVondele, J; Krack, M; Mohamed, F; Parrinello, M; Chassaing, T;
 Hutter, J. COMPUTER PHYSICS COMMUNICATIONS, 167 (2), 103-128 (2005). 
 QUICKSTEP: Fast and accurate density functional calculations using a
 mixed Gaussian and plane waves approach.
 https://dx.doi.org/10.1016/j.cpc.2004.12.014

 Frigo, M; Johnson, SG. 
 PROCEEDINGS OF THE IEEE, 93 (2), 216-231 (2005). 
 The design and implementation of FFTW3.
 https://dx.doi.org/10.1109/JPROC.2004.840301

 Hartwigsen, C; Goedecker, S; Hutter, J. 
 PHYSICAL REVIEW B, 58 (7), 3641-3662 (1998). 
 Relativistic separable dual-space Gaussian pseudopotentials from H to Rn.
 https://dx.doi.org/10.1103/PhysRevB.58.3641

 Lippert, G; Hutter, J; Parrinello, M. 
 MOLECULAR PHYSICS, 92 (3), 477-487 (1997). 
 A hybrid Gaussian and plane wave density functional scheme.
 https://dx.doi.org/10.1080/002689797170220

 Goedecker, S; Teter, M; Hutter, J. 
 PHYSICAL REVIEW B, 54 (3), 1703-1710 (1996). 
 Separable dual-space Gaussian pseudopotentials.
 https://dx.doi.org/10.1103/PhysRevB.54.1703


 -------------------------------------------------------------------------------
 -                                                                             -
 -                                T I M I N G                                  -
 -                                                                             -
 -------------------------------------------------------------------------------
 SUBROUTINE                       CALLS  ASD         SELF TIME        TOTAL TIME
                                MAXIMUM       AVERAGE  MAXIMUM  AVERAGE  MAXIMUM
 CP2K                                 1  1.0    0.657    0.657  773.808  773.808
 qs_forces                            1  2.0    0.000    0.000  762.743  762.743
 qs_energies                          1  3.0    0.000    0.000  758.085  758.085
 scf_env_do_scf                       1  4.0    0.000    0.000  746.464  746.464
 scf_env_do_scf_inner_loop           32  5.0    0.005    0.005  746.463  746.463
 gspace_mixing                       31  6.0    4.313    4.313  289.300  289.300
 broyden_mixing                      31  7.0  257.844  257.844  257.845  257.845
 qs_scf_new_mos                      32  6.0    0.001    0.001  210.500  210.500
 eigensolver                         32  7.0    0.003    0.003  198.800  198.800
 pw_transfer                        428  9.9    0.043    0.043  147.161  147.161
 fft_wrap_pw1pw2                    362 10.9    0.005    0.005  143.077  143.077
 rebuild_ks_matrix                   33  6.9    0.000    0.000  140.908  140.908
 qs_ks_build_kohn_sham_matrix        33  7.9    0.011    0.011  140.908  140.908
 qs_ks_update_qs_env                 32  6.0    0.000    0.000  136.441  136.441
 cp_fm_syevd                         32  8.0  135.157  135.157  135.297  135.297
 fft_wrap_pw1pw2_70                 164 11.2   10.467   10.467  128.806  128.806
 qs_rho_update_rho                   33  6.0    0.000    0.000  113.057  113.057
 calculate_rho_elec                  33  7.0   42.016   42.016  113.057  113.057
 fft3d_s                            363 12.8   72.014   72.014   72.038   72.038
 density_rs2pw                       33  8.0    0.003    0.003   69.876   69.876
 cp_fm_cholesky_restore              96  8.0   63.391   63.391   63.391   63.391
 sum_up_and_integrate                33  8.9    2.159    2.159   45.769   45.769
 pw_scatter_s                       196 13.1   44.443   44.443   44.443   44.443
 integrate_v_rspace                  33  9.9    2.701    2.701   43.609   43.609
 pw_poisson_solve                    33  8.9   35.808   35.808   40.148   40.148
 potential_pw2rs                     33 10.9    0.274    0.274   37.614   37.614
 qs_vxc_create                       33  8.9    0.001    0.001   20.919   20.919
 xc_vxc_pw_create                    33  9.9    4.605    4.605   20.918   20.918
 xc_rho_set_and_dset_create          33 10.9    0.001    0.001   16.313   16.313
 -------------------------------------------------------------------------------

 The number of warnings for this run is : 0
 
 -------------------------------------------------------------------------------
  **** **** ******  **  PROGRAM ENDED AT                 2020-05-21 11:58:47.109
 ***** ** ***  *** **   PROGRAM RAN ON                                   gnode39
 **    ****   ******    PROGRAM RAN BY                               mayank.modi
 ***** **    ** ** **   PROGRAM PROCESS ID                                 16607
  **** **  *******  **  PROGRAM STOPPED IN /home/mayank.modi/ab-initio-thermodyn
                                           amics-of-water/mayank/cp2k_energy_cal
                                           culations
