 DBCSR| CPU Multiplication driver                                           XSMM
 DBCSR| Multrec recursion limit                                              512
 DBCSR| Multiplication stack size                                           1000
 DBCSR| Maximum elements for images                                    UNLIMITED
 DBCSR| Multiplicative factor virtual images                                   1
 DBCSR| Use multiplication densification                                       T
 DBCSR| Multiplication size stacks                                             3


  **** **** ******  **  PROGRAM STARTED AT               2020-05-22 09:32:29.390
 ***** ** ***  *** **   PROGRAM STARTED ON                               gnode39
 **    ****   ******    PROGRAM STARTED BY                           mayank.modi
 ***** **    ** ** **   PROGRAM PROCESS ID                                  7957
  **** **  *******  **  PROGRAM STARTED IN /home/mayank.modi/ab-initio-thermodyn
                                           amics-of-water/mayank/cp2k_energy_cal
                                           culations

 CP2K| version string:                                          CP2K version 7.1
 CP2K| source code revision number:                                  git:e635599
 CP2K| cp2kflags: omp libint fftw3 libxc xsmm spglib                            
 CP2K| is freely available from                            https://www.cp2k.org/
 CP2K| Program compiled at                          Mon Dec 23 19:23:12 CET 2019
 CP2K| Program compiled on                                                pc9404
 CP2K| Program compiled for                                Linux-x86-64-gfortran
 CP2K| Data directory path                                        /opt/cp2k/data
 CP2K| Input file name                                             ./input182.in

 GLOBAL| Force Environment number                                              1
 GLOBAL| Basis set file name                                           BASIS_SET
 GLOBAL| Potential file name                                      GTH_POTENTIALS
 GLOBAL| MM Potential file name                                     MM_POTENTIAL
 GLOBAL| Coordinate file name                                      __STD_INPUT__
 GLOBAL| Method name                                                        CP2K
 GLOBAL| Project name                                                   H2O_bulk
 GLOBAL| Preferred FFT library                                             FFTW3
 GLOBAL| Preferred diagonalization lib.                                       SL
 GLOBAL| Run type                                                   ENERGY_FORCE
 GLOBAL| All-to-all communication in single precision                          F
 GLOBAL| FFTs using library dependent lengths                                  F
 GLOBAL| Global print level                                                  LOW
 GLOBAL| MPI I/O enabled                                                       T
 GLOBAL| Total number of message passing processes                             1
 GLOBAL| Number of threads for this process                                   20
 GLOBAL| This output is from process                                           0
 GLOBAL| CPU model name                Intel(R) Xeon(R) CPU E5-2640 v4 @ 2.40GHz
 GLOBAL| CPUID                                                              1002
 GLOBAL| Compiled for CPUID                                                    0

 MEMORY| system memory details [Kb]
 MEMORY|                        rank 0           min           max       average
 MEMORY| MemTotal            131898148     131898148     131898148     131898148
 MEMORY| MemFree              56463232      56463232      56463232      56463232
 MEMORY| Buffers               3188980       3188980       3188980       3188980
 MEMORY| Cached               35659312      35659312      35659312      35659312
 MEMORY| Slab                  4014784       4014784       4014784       4014784
 MEMORY| SReclaimable          3299724       3299724       3299724       3299724
 MEMORY| MemLikelyFree        98611248      98611248      98611248      98611248


 GENERATE|  Preliminary Number of Bonds generated:                             0
 GENERATE|  Achieved consistency in connectivity generation.

 *******************************************************************************
 *******************************************************************************
 **                                                                           **
 **     #####                         ##              ##                      **
 **    ##   ##            ##          ##              ##                      **
 **   ##     ##                       ##            ######                    **
 **   ##     ##  ##   ##  ##   #####  ##  ##   ####   ##    #####    #####    **
 **   ##     ##  ##   ##  ##  ##      ## ##   ##      ##   ##   ##  ##   ##   **
 **   ##  ## ##  ##   ##  ##  ##      ####     ###    ##   ######   ######    **
 **    ##  ###   ##   ##  ##  ##      ## ##      ##   ##   ##       ##        **
 **     #######   #####   ##   #####  ##  ##  ####    ##    #####   ##        **
 **           ##                                                    ##        **
 **                                                                           **
 **                                                ... make the atoms dance   **
 **                                                                           **
 **            Copyright (C) by CP2K developers group (2000 - 2019)           **
 **                                                                           **
 *******************************************************************************


 TOTAL NUMBERS AND MAXIMUM NUMBERS

  Total number of            - Atomic kinds:                                   2
                             - Atoms:                                        192
                             - Shell sets:                                   384
                             - Shells:                                       704
                             - Primitive Cartesian functions:                960
                             - Cartesian basis functions:                   1536
                             - Spherical basis functions:                   1472

  Maximum angular momentum of- Orbital basis functions:                        2
                             - Local part of the GTH pseudopotential:          2
                             - Non-local part of the GTH pseudopotential:      0


 SCF PARAMETERS         Density guess:                                    ATOMIC
                        --------------------------------------------------------
                        max_scf:                                             300
                        max_scf_history:                                       0
                        max_diis:                                              4
                        --------------------------------------------------------
                        eps_scf:                                        1.00E-07
                        eps_scf_history:                                0.00E+00
                        eps_diis:                                       1.00E-01
                        eps_eigval:                                     1.00E-05
                        --------------------------------------------------------
                        level_shift [a.u.]:                                 0.00
                        --------------------------------------------------------
                        Mixing method:                            BROYDEN_MIXING
                                                charge density mixing in g-space
                        --------------------------------------------------------
                        No outer SCF

 Number of electrons:                                                        512
 Number of occupied orbitals:                                                256
 Number of molecular orbitals:                                               256

 Number of orbital functions:                                               1472
 Number of independent orbital functions:                                   1472

 Extrapolation method: initial_guess


 SCF WAVEFUNCTION OPTIMIZATION

  Step     Update method      Time    Convergence         Total energy    Change
  ------------------------------------------------------------------------------
     1 NoMix/Diag. 0.40E+00   10.7     1.01404943     -1087.3073289947 -1.09E+03
     2 Broy./Diag. 0.40E+00   16.7     0.29339794     -1012.9500513190  7.44E+01
     3 Broy./Diag. 0.40E+00   18.2     0.02331028     -1094.3455513128 -8.14E+01
     4 Broy./Diag. 0.40E+00   18.9     0.02754437     -1094.1762419271  1.69E-01
     5 Broy./Diag. 0.40E+00   19.5     0.00257698     -1095.1140876764 -9.38E-01
     6 Broy./Diag. 0.40E+00   20.2     0.00375494     -1095.1597608213 -4.57E-02
     7 Broy./Diag. 0.40E+00   21.0     0.00210018     -1095.3212976919 -1.62E-01
     8 Broy./Diag. 0.40E+00   23.2     0.00261638     -1095.4524251197 -1.31E-01
     9 Broy./Diag. 0.40E+00   24.0     0.00314124     -1095.5182745927 -6.58E-02
    10 Broy./Diag. 0.40E+00   25.9     0.00144551     -1095.5521088011 -3.38E-02
    11 Broy./Diag. 0.40E+00   25.6     0.00126263     -1095.5160965406  3.60E-02
    12 Broy./Diag. 0.40E+00   24.9     0.00056123     -1095.5287562749 -1.27E-02
    13 Broy./Diag. 0.40E+00   26.1     0.00049766     -1095.5501801505 -2.14E-02
    14 Broy./Diag. 0.40E+00   24.9     0.00019758     -1095.5469931519  3.19E-03
    15 Broy./Diag. 0.40E+00   26.0     0.00018295     -1095.5399879853  7.01E-03
    16 Broy./Diag. 0.40E+00   25.4     0.00014422     -1095.5404262707 -4.38E-04
    17 Broy./Diag. 0.40E+00   25.7     0.00007765     -1095.5406963075 -2.70E-04
    18 Broy./Diag. 0.40E+00   26.8     0.00006433     -1095.5403036748  3.93E-04
    19 Broy./Diag. 0.40E+00   26.3     0.00002004     -1095.5401005603  2.03E-04
    20 Broy./Diag. 0.40E+00   25.4     0.00001237     -1095.5396258045  4.75E-04
    21 Broy./Diag. 0.40E+00   25.1     0.00001202     -1095.5397674099 -1.42E-04
    22 Broy./Diag. 0.40E+00   26.4     0.00000501     -1095.5397825151 -1.51E-05
    23 Broy./Diag. 0.40E+00   25.0     0.00000560     -1095.5396813592  1.01E-04
    24 Broy./Diag. 0.40E+00   25.0     0.00000240     -1095.5396224122  5.89E-05
    25 Broy./Diag. 0.40E+00   25.4     0.00000224     -1095.5396048953  1.75E-05
    26 Broy./Diag. 0.40E+00   25.4     0.00000168     -1095.5396529385 -4.80E-05
    27 Broy./Diag. 0.40E+00   26.1     0.00000071     -1095.5396575330 -4.59E-06
    28 Broy./Diag. 0.40E+00   25.4     0.00000063     -1095.5396364668  2.11E-05
    29 Broy./Diag. 0.40E+00   26.2     0.00000033     -1095.5396285030  7.96E-06
    30 Broy./Diag. 0.40E+00   24.9     0.00000017     -1095.5396326718 -4.17E-06
    31 Broy./Diag. 0.40E+00   25.8     0.00000016     -1095.5396380744 -5.40E-06
    32 Broy./Diag. 0.40E+00   25.2     0.00000008     -1095.5396375607  5.14E-07

  *** SCF run converged in    32 steps ***


  Electronic density on regular grids:       -511.9989622692        0.0010377308
  Core density on regular grids:              512.0005411863        0.0005411863
  Total charge density on r-space grids:        0.0015789172
  Total charge density g-space grids:           0.0015789172

  Overlap energy of the core charge distribution:               0.00000571339748
  Self energy of the core charge distribution:              -2838.21791979120962
  Core Hamiltonian energy:                                    821.92861100984339
  Hartree energy:                                            1185.65813612023180
  Exchange-correlation energy:                               -264.90847061299746

  Total energy:                                             -1095.53963756073449

 ENERGY| Total FORCE_EVAL ( QS ) energy (a.u.):            -1095.539636731687096


 ATOMIC FORCES in [a.u.]

 # Atom   Kind   Element          X              Y              Z
      1      1      O          -0.03951284    -0.09689597    -0.00862272
      2      2      H           0.00487192     0.00556941     0.00353159
      3      2      H           0.03079544     0.04436681    -0.05523632
      4      1      O           0.02546862     0.02588568     0.01407762
      5      2      H          -0.05529867     0.00607576     0.01557948
      6      2      H           0.00753502    -0.01493458     0.02147368
      7      1      O          -0.00962151     0.11716399     0.11689258
      8      2      H          -0.00780227    -0.04020873    -0.01907411
      9      2      H          -0.00508683     0.00169233    -0.06149114
     10      1      O           0.03843323    -0.04385412     0.07384469
     11      2      H          -0.00691738    -0.02514053    -0.00911742
     12      2      H          -0.02238904    -0.03571821    -0.02710119
     13      1      O          -0.01085722    -0.11749383    -0.03216941
     14      2      H          -0.01486453    -0.01215438    -0.08297770
     15      2      H           0.04830725     0.04565979     0.02548625
     16      1      O          -0.05041662    -0.01478656    -0.08795664
     17      2      H          -0.03360722     0.04738960     0.02026408
     18      2      H           0.08162535     0.00947054    -0.04846836
     19      1      O          -0.00903968    -0.03688193     0.07910256
     20      2      H           0.00297275     0.04761001    -0.01300440
     21      2      H          -0.03232052    -0.02979875    -0.02474159
     22      1      O          -0.03933422    -0.04956308    -0.08904168
     23      2      H           0.08261565    -0.01596525    -0.02309028
     24      2      H           0.00969954    -0.06003818    -0.02361358
     25      1      O          -0.03408736    -0.00150228     0.10936957
     26      2      H           0.01597681     0.00590940     0.01275851
     27      2      H          -0.02132442     0.07604686    -0.07704845
     28      1      O          -0.03258240    -0.02260957    -0.05851951
     29      2      H           0.05396712     0.05755702    -0.02378682
     30      2      H           0.01193773     0.01402132    -0.00809253
     31      1      O          -0.00457548     0.03666606    -0.06073040
     32      2      H          -0.00025795    -0.04140909     0.00224760
     33      2      H           0.00665011     0.02906483     0.00599065
     34      1      O          -0.01045558    -0.06867177     0.04691425
     35      2      H           0.01831399    -0.00865945    -0.00888758
     36      2      H           0.00458199     0.03457560     0.07505765
     37      1      O           0.02381859    -0.02055404     0.09388998
     38      2      H          -0.01413918    -0.02200768     0.00663719
     39      2      H          -0.02708003     0.01308178     0.04621100
     40      1      O           0.00415886    -0.07618214     0.02157865
     41      2      H           0.00598236    -0.00978480    -0.05214680
     42      2      H           0.01319207     0.06324719     0.04271759
     43      1      O          -0.05291258     0.03616673     0.03985186
     44      2      H           0.01446511     0.04145425    -0.03543917
     45      2      H          -0.00238665    -0.01862342    -0.01330688
     46      1      O          -0.05444122     0.04135902     0.05477017
     47      2      H           0.03574908     0.04979715     0.02026289
     48      2      H          -0.01799150    -0.00790452     0.02825699
     49      1      O          -0.03421670     0.11099604    -0.10688386
     50      2      H           0.02715722    -0.05561824     0.02066631
     51      2      H           0.00115594    -0.03687788    -0.00694947
     52      1      O           0.00564279     0.00226125     0.03578876
     53      2      H           0.02833513    -0.04412600    -0.04414512
     54      2      H          -0.01666381     0.05267547    -0.03619379
     55      1      O           0.02251277     0.09991499    -0.00087181
     56      2      H          -0.01359453    -0.00357255     0.05614094
     57      2      H          -0.00849359    -0.03822599     0.01161046
     58      1      O           0.00092439     0.08826886     0.03827421
     59      2      H           0.01791631    -0.01847077    -0.00283625
     60      2      H          -0.02120770     0.00804962     0.00856106
     61      1      O          -0.03966972     0.06786747     0.08336386
     62      2      H          -0.00144845    -0.00285501    -0.04212777
     63      2      H          -0.00005811     0.01754454    -0.01238112
     64      1      O           0.00849595    -0.05923799     0.07038304
     65      2      H           0.03276197    -0.04237113    -0.04618298
     66      2      H          -0.01083978     0.02545550    -0.03446499
     67      1      O          -0.00397848     0.06410589    -0.00104082
     68      2      H           0.01118638     0.01732156    -0.04528693
     69      2      H           0.02188716    -0.00748681     0.03342862
     70      1      O           0.02267482    -0.02526511    -0.11532286
     71      2      H          -0.03316211    -0.02548561     0.02657608
     72      2      H           0.01298878     0.06200451     0.02607751
     73      1      O           0.04203364    -0.04752165     0.02330755
     74      2      H          -0.01286426    -0.03590440     0.04137174
     75      2      H           0.00713024     0.01574350    -0.00257763
     76      1      O           0.06072927    -0.02673804     0.04708274
     77      2      H          -0.00611945     0.02426635    -0.00835075
     78      2      H          -0.07370282    -0.07680515    -0.00748399
     79      1      O          -0.01292661     0.05030702     0.10851060
     80      2      H          -0.01452801     0.01834000    -0.04946108
     81      2      H          -0.00114784    -0.08187575     0.01238328
     82      1      O          -0.06249805     0.01364026     0.11483017
     83      2      H           0.01382440    -0.00413910    -0.02676637
     84      2      H           0.02489236    -0.01513394     0.02186020
     85      1      O           0.02219642    -0.01658979     0.05427330
     86      2      H          -0.00531012     0.01896524     0.02410299
     87      2      H          -0.00440152     0.04904512    -0.00501066
     88      1      O           0.00058264    -0.00773907     0.09102045
     89      2      H           0.00530680    -0.02152899    -0.03237086
     90      2      H           0.01167952     0.04047723    -0.03066340
     91      1      O           0.00957621     0.02221400    -0.02720762
     92      2      H           0.00806204     0.01813502     0.01686497
     93      2      H          -0.03929353     0.00524988    -0.03128278
     94      1      O          -0.02442338     0.08926181    -0.09054404
     95      2      H           0.01461474     0.00450402    -0.04337109
     96      2      H          -0.00823181    -0.01446342     0.06510396
     97      1      O           0.05266520    -0.10607798     0.06726264
     98      2      H          -0.09188320     0.04468342    -0.02246476
     99      2      H          -0.00751777     0.00851222     0.01879350
    100      1      O          -0.06463876     0.06077261     0.01765909
    101      2      H           0.00104404    -0.01626280    -0.01341874
    102      2      H           0.04323832    -0.00435456    -0.08118741
    103      1      O          -0.01240304     0.12964922    -0.06426639
    104      2      H           0.03976376     0.01413373    -0.06272362
    105      2      H          -0.01949469    -0.07098333     0.00600085
    106      1      O           0.04931694    -0.04513440     0.04229428
    107      2      H           0.01284986    -0.02764832    -0.03099771
    108      2      H          -0.01144792    -0.03343585    -0.00068337
    109      1      O           0.01063528    -0.00380519     0.08879548
    110      2      H          -0.01091598    -0.02823182    -0.03985082
    111      2      H           0.00662635     0.01051169     0.03708967
    112      1      O          -0.06279960     0.06353314     0.04491525
    113      2      H           0.03369696    -0.04426632     0.02899011
    114      2      H           0.01873588    -0.01261340    -0.03073592
    115      1      O           0.06854472    -0.03618464     0.00877532
    116      2      H          -0.01032194    -0.06895456    -0.06066104
    117      2      H          -0.02396315     0.04023690    -0.02406201
    118      1      O          -0.06401901    -0.08584775     0.06586930
    119      2      H           0.02604342    -0.00647591    -0.03631579
    120      2      H           0.03546982    -0.01339247     0.04931738
    121      1      O           0.02410734     0.00951030     0.06039116
    122      2      H          -0.02534695    -0.01880963     0.00238806
    123      2      H           0.02255583     0.01383178     0.05101843
    124      1      O           0.05357956    -0.09215349     0.02089230
    125      2      H          -0.06208017     0.02713746     0.03027162
    126      2      H          -0.00623054     0.01783044     0.01809221
    127      1      O           0.01761518     0.13221574    -0.07858181
    128      2      H          -0.04060632    -0.02325364     0.01622238
    129      2      H           0.04137444    -0.05919977     0.00599536
    130      1      O           0.00949475     0.04731165     0.08615631
    131      2      H          -0.03679870    -0.02143169     0.06801615
    132      2      H           0.02197459    -0.00293309    -0.03520384
    133      1      O           0.01624479     0.08442550    -0.06050244
    134      2      H           0.00405570     0.00026713     0.01892884
    135      2      H           0.01847429     0.00107066     0.01507156
    136      1      O          -0.08045567     0.05224816    -0.08347370
    137      2      H           0.01930533     0.00895604    -0.04608191
    138      2      H           0.02295087    -0.03057485    -0.05391590
    139      1      O           0.03167711    -0.06349866    -0.01416756
    140      2      H           0.00371456     0.01719385    -0.00257896
    141      2      H          -0.03574768     0.06515350    -0.03951200
    142      1      O          -0.05698715     0.00333373    -0.07934193
    143      2      H           0.00790178    -0.00524721    -0.01802422
    144      2      H           0.02643473    -0.03446208    -0.00346942
    145      1      O           0.03646148    -0.01903141     0.11027858
    146      2      H          -0.00758079    -0.00728789     0.01304168
    147      2      H          -0.00772241     0.03087723     0.01357483
    148      1      O          -0.08225205    -0.07642173     0.16519129
    149      2      H           0.08159129     0.05309905    -0.04530785
    150      2      H          -0.00875849    -0.02611099     0.02465365
    151      1      O           0.03588338     0.11714838     0.06654747
    152      2      H          -0.04123720     0.01452563     0.04224405
    153      2      H           0.00647072    -0.01606778    -0.01205052
    154      1      O           0.01886316     0.06109833     0.05968548
    155      2      H          -0.01005397     0.02764635     0.05088167
    156      2      H          -0.01911292    -0.02728738    -0.01620464
    157      1      O          -0.01668426    -0.07808467     0.01339575
    158      2      H           0.00800964     0.00791072    -0.01032657
    159      2      H          -0.01404575     0.02099024    -0.01745752
    160      1      O           0.02465403     0.05065067     0.08700707
    161      2      H           0.00311918    -0.03842561     0.00298420
    162      2      H           0.01076938    -0.02824722    -0.02002850
    163      1      O           0.06988448     0.10383171     0.23052368
    164      2      H          -0.08697933    -0.05859067    -0.14080898
    165      2      H          -0.00113001    -0.00460515    -0.00202082
    166      1      O          -0.00389426    -0.07782570    -0.02187363
    167      2      H           0.04975135     0.00318167    -0.03219329
    168      2      H          -0.01339540    -0.02167029     0.02388944
    169      1      O           0.02493966     0.05618800     0.12073639
    170      2      H          -0.02192107     0.02143953     0.01506580
    171      2      H          -0.00332571     0.02936491    -0.01192588
    172      1      O           0.01819476    -0.00880910    -0.08962486
    173      2      H           0.00714017     0.02858815    -0.05035933
    174      2      H          -0.00486008    -0.01368026     0.02197470
    175      1      O          -0.02867093    -0.07588807     0.03258776
    176      2      H           0.02181014     0.03738855     0.04054328
    177      2      H          -0.01793639    -0.02813362    -0.09929592
    178      1      O          -0.02307387     0.06665046    -0.01548553
    179      2      H           0.00453213     0.03823416    -0.00577668
    180      2      H           0.03695300    -0.00798470    -0.00688683
    181      1      O           0.00290082    -0.01654639     0.12178585
    182      2      H          -0.03510326     0.06594337     0.00161093
    183      2      H           0.03055907    -0.03331190     0.01081174
    184      1      O           0.07036154    -0.07315128    -0.03574557
    185      2      H          -0.06225170    -0.02621582    -0.00384829
    186      2      H           0.01414165     0.04434139    -0.08214052
    187      1      O          -0.02649352     0.05856353    -0.08433044
    188      2      H          -0.00655670     0.00961975    -0.02885564
    189      2      H          -0.00643748    -0.08010234     0.07719716
    190      1      O           0.07802316     0.09193358     0.02525955
    191      2      H           0.00301628     0.01512634    -0.03463524
    192      2      H          -0.03154741    -0.01888771     0.06236702
 SUM OF ATOMIC FORCES           0.01074192     0.32633055     0.66854909     0.74401942

 -------------------------------------------------------------------------------
 -                                                                             -
 -                                DBCSR STATISTICS                             -
 -                                                                             -
 -------------------------------------------------------------------------------
 COUNTER                                    TOTAL       BLAS       SMM       ACC
 flops     5 x     5 x   256            722304000       0.0%    100.0%      0.0%
 flops    13 x     5 x   256            909342720       0.0%    100.0%      0.0%
 flops     5 x    13 x   256            911539200       0.0%    100.0%      0.0%
 flops    13 x    13 x   256           1287796224       0.0%    100.0%      0.0%
 flops inhomo. stacks                           0       0.0%      0.0%      0.0%
 flops total                         3.830982E+09       0.0%    100.0%      0.0%
 flops max/rank                      3.830982E+09       0.0%    100.0%      0.0%
 matmuls inhomo. stacks                         0       0.0%      0.0%      0.0%
 matmuls total                             126027       0.0%    100.0%      0.0%
 number of processed stacks                  2574       0.0%    100.0%      0.0%
 average stack size                                     0.0      49.0       0.0
 marketing flops                    36.609982E+09
 -------------------------------------------------------------------------------
 # multiplications                             33
 max memory usage/rank              25.807151E+09
 # max total images/rank                        1
 # max 3D layers                                1
 # MPI messages exchanged                       0
 MPI messages size (bytes):
  total size                         0.000000E+00
  min size                           0.000000E+00
  max size                           0.000000E+00
  average size                       0.000000E+00
 MPI breakdown and total messages size (bytes):
             size <=      128                   0                        0
       128 < size <=     8192                   0                        0
      8192 < size <=    32768                   0                        0
     32768 < size <=   131072                   0                        0
    131072 < size <=  4194304                   0                        0
   4194304 < size <= 16777216                   0                        0
  16777216 < size                               0                        0
 -------------------------------------------------------------------------------

 MEMORY| Estimated peak process memory [MiB]                               24614

 -------------------------------------------------------------------------------
 -                                                                             -
 -                           R E F E R E N C E S                               -
 -                                                                             -
 -------------------------------------------------------------------------------
 
 CP2K version 7.1, the CP2K developers group (2019).
 CP2K is freely available from https://www.cp2k.org/ .

 Schuett, Ole; Messmer, Peter; Hutter, Juerg; VandeVondele, Joost. 
 Electronic Structure Calculations on Graphics Processing Units, John
 Wiley & Sons, Ltd, 173-190 (2016). 
 GPU-Accelerated Sparse Matrix-Matrix Multiplication for
 Linear Scaling Density Functional Theory.
 https://dx.doi.org/10.1002/9781118670712.ch8

 Borstnik, U; VandeVondele, J; Weber, V; Hutter, J. 
 PARALLEL COMPUTING, 40 (5-6), 47-58 (2014). 
 Sparse matrix multiplication: The distributed block-compressed sparse
 row library.
 https://dx.doi.org/10.1016/j.parco.2014.03.012

 Hutter, J; Iannuzzi, M; Schiffmann, F; VandeVondele, J. 
 WIREs Comput Mol Sci., 4 (1), 15-25 (2014). 
 CP2K: atomistic simulations of condensed matter systems.
 https://dx.doi.org/10.1002/wcms.1159

 Krack, M. 
 THEORETICAL CHEMISTRY ACCOUNTS, 114 (1-3), 145-152 (2005). 
 Pseudopotentials for H to Kr optimized for gradient-corrected
 exchange-correlation functionals.
 https://dx.doi.org/10.1007/s00214-005-0655-y

 VandeVondele, J; Krack, M; Mohamed, F; Parrinello, M; Chassaing, T;
 Hutter, J. COMPUTER PHYSICS COMMUNICATIONS, 167 (2), 103-128 (2005). 
 QUICKSTEP: Fast and accurate density functional calculations using a
 mixed Gaussian and plane waves approach.
 https://dx.doi.org/10.1016/j.cpc.2004.12.014

 Frigo, M; Johnson, SG. 
 PROCEEDINGS OF THE IEEE, 93 (2), 216-231 (2005). 
 The design and implementation of FFTW3.
 https://dx.doi.org/10.1109/JPROC.2004.840301

 Hartwigsen, C; Goedecker, S; Hutter, J. 
 PHYSICAL REVIEW B, 58 (7), 3641-3662 (1998). 
 Relativistic separable dual-space Gaussian pseudopotentials from H to Rn.
 https://dx.doi.org/10.1103/PhysRevB.58.3641

 Lippert, G; Hutter, J; Parrinello, M. 
 MOLECULAR PHYSICS, 92 (3), 477-487 (1997). 
 A hybrid Gaussian and plane wave density functional scheme.
 https://dx.doi.org/10.1080/002689797170220

 Goedecker, S; Teter, M; Hutter, J. 
 PHYSICAL REVIEW B, 54 (3), 1703-1710 (1996). 
 Separable dual-space Gaussian pseudopotentials.
 https://dx.doi.org/10.1103/PhysRevB.54.1703


 -------------------------------------------------------------------------------
 -                                                                             -
 -                                T I M I N G                                  -
 -                                                                             -
 -------------------------------------------------------------------------------
 SUBROUTINE                       CALLS  ASD         SELF TIME        TOTAL TIME
                                MAXIMUM       AVERAGE  MAXIMUM  AVERAGE  MAXIMUM
 CP2K                                 1  1.0    0.792    0.792  793.238  793.238
 qs_forces                            1  2.0    0.000    0.000  781.846  781.846
 qs_energies                          1  3.0    0.000    0.000  777.196  777.196
 scf_env_do_scf                       1  4.0    0.000    0.000  765.293  765.293
 scf_env_do_scf_inner_loop           32  5.0    0.006    0.006  765.293  765.293
 gspace_mixing                       31  6.0    4.532    4.532  293.280  293.280
 broyden_mixing                      31  7.0  260.054  260.054  260.055  260.055
 qs_scf_new_mos                      32  6.0    0.001    0.001  206.532  206.532
 eigensolver                         32  7.0    0.004    0.004  200.055  200.055
 pw_transfer                        428  9.9    0.042    0.042  161.883  161.883
 fft_wrap_pw1pw2                    362 10.9    0.005    0.005  157.282  157.282
 rebuild_ks_matrix                   33  6.9    0.000    0.000  150.642  150.642
 qs_ks_build_kohn_sham_matrix        33  7.9    0.011    0.011  150.642  150.642
 qs_ks_update_qs_env                 32  6.0    0.000    0.000  146.167  146.167
 fft_wrap_pw1pw2_70                 164 11.2   12.330   12.330  142.262  142.262
 cp_fm_syevd                         32  8.0  136.058  136.058  136.218  136.218
 qs_rho_update_rho                   33  6.0    0.000    0.000  122.341  122.341
 calculate_rho_elec                  33  7.0   43.964   43.964  122.341  122.341
 fft3d_s                            363 12.8   79.056   79.056   79.064   79.064
 density_rs2pw                       33  8.0    0.004    0.004   77.199   77.199
 cp_fm_cholesky_restore              96  8.0   63.719   63.719   63.719   63.719
 sum_up_and_integrate                33  8.9    2.303    2.303   48.617   48.617
 pw_scatter_s                       196 13.1   46.605   46.605   46.605   46.605
 integrate_v_rspace                  33  9.9    2.732    2.732   46.313   46.313
 pw_poisson_solve                    33  8.9   38.553   38.553   43.418   43.418
 potential_pw2rs                     33 10.9    0.303    0.303   41.839   41.839
 qs_vxc_create                       33  8.9    0.001    0.001   21.705   21.705
 xc_vxc_pw_create                    33  9.9    4.723    4.723   21.704   21.704
 pw_gather_s                        166 12.6   17.455   17.455   17.455   17.455
 xc_rho_set_and_dset_create          33 10.9    0.002    0.002   16.981   16.981
 pw_copy                            264 11.3   16.091   16.091   16.091   16.091
 -------------------------------------------------------------------------------

 The number of warnings for this run is : 0
 
 -------------------------------------------------------------------------------
  **** **** ******  **  PROGRAM ENDED AT                 2020-05-22 09:45:42.741
 ***** ** ***  *** **   PROGRAM RAN ON                                   gnode39
 **    ****   ******    PROGRAM RAN BY                               mayank.modi
 ***** **    ** ** **   PROGRAM PROCESS ID                                  7957
  **** **  *******  **  PROGRAM STOPPED IN /home/mayank.modi/ab-initio-thermodyn
                                           amics-of-water/mayank/cp2k_energy_cal
                                           culations
