 DBCSR| CPU Multiplication driver                                           XSMM
 DBCSR| Multrec recursion limit                                              512
 DBCSR| Multiplication stack size                                           1000
 DBCSR| Maximum elements for images                                    UNLIMITED
 DBCSR| Multiplicative factor virtual images                                   1
 DBCSR| Use multiplication densification                                       T
 DBCSR| Multiplication size stacks                                             3


  **** **** ******  **  PROGRAM STARTED AT               2020-05-22 11:19:44.739
 ***** ** ***  *** **   PROGRAM STARTED ON                               gnode39
 **    ****   ******    PROGRAM STARTED BY                           mayank.modi
 ***** **    ** ** **   PROGRAM PROCESS ID                                 40285
  **** **  *******  **  PROGRAM STARTED IN /home/mayank.modi/ab-initio-thermodyn
                                           amics-of-water/mayank/cp2k_energy_cal
                                           culations

 CP2K| version string:                                          CP2K version 7.1
 CP2K| source code revision number:                                  git:e635599
 CP2K| cp2kflags: omp libint fftw3 libxc xsmm spglib                            
 CP2K| is freely available from                            https://www.cp2k.org/
 CP2K| Program compiled at                          Mon Dec 23 19:23:12 CET 2019
 CP2K| Program compiled on                                                pc9404
 CP2K| Program compiled for                                Linux-x86-64-gfortran
 CP2K| Data directory path                                        /opt/cp2k/data
 CP2K| Input file name                                             ./input190.in

 GLOBAL| Force Environment number                                              1
 GLOBAL| Basis set file name                                           BASIS_SET
 GLOBAL| Potential file name                                      GTH_POTENTIALS
 GLOBAL| MM Potential file name                                     MM_POTENTIAL
 GLOBAL| Coordinate file name                                      __STD_INPUT__
 GLOBAL| Method name                                                        CP2K
 GLOBAL| Project name                                                   H2O_bulk
 GLOBAL| Preferred FFT library                                             FFTW3
 GLOBAL| Preferred diagonalization lib.                                       SL
 GLOBAL| Run type                                                   ENERGY_FORCE
 GLOBAL| All-to-all communication in single precision                          F
 GLOBAL| FFTs using library dependent lengths                                  F
 GLOBAL| Global print level                                                  LOW
 GLOBAL| MPI I/O enabled                                                       T
 GLOBAL| Total number of message passing processes                             1
 GLOBAL| Number of threads for this process                                   20
 GLOBAL| This output is from process                                           0
 GLOBAL| CPU model name                Intel(R) Xeon(R) CPU E5-2640 v4 @ 2.40GHz
 GLOBAL| CPUID                                                              1002
 GLOBAL| Compiled for CPUID                                                    0

 MEMORY| system memory details [Kb]
 MEMORY|                        rank 0           min           max       average
 MEMORY| MemTotal            131898148     131898148     131898148     131898148
 MEMORY| MemFree              63672804      63672804      63672804      63672804
 MEMORY| Buffers               3189004       3189004       3189004       3189004
 MEMORY| Cached               35659896      35659896      35659896      35659896
 MEMORY| Slab                  4014112       4014112       4014112       4014112
 MEMORY| SReclaimable          3299332       3299332       3299332       3299332
 MEMORY| MemLikelyFree       105821036     105821036     105821036     105821036


 GENERATE|  Preliminary Number of Bonds generated:                             0
 GENERATE|  Achieved consistency in connectivity generation.

 *******************************************************************************
 *******************************************************************************
 **                                                                           **
 **     #####                         ##              ##                      **
 **    ##   ##            ##          ##              ##                      **
 **   ##     ##                       ##            ######                    **
 **   ##     ##  ##   ##  ##   #####  ##  ##   ####   ##    #####    #####    **
 **   ##     ##  ##   ##  ##  ##      ## ##   ##      ##   ##   ##  ##   ##   **
 **   ##  ## ##  ##   ##  ##  ##      ####     ###    ##   ######   ######    **
 **    ##  ###   ##   ##  ##  ##      ## ##      ##   ##   ##       ##        **
 **     #######   #####   ##   #####  ##  ##  ####    ##    #####   ##        **
 **           ##                                                    ##        **
 **                                                                           **
 **                                                ... make the atoms dance   **
 **                                                                           **
 **            Copyright (C) by CP2K developers group (2000 - 2019)           **
 **                                                                           **
 *******************************************************************************


 TOTAL NUMBERS AND MAXIMUM NUMBERS

  Total number of            - Atomic kinds:                                   2
                             - Atoms:                                        192
                             - Shell sets:                                   384
                             - Shells:                                       704
                             - Primitive Cartesian functions:                960
                             - Cartesian basis functions:                   1536
                             - Spherical basis functions:                   1472

  Maximum angular momentum of- Orbital basis functions:                        2
                             - Local part of the GTH pseudopotential:          2
                             - Non-local part of the GTH pseudopotential:      0


 SCF PARAMETERS         Density guess:                                    ATOMIC
                        --------------------------------------------------------
                        max_scf:                                             300
                        max_scf_history:                                       0
                        max_diis:                                              4
                        --------------------------------------------------------
                        eps_scf:                                        1.00E-07
                        eps_scf_history:                                0.00E+00
                        eps_diis:                                       1.00E-01
                        eps_eigval:                                     1.00E-05
                        --------------------------------------------------------
                        level_shift [a.u.]:                                 0.00
                        --------------------------------------------------------
                        Mixing method:                            BROYDEN_MIXING
                                                charge density mixing in g-space
                        --------------------------------------------------------
                        No outer SCF

 Number of electrons:                                                        512
 Number of occupied orbitals:                                                256
 Number of molecular orbitals:                                               256

 Number of orbital functions:                                               1472
 Number of independent orbital functions:                                   1472

 Extrapolation method: initial_guess


 SCF WAVEFUNCTION OPTIMIZATION

  Step     Update method      Time    Convergence         Total energy    Change
  ------------------------------------------------------------------------------
     1 NoMix/Diag. 0.40E+00   11.2     0.99893094     -1087.2175918800 -1.09E+03
     2 Broy./Diag. 0.40E+00   17.6     0.28896439     -1012.5186945665  7.47E+01
     3 Broy./Diag. 0.40E+00   18.5     0.02728259     -1094.5528473345 -8.20E+01
     4 Broy./Diag. 0.40E+00   18.7     0.02829028     -1094.2466386845  3.06E-01
     5 Broy./Diag. 0.40E+00   20.3     0.00260627     -1095.1726461539 -9.26E-01
     6 Broy./Diag. 0.40E+00   22.0     0.00378042     -1095.2232810637 -5.06E-02
     7 Broy./Diag. 0.40E+00   23.5     0.00200743     -1095.3785665483 -1.55E-01
     8 Broy./Diag. 0.40E+00   25.6     0.00273613     -1095.5034023977 -1.25E-01
     9 Broy./Diag. 0.40E+00   26.0     0.00312433     -1095.5645289953 -6.11E-02
    10 Broy./Diag. 0.40E+00   29.2     0.00143947     -1095.5998420832 -3.53E-02
    11 Broy./Diag. 0.40E+00   28.3     0.00125281     -1095.5681376307  3.17E-02
    12 Broy./Diag. 0.40E+00   27.9     0.00067352     -1095.5782443412 -1.01E-02
    13 Broy./Diag. 0.40E+00   29.0     0.00069616     -1095.5963354400 -1.81E-02
    14 Broy./Diag. 0.40E+00   29.0     0.00023319     -1095.5945134230  1.82E-03
    15 Broy./Diag. 0.40E+00   29.0     0.00022827     -1095.5882071088  6.31E-03
    16 Broy./Diag. 0.40E+00   29.2     0.00011944     -1095.5880370421  1.70E-04
    17 Broy./Diag. 0.40E+00   29.4     0.00005535     -1095.5884417222 -4.05E-04
    18 Broy./Diag. 0.40E+00   28.3     0.00004087     -1095.5879898443  4.52E-04
    19 Broy./Diag. 0.40E+00   30.0     0.00002035     -1095.5873363632  6.53E-04
    20 Broy./Diag. 0.40E+00   28.1     0.00001343     -1095.5870438678  2.92E-04
    21 Broy./Diag. 0.40E+00   28.9     0.00000900     -1095.5873198228 -2.76E-04
    22 Broy./Diag. 0.40E+00   28.4     0.00000433     -1095.5875035882 -1.84E-04
    23 Broy./Diag. 0.40E+00   28.7     0.00000463     -1095.5874620768  4.15E-05
    24 Broy./Diag. 0.40E+00   27.5     0.00000224     -1095.5873941965  6.79E-05
    25 Broy./Diag. 0.40E+00   28.7     0.00000214     -1095.5873722834  2.19E-05
    26 Broy./Diag. 0.40E+00   28.2     0.00000147     -1095.5873696592  2.62E-06
    27 Broy./Diag. 0.40E+00   28.1     0.00000075     -1095.5873694629  1.96E-07
    28 Broy./Diag. 0.40E+00   27.9     0.00000072     -1095.5873599280  9.53E-06
    29 Broy./Diag. 0.40E+00   28.4     0.00000032     -1095.5873613353 -1.41E-06
    30 Broy./Diag. 0.40E+00   29.3     0.00000022     -1095.5873635584 -2.22E-06
    31 Broy./Diag. 0.40E+00   28.0     0.00000024     -1095.5873658360 -2.28E-06
    32 Broy./Diag. 0.40E+00   27.8     0.00000010     -1095.5873667401 -9.04E-07
    33 Broy./Diag. 0.40E+00   28.0     0.00000008     -1095.5873662957  4.44E-07

  *** SCF run converged in    33 steps ***


  Electronic density on regular grids:       -511.9996361905        0.0003638095
  Core density on regular grids:              511.9995339305       -0.0004660695
  Total charge density on r-space grids:       -0.0001022600
  Total charge density g-space grids:          -0.0001022600

  Overlap energy of the core charge distribution:               0.00000554743340
  Self energy of the core charge distribution:              -2838.21791979120962
  Core Hamiltonian energy:                                    821.93686629084038
  Hartree energy:                                            1185.56603974002246
  Exchange-correlation energy:                               -264.87235808282492

  Total energy:                                             -1095.58736629573832

 ENERGY| Total FORCE_EVAL ( QS ) energy (a.u.):            -1095.587366776626823


 ATOMIC FORCES in [a.u.]

 # Atom   Kind   Element          X              Y              Z
      1      1      O           0.02260381    -0.12209984     0.10795822
      2      2      H          -0.00452440    -0.01307611    -0.00646007
      3      2      H           0.03458380     0.05469611    -0.03497721
      4      1      O           0.01380674     0.02022826     0.07424101
      5      2      H          -0.03307639     0.02566620    -0.03554190
      6      2      H           0.02739806    -0.04570828    -0.08099945
      7      1      O          -0.00252438     0.12494552     0.04226927
      8      2      H          -0.03466155    -0.05903865     0.05262461
      9      2      H           0.00641220     0.01199902    -0.06726869
     10      1      O          -0.01672035     0.08191080     0.14162051
     11      2      H           0.01434047    -0.04127222    -0.02597382
     12      2      H          -0.03183543    -0.03658226    -0.03586821
     13      1      O          -0.02514878     0.03168653     0.05599662
     14      2      H          -0.00071690     0.01122063    -0.02108753
     15      2      H           0.00831499    -0.01661418     0.03853330
     16      1      O           0.01143457     0.02492159    -0.11429795
     17      2      H          -0.01625240    -0.00608265    -0.01301235
     18      2      H          -0.00000245    -0.03155535     0.01135445
     19      1      O           0.01310960    -0.10222789    -0.06997533
     20      2      H           0.00506224     0.01785925    -0.00017783
     21      2      H          -0.00612107    -0.00711719     0.01290691
     22      1      O           0.00251493     0.07894555    -0.10855805
     23      2      H           0.02068765    -0.01966567     0.00363811
     24      2      H          -0.01107526    -0.01887648     0.04879093
     25      1      O          -0.05072563    -0.05380122     0.01177847
     26      2      H          -0.00000269     0.01196517     0.10090548
     27      2      H           0.03019691     0.01143908    -0.05580574
     28      1      O          -0.02872517    -0.04990042     0.06090334
     29      2      H           0.03926177     0.05341787     0.06702959
     30      2      H          -0.00487396    -0.00745442     0.02397412
     31      1      O          -0.04101181    -0.08162358     0.12290834
     32      2      H           0.07768619     0.05877814    -0.06581502
     33      2      H          -0.00950476    -0.03073025     0.03598616
     34      1      O          -0.03293436    -0.06386774     0.08371576
     35      2      H          -0.00339820     0.05567983     0.02543723
     36      2      H          -0.00685217     0.00711227     0.05116087
     37      1      O          -0.00498529     0.08565960    -0.10948829
     38      2      H           0.01688123    -0.02884473    -0.03932438
     39      2      H          -0.01675968     0.03056876     0.05865270
     40      1      O           0.02900073     0.03400775    -0.04514761
     41      2      H          -0.01235806     0.00476888    -0.02389203
     42      2      H          -0.00644903     0.01084285    -0.01978468
     43      1      O          -0.02090724    -0.04606929    -0.03213002
     44      2      H           0.01162478    -0.00543358    -0.02453306
     45      2      H           0.01953327    -0.03091264     0.03672390
     46      1      O           0.01998885    -0.05985445     0.03573230
     47      2      H           0.00568859    -0.02393784     0.02773258
     48      2      H           0.00075114    -0.00719199     0.02441279
     49      1      O          -0.04540482     0.06214980    -0.09849050
     50      2      H           0.03802552    -0.01216921    -0.00475484
     51      2      H          -0.00902904     0.01480219     0.03736899
     52      1      O           0.00471105    -0.06955387     0.12124308
     53      2      H           0.01960282     0.03995522     0.01652974
     54      2      H          -0.00264319     0.01012901     0.04030461
     55      1      O          -0.01705042    -0.02044763     0.09952587
     56      2      H          -0.00289175    -0.02953354     0.01435279
     57      2      H           0.02616922    -0.02671770    -0.06550114
     58      1      O           0.00892599    -0.07076151    -0.06033935
     59      2      H           0.02404860    -0.01154044     0.02767579
     60      2      H           0.00633686    -0.01229564    -0.01243974
     61      1      O          -0.03836914    -0.02022376    -0.14604996
     62      2      H          -0.00096152     0.01560159    -0.00547325
     63      2      H           0.05941293     0.01367683    -0.02568806
     64      1      O           0.00129858    -0.02788814     0.11397953
     65      2      H           0.03332505     0.01790702    -0.01873231
     66      2      H          -0.03908130    -0.01534349    -0.00281742
     67      1      O          -0.04272345     0.01016951    -0.05294122
     68      2      H           0.02671087     0.00303260    -0.07208152
     69      2      H           0.00761567    -0.01638375     0.02944992
     70      1      O           0.01324054    -0.07788299    -0.10679140
     71      2      H          -0.02831044    -0.02111039    -0.01402683
     72      2      H           0.01214894     0.01327473    -0.03014306
     73      1      O           0.01648067     0.01644305    -0.04263819
     74      2      H          -0.00829846     0.01380933     0.03020104
     75      2      H          -0.00891744    -0.02812964    -0.04636857
     76      1      O           0.06260343    -0.04931876     0.01476240
     77      2      H          -0.02036482     0.01997820    -0.01898124
     78      2      H          -0.04138359    -0.04947405    -0.02356047
     79      1      O          -0.02342969    -0.00771547    -0.06176804
     80      2      H          -0.00371897     0.02241682    -0.00408065
     81      2      H           0.01144738    -0.00088166     0.00437477
     82      1      O          -0.02291712     0.09403439    -0.03687135
     83      2      H          -0.01689629     0.00792368     0.02442277
     84      2      H           0.05502226     0.00378176    -0.01099555
     85      1      O          -0.01238307    -0.07074994    -0.08777119
     86      2      H           0.00610984     0.03699911     0.01680247
     87      2      H           0.00250565     0.03856237    -0.00289073
     88      1      O           0.05614878     0.03238100     0.09262461
     89      2      H          -0.01715803    -0.04677396    -0.04528844
     90      2      H          -0.01057293     0.04982569    -0.02024791
     91      1      O           0.01298241    -0.00113450    -0.03937691
     92      2      H           0.00977931    -0.02293240     0.08056168
     93      2      H          -0.05290317    -0.01264434    -0.03667450
     94      1      O          -0.03069730    -0.05849128    -0.03654002
     95      2      H           0.01097510    -0.04251785    -0.04338885
     96      2      H           0.00648279     0.00068931    -0.04776619
     97      1      O          -0.00189369    -0.03402445    -0.09373982
     98      2      H           0.00303398     0.08963663     0.03970642
     99      2      H          -0.01351299    -0.04041525     0.04239110
    100      1      O           0.04032385    -0.03560942     0.06478944
    101      2      H          -0.00733051    -0.03879796    -0.01185439
    102      2      H          -0.04626214    -0.01856369    -0.04076868
    103      1      O           0.01691155     0.01021029    -0.04754974
    104      2      H           0.00799551    -0.02232223    -0.02934178
    105      2      H          -0.00316763    -0.03403761     0.04017387
    106      1      O          -0.05001684    -0.11515847    -0.04824177
    107      2      H           0.01469374     0.07173184    -0.05435649
    108      2      H          -0.02860070     0.00674750    -0.02760030
    109      1      O          -0.03736853    -0.07105151    -0.08000926
    110      2      H          -0.00018398    -0.02237276     0.02827177
    111      2      H           0.02341875    -0.01240786    -0.07004987
    112      1      O          -0.06096629     0.09080005     0.04014518
    113      2      H           0.04333964    -0.04121084     0.04246716
    114      2      H           0.00374541     0.03587304     0.00473378
    115      1      O           0.03474304     0.08253995     0.08348096
    116      2      H          -0.01826290    -0.01022413    -0.03415856
    117      2      H           0.00420135    -0.01527260     0.02408062
    118      1      O          -0.07118493     0.10611377     0.07240878
    119      2      H           0.01919936     0.00074421    -0.05746225
    120      2      H           0.04230714     0.00711977     0.05151334
    121      1      O          -0.03757640     0.06374627     0.02518922
    122      2      H          -0.00663860    -0.00855533    -0.03656223
    123      2      H           0.02688382     0.03762584     0.01272114
    124      1      O          -0.01005373    -0.05816283    -0.09597033
    125      2      H          -0.03435423     0.01912974     0.02183853
    126      2      H           0.02817314    -0.01050209     0.07404625
    127      1      O          -0.03010377     0.05568481    -0.08245176
    128      2      H           0.00711100     0.02123916    -0.00514414
    129      2      H          -0.01993581    -0.03227365    -0.01041280
    130      1      O           0.02536538     0.03284948    -0.00527802
    131      2      H          -0.04448866     0.00248719     0.01849023
    132      2      H           0.01906807     0.04324191     0.03640514
    133      1      O           0.00188316    -0.01125628    -0.05953033
    134      2      H           0.04578512     0.02223877    -0.03748013
    135      2      H          -0.02170909    -0.03718204    -0.03028682
    136      1      O          -0.02074497    -0.04255385     0.01190664
    137      2      H          -0.00237209    -0.00958525    -0.03257171
    138      2      H           0.02677839    -0.05477348    -0.04300065
    139      1      O           0.01430970    -0.04023706    -0.09255243
    140      2      H          -0.00577959    -0.01056432     0.03681945
    141      2      H          -0.00493857     0.02864162    -0.04211721
    142      1      O           0.07201147     0.01650909    -0.02891597
    143      2      H          -0.08588015    -0.02817908    -0.07933638
    144      2      H           0.01161593    -0.03188259     0.04633341
    145      1      O          -0.04545351     0.10870667    -0.03844552
    146      2      H          -0.04966928    -0.02959424    -0.02506513
    147      2      H           0.05527392    -0.03800564     0.03031784
    148      1      O           0.10970018    -0.04945323     0.14278579
    149      2      H          -0.01089954    -0.01975187     0.03732523
    150      2      H          -0.08860532    -0.04382964    -0.06123845
    151      1      O           0.03456579     0.05358103     0.09605338
    152      2      H          -0.00362643    -0.07060228    -0.01339727
    153      2      H          -0.03324531     0.05839329     0.01997127
    154      1      O           0.02032207    -0.05312287     0.03759772
    155      2      H          -0.03798166    -0.00717121     0.02348624
    156      2      H          -0.01195412     0.04828069    -0.05269579
    157      1      O           0.07894642     0.08392252    -0.00715506
    158      2      H          -0.01289502     0.01488626    -0.03482418
    159      2      H          -0.03828772    -0.01526228     0.01258838
    160      1      O           0.03373644    -0.02258665    -0.07564318
    161      2      H          -0.06423130    -0.01123663     0.07417822
    162      2      H           0.00766735    -0.02485258     0.01738984
    163      1      O           0.01608589     0.02319627     0.21024233
    164      2      H          -0.03661688    -0.04763193     0.01451335
    165      2      H           0.01966770    -0.03340049    -0.07730154
    166      1      O          -0.04411100    -0.01430753     0.06192771
    167      2      H           0.01092639     0.01653214     0.01591296
    168      2      H           0.01901419    -0.03005566     0.00548942
    169      1      O          -0.03242476     0.01614919     0.13096044
    170      2      H          -0.02771634    -0.02465552     0.03309349
    171      2      H           0.02700813     0.01555082     0.02035944
    172      1      O          -0.06491812    -0.04252534     0.06937317
    173      2      H           0.04740131    -0.00035773     0.02172124
    174      2      H          -0.01752002    -0.00496300    -0.01650511
    175      1      O          -0.05756298    -0.02531617     0.12498940
    176      2      H           0.02095782     0.09656032    -0.00132218
    177      2      H           0.00967751    -0.05503207    -0.09819750
    178      1      O           0.04633027     0.01587567     0.08375365
    179      2      H           0.00298601    -0.02179148    -0.02691046
    180      2      H          -0.00109581     0.02034147     0.00516545
    181      1      O          -0.01631679    -0.09067165    -0.03511987
    182      2      H           0.00569033     0.01856607     0.03599272
    183      2      H          -0.03055889     0.00617188     0.02706767
    184      1      O          -0.00865443     0.04082662     0.09239921
    185      2      H          -0.00524490     0.02573465    -0.00519640
    186      2      H           0.00957626     0.00618777     0.01762824
    187      1      O           0.03025552     0.15379004    -0.06837052
    188      2      H          -0.01537876     0.03234701     0.01070255
    189      2      H          -0.01150622    -0.10955080     0.03152460
    190      1      O           0.01077203     0.02284868    -0.09571682
    191      2      H          -0.02655235     0.04405907    -0.02030494
    192      2      H           0.01750662     0.04370024     0.02438148
 SUM OF ATOMIC FORCES          -0.24464819    -0.40807781     0.08622011     0.48354333

 -------------------------------------------------------------------------------
 -                                                                             -
 -                                DBCSR STATISTICS                             -
 -                                                                             -
 -------------------------------------------------------------------------------
 COUNTER                                    TOTAL       BLAS       SMM       ACC
 flops     5 x     5 x   256            731136000       0.0%    100.0%      0.0%
 flops     5 x    13 x   256            908610560       0.0%    100.0%      0.0%
 flops    13 x     5 x   256            910873600       0.0%    100.0%      0.0%
 flops    13 x    13 x   256           1276807168       0.0%    100.0%      0.0%
 flops inhomo. stacks                           0       0.0%      0.0%      0.0%
 flops total                         3.827427E+09       0.0%    100.0%      0.0%
 flops max/rank                      3.827427E+09       0.0%    100.0%      0.0%
 matmuls inhomo. stacks                         0       0.0%      0.0%      0.0%
 matmuls total                             126548       0.0%    100.0%      0.0%
 number of processed stacks                  2652       0.0%    100.0%      0.0%
 average stack size                                     0.0      47.7       0.0
 marketing flops                    37.719376E+09
 -------------------------------------------------------------------------------
 # multiplications                             34
 max memory usage/rank              25.804861E+09
 # max total images/rank                        1
 # max 3D layers                                1
 # MPI messages exchanged                       0
 MPI messages size (bytes):
  total size                         0.000000E+00
  min size                           0.000000E+00
  max size                           0.000000E+00
  average size                       0.000000E+00
 MPI breakdown and total messages size (bytes):
             size <=      128                   0                        0
       128 < size <=     8192                   0                        0
      8192 < size <=    32768                   0                        0
     32768 < size <=   131072                   0                        0
    131072 < size <=  4194304                   0                        0
   4194304 < size <= 16777216                   0                        0
  16777216 < size                               0                        0
 -------------------------------------------------------------------------------

 MEMORY| Estimated peak process memory [MiB]                               24611

 -------------------------------------------------------------------------------
 -                                                                             -
 -                           R E F E R E N C E S                               -
 -                                                                             -
 -------------------------------------------------------------------------------
 
 CP2K version 7.1, the CP2K developers group (2019).
 CP2K is freely available from https://www.cp2k.org/ .

 Schuett, Ole; Messmer, Peter; Hutter, Juerg; VandeVondele, Joost. 
 Electronic Structure Calculations on Graphics Processing Units, John
 Wiley & Sons, Ltd, 173-190 (2016). 
 GPU-Accelerated Sparse Matrix-Matrix Multiplication for
 Linear Scaling Density Functional Theory.
 https://dx.doi.org/10.1002/9781118670712.ch8

 Borstnik, U; VandeVondele, J; Weber, V; Hutter, J. 
 PARALLEL COMPUTING, 40 (5-6), 47-58 (2014). 
 Sparse matrix multiplication: The distributed block-compressed sparse
 row library.
 https://dx.doi.org/10.1016/j.parco.2014.03.012

 Hutter, J; Iannuzzi, M; Schiffmann, F; VandeVondele, J. 
 WIREs Comput Mol Sci., 4 (1), 15-25 (2014). 
 CP2K: atomistic simulations of condensed matter systems.
 https://dx.doi.org/10.1002/wcms.1159

 Krack, M. 
 THEORETICAL CHEMISTRY ACCOUNTS, 114 (1-3), 145-152 (2005). 
 Pseudopotentials for H to Kr optimized for gradient-corrected
 exchange-correlation functionals.
 https://dx.doi.org/10.1007/s00214-005-0655-y

 VandeVondele, J; Krack, M; Mohamed, F; Parrinello, M; Chassaing, T;
 Hutter, J. COMPUTER PHYSICS COMMUNICATIONS, 167 (2), 103-128 (2005). 
 QUICKSTEP: Fast and accurate density functional calculations using a
 mixed Gaussian and plane waves approach.
 https://dx.doi.org/10.1016/j.cpc.2004.12.014

 Frigo, M; Johnson, SG. 
 PROCEEDINGS OF THE IEEE, 93 (2), 216-231 (2005). 
 The design and implementation of FFTW3.
 https://dx.doi.org/10.1109/JPROC.2004.840301

 Hartwigsen, C; Goedecker, S; Hutter, J. 
 PHYSICAL REVIEW B, 58 (7), 3641-3662 (1998). 
 Relativistic separable dual-space Gaussian pseudopotentials from H to Rn.
 https://dx.doi.org/10.1103/PhysRevB.58.3641

 Lippert, G; Hutter, J; Parrinello, M. 
 MOLECULAR PHYSICS, 92 (3), 477-487 (1997). 
 A hybrid Gaussian and plane wave density functional scheme.
 https://dx.doi.org/10.1080/002689797170220

 Goedecker, S; Teter, M; Hutter, J. 
 PHYSICAL REVIEW B, 54 (3), 1703-1710 (1996). 
 Separable dual-space Gaussian pseudopotentials.
 https://dx.doi.org/10.1103/PhysRevB.54.1703


 -------------------------------------------------------------------------------
 -                                                                             -
 -                                T I M I N G                                  -
 -                                                                             -
 -------------------------------------------------------------------------------
 SUBROUTINE                       CALLS  ASD         SELF TIME        TOTAL TIME
                                MAXIMUM       AVERAGE  MAXIMUM  AVERAGE  MAXIMUM
 CP2K                                 1  1.0    0.792    0.792  901.778  901.778
 qs_forces                            1  2.0    0.000    0.000  890.218  890.218
 qs_energies                          1  3.0    0.000    0.000  885.026  885.026
 scf_env_do_scf                       1  4.0    0.000    0.000  872.851  872.851
 scf_env_do_scf_inner_loop           33  5.0    0.005    0.005  872.851  872.851
 gspace_mixing                       32  6.0    4.639    4.639  355.267  355.267
 broyden_mixing                      32  7.0  316.306  316.306  316.306  316.306
 qs_scf_new_mos                      33  6.0    0.001    0.001  218.791  218.791
 eigensolver                         33  7.0    0.004    0.004  211.131  211.131
 pw_transfer                        441  9.9    0.043    0.043  190.891  190.891
 fft_wrap_pw1pw2                    373 10.9    0.006    0.006  186.199  186.199
 rebuild_ks_matrix                   34  6.9    0.000    0.000  172.327  172.327
 qs_ks_build_kohn_sham_matrix        34  7.9    0.012    0.012  172.327  172.327
 fft_wrap_pw1pw2_70                 169 11.2   14.560   14.560  169.368  169.368
 qs_ks_update_qs_env                 33  6.0    0.000    0.000  167.337  167.337
 cp_fm_syevd                         33  8.0  143.868  143.868  144.015  144.015
 qs_rho_update_rho                   34  6.0    0.000    0.000  134.832  134.832
 calculate_rho_elec                  34  7.0   44.422   44.422  134.832  134.832
 fft3d_s                            374 12.8   95.390   95.390   95.450   95.450
 density_rs2pw                       34  8.0    0.004    0.004   89.291   89.291
 cp_fm_cholesky_restore              99  8.0   66.982   66.982   66.982   66.982
 sum_up_and_integrate                34  8.9    2.226    2.226   56.218   56.218
 pw_scatter_s                       202 13.1   55.858   55.858   55.858   55.858
 integrate_v_rspace                  34  9.9    2.731    2.731   53.992   53.992
 pw_poisson_solve                    34  8.9   44.767   44.767   49.731   49.731
 potential_pw2rs                     34 10.9    0.338    0.338   48.441   48.441
 qs_vxc_create                       34  8.9    0.001    0.001   22.664   22.664
 xc_vxc_pw_create                    34  9.9    4.896    4.896   22.664   22.664
 pw_gather_s                        171 12.6   18.364   18.364   18.364   18.364
 -------------------------------------------------------------------------------

 The number of warnings for this run is : 0
 
 -------------------------------------------------------------------------------
  **** **** ******  **  PROGRAM ENDED AT                 2020-05-22 11:34:46.661
 ***** ** ***  *** **   PROGRAM RAN ON                                   gnode39
 **    ****   ******    PROGRAM RAN BY                               mayank.modi
 ***** **    ** ** **   PROGRAM PROCESS ID                                 40285
  **** **  *******  **  PROGRAM STOPPED IN /home/mayank.modi/ab-initio-thermodyn
                                           amics-of-water/mayank/cp2k_energy_cal
                                           culations
