 DBCSR| CPU Multiplication driver                                           XSMM
 DBCSR| Multrec recursion limit                                              512
 DBCSR| Multiplication stack size                                           1000
 DBCSR| Maximum elements for images                                    UNLIMITED
 DBCSR| Multiplicative factor virtual images                                   1
 DBCSR| Use multiplication densification                                       T
 DBCSR| Multiplication size stacks                                             3


  **** **** ******  **  PROGRAM STARTED AT               2020-05-21 16:20:07.806
 ***** ** ***  *** **   PROGRAM STARTED ON                               gnode39
 **    ****   ******    PROGRAM STARTED BY                           mayank.modi
 ***** **    ** ** **   PROGRAM PROCESS ID                                 28686
  **** **  *******  **  PROGRAM STARTED IN /home/mayank.modi/ab-initio-thermodyn
                                           amics-of-water/mayank/cp2k_energy_cal
                                           culations

 CP2K| version string:                                          CP2K version 7.1
 CP2K| source code revision number:                                  git:e635599
 CP2K| cp2kflags: omp libint fftw3 libxc xsmm spglib                            
 CP2K| is freely available from                            https://www.cp2k.org/
 CP2K| Program compiled at                          Mon Dec 23 19:23:12 CET 2019
 CP2K| Program compiled on                                                pc9404
 CP2K| Program compiled for                                Linux-x86-64-gfortran
 CP2K| Data directory path                                        /opt/cp2k/data
 CP2K| Input file name                                             ./input107.in

 GLOBAL| Force Environment number                                              1
 GLOBAL| Basis set file name                                           BASIS_SET
 GLOBAL| Potential file name                                      GTH_POTENTIALS
 GLOBAL| MM Potential file name                                     MM_POTENTIAL
 GLOBAL| Coordinate file name                                      __STD_INPUT__
 GLOBAL| Method name                                                        CP2K
 GLOBAL| Project name                                                   H2O_bulk
 GLOBAL| Preferred FFT library                                             FFTW3
 GLOBAL| Preferred diagonalization lib.                                       SL
 GLOBAL| Run type                                                   ENERGY_FORCE
 GLOBAL| All-to-all communication in single precision                          F
 GLOBAL| FFTs using library dependent lengths                                  F
 GLOBAL| Global print level                                                  LOW
 GLOBAL| MPI I/O enabled                                                       T
 GLOBAL| Total number of message passing processes                             1
 GLOBAL| Number of threads for this process                                   20
 GLOBAL| This output is from process                                           0
 GLOBAL| CPU model name                Intel(R) Xeon(R) CPU E5-2640 v4 @ 2.40GHz
 GLOBAL| CPUID                                                              1002
 GLOBAL| Compiled for CPUID                                                    0

 MEMORY| system memory details [Kb]
 MEMORY|                        rank 0           min           max       average
 MEMORY| MemTotal            131898148     131898148     131898148     131898148
 MEMORY| MemFree              95967356      95967356      95967356      95967356
 MEMORY| Buffers               3187264       3187264       3187264       3187264
 MEMORY| Cached               28338276      28338276      28338276      28338276
 MEMORY| Slab                  3938352       3938352       3938352       3938352
 MEMORY| SReclaimable          3269196       3269196       3269196       3269196
 MEMORY| MemLikelyFree       130762092     130762092     130762092     130762092


 GENERATE|  Preliminary Number of Bonds generated:                             0
 GENERATE|  Achieved consistency in connectivity generation.

 *******************************************************************************
 *******************************************************************************
 **                                                                           **
 **     #####                         ##              ##                      **
 **    ##   ##            ##          ##              ##                      **
 **   ##     ##                       ##            ######                    **
 **   ##     ##  ##   ##  ##   #####  ##  ##   ####   ##    #####    #####    **
 **   ##     ##  ##   ##  ##  ##      ## ##   ##      ##   ##   ##  ##   ##   **
 **   ##  ## ##  ##   ##  ##  ##      ####     ###    ##   ######   ######    **
 **    ##  ###   ##   ##  ##  ##      ## ##      ##   ##   ##       ##        **
 **     #######   #####   ##   #####  ##  ##  ####    ##    #####   ##        **
 **           ##                                                    ##        **
 **                                                                           **
 **                                                ... make the atoms dance   **
 **                                                                           **
 **            Copyright (C) by CP2K developers group (2000 - 2019)           **
 **                                                                           **
 *******************************************************************************


 TOTAL NUMBERS AND MAXIMUM NUMBERS

  Total number of            - Atomic kinds:                                   2
                             - Atoms:                                        192
                             - Shell sets:                                   384
                             - Shells:                                       704
                             - Primitive Cartesian functions:                960
                             - Cartesian basis functions:                   1536
                             - Spherical basis functions:                   1472

  Maximum angular momentum of- Orbital basis functions:                        2
                             - Local part of the GTH pseudopotential:          2
                             - Non-local part of the GTH pseudopotential:      0


 SCF PARAMETERS         Density guess:                                    ATOMIC
                        --------------------------------------------------------
                        max_scf:                                             300
                        max_scf_history:                                       0
                        max_diis:                                              4
                        --------------------------------------------------------
                        eps_scf:                                        1.00E-07
                        eps_scf_history:                                0.00E+00
                        eps_diis:                                       1.00E-01
                        eps_eigval:                                     1.00E-05
                        --------------------------------------------------------
                        level_shift [a.u.]:                                 0.00
                        --------------------------------------------------------
                        Mixing method:                            BROYDEN_MIXING
                                                charge density mixing in g-space
                        --------------------------------------------------------
                        No outer SCF

 Number of electrons:                                                        512
 Number of occupied orbitals:                                                256
 Number of molecular orbitals:                                               256

 Number of orbital functions:                                               1472
 Number of independent orbital functions:                                   1472

 Extrapolation method: initial_guess


 SCF WAVEFUNCTION OPTIMIZATION

  Step     Update method      Time    Convergence         Total energy    Change
  ------------------------------------------------------------------------------
     1 NoMix/Diag. 0.40E+00   10.1     0.99062149     -1087.4109483590 -1.09E+03
     2 Broy./Diag. 0.40E+00   15.0     0.29567844     -1012.7957231508  7.46E+01
     3 Broy./Diag. 0.40E+00   17.0     0.02494723     -1094.4850125279 -8.17E+01
     4 Broy./Diag. 0.40E+00   17.8     0.02567667     -1094.2945967687  1.90E-01
     5 Broy./Diag. 0.40E+00   18.6     0.00376595     -1095.2155960933 -9.21E-01
     6 Broy./Diag. 0.40E+00   19.3     0.00704281     -1095.2716440352 -5.60E-02
     7 Broy./Diag. 0.40E+00   20.2     0.00429650     -1095.4181149495 -1.46E-01
     8 Broy./Diag. 0.40E+00   21.6     0.00592103     -1095.5536352424 -1.36E-01
     9 Broy./Diag. 0.40E+00   23.1     0.00402748     -1095.6314927040 -7.79E-02
    10 Broy./Diag. 0.40E+00   25.1     0.00184273     -1095.6625567511 -3.11E-02
    11 Broy./Diag. 0.40E+00   24.6     0.00141554     -1095.6397777791  2.28E-02
    12 Broy./Diag. 0.40E+00   24.3     0.00063522     -1095.6474614981 -7.68E-03
    13 Broy./Diag. 0.40E+00   24.4     0.00049427     -1095.6681712448 -2.07E-02
    14 Broy./Diag. 0.40E+00   24.8     0.00024946     -1095.6727708466 -4.60E-03
    15 Broy./Diag. 0.40E+00   24.4     0.00027535     -1095.6657238938  7.05E-03
    16 Broy./Diag. 0.40E+00   24.5     0.00014476     -1095.6664510573 -7.27E-04
    17 Broy./Diag. 0.40E+00   26.8     0.00005787     -1095.6679628593 -1.51E-03
    18 Broy./Diag. 0.40E+00   24.7     0.00003871     -1095.6679780249 -1.52E-05
    19 Broy./Diag. 0.40E+00   26.7     0.00001797     -1095.6676646324  3.13E-04
    20 Broy./Diag. 0.40E+00   25.9     0.00001617     -1095.6672275060  4.37E-04
    21 Broy./Diag. 0.40E+00   26.9     0.00001119     -1095.6675899436 -3.62E-04
    22 Broy./Diag. 0.40E+00   26.2     0.00000583     -1095.6678278494 -2.38E-04
    23 Broy./Diag. 0.40E+00   25.6     0.00000657     -1095.6678049489  2.29E-05
    24 Broy./Diag. 0.40E+00   26.7     0.00000178     -1095.6677496010  5.53E-05
    25 Broy./Diag. 0.40E+00   26.4     0.00000261     -1095.6677280442  2.16E-05
    26 Broy./Diag. 0.40E+00   26.3     0.00000126     -1095.6677183682  9.68E-06
    27 Broy./Diag. 0.40E+00   27.3     0.00000072     -1095.6677242432 -5.87E-06
    28 Broy./Diag. 0.40E+00   26.3     0.00000068     -1095.6677288729 -4.63E-06
    29 Broy./Diag. 0.40E+00   26.2     0.00000034     -1095.6677306284 -1.76E-06
    30 Broy./Diag. 0.40E+00   25.1     0.00000035     -1095.6677286226  2.01E-06
    31 Broy./Diag. 0.40E+00   25.3     0.00000031     -1095.6677287924 -1.70E-07
    32 Broy./Diag. 0.40E+00   26.2     0.00000012     -1095.6677307069 -1.91E-06
    33 Broy./Diag. 0.40E+00   25.7     0.00000010     -1095.6677315049 -7.98E-07
    34 Broy./Diag. 0.40E+00   25.7     0.00000006     -1095.6677317253 -2.20E-07

  *** SCF run converged in    34 steps ***


  Electronic density on regular grids:       -512.0002966483       -0.0002966483
  Core density on regular grids:              511.9996653367       -0.0003346633
  Total charge density on r-space grids:       -0.0006313116
  Total charge density g-space grids:          -0.0006313116

  Overlap energy of the core charge distribution:               0.00000505995280
  Self energy of the core charge distribution:              -2838.21791979120962
  Core Hamiltonian energy:                                    822.04183615475040
  Hartree energy:                                            1185.41331934480672
  Exchange-correlation energy:                               -264.90497249356577

  Total energy:                                             -1095.66773172526541

 ENERGY| Total FORCE_EVAL ( QS ) energy (a.u.):            -1095.667731813889077


 ATOMIC FORCES in [a.u.]

 # Atom   Kind   Element          X              Y              Z
      1      1      O           0.03274885    -0.05200621    -0.08431180
      2      2      H          -0.00436892     0.03383134     0.03492786
      3      2      H          -0.01252952    -0.03697999    -0.01193246
      4      1      O           0.01139576     0.06383669     0.03330554
      5      2      H           0.01151178     0.02032402     0.01260289
      6      2      H           0.03101757    -0.01810368    -0.00260382
      7      1      O           0.05173517     0.10207716     0.05754554
      8      2      H          -0.00871428    -0.03508249    -0.01704915
      9      2      H           0.00066245     0.01288852     0.00772575
     10      1      O          -0.05574000    -0.01801845    -0.00229481
     11      2      H           0.00561729    -0.02625631    -0.00483986
     12      2      H           0.01133188    -0.01254355    -0.04285161
     13      1      O           0.03603083    -0.15524626     0.01285509
     14      2      H           0.04115718    -0.00539581    -0.01066885
     15      2      H          -0.04312804     0.05797361     0.09573977
     16      1      O          -0.04063843     0.09376047    -0.13866455
     17      2      H          -0.00219903    -0.02822405     0.04852864
     18      2      H           0.02731343     0.03079142    -0.03650273
     19      1      O           0.03075962    -0.02268148     0.07932470
     20      2      H          -0.00280563     0.01918869     0.03521269
     21      2      H           0.01490770     0.01285295    -0.01399140
     22      1      O          -0.09560444    -0.03620358    -0.04723604
     23      2      H           0.08944214    -0.01423251     0.02514270
     24      2      H          -0.02635518    -0.00951669    -0.05061510
     25      1      O          -0.00066380     0.02309067     0.12474000
     26      2      H           0.02777738    -0.03862095    -0.01773312
     27      2      H          -0.03080238     0.01717861    -0.04213556
     28      1      O           0.00151947    -0.04955171    -0.10421324
     29      2      H           0.01630051     0.02701683    -0.02767400
     30      2      H           0.03084943     0.06076852     0.04450155
     31      1      O          -0.03674588     0.09396067     0.01136234
     32      2      H           0.03837128    -0.06470923     0.01877900
     33      2      H          -0.01067604     0.00978459     0.01681179
     34      1      O           0.07897440     0.06189228     0.08348189
     35      2      H          -0.01751982    -0.05892072     0.01664788
     36      2      H          -0.02474007     0.01562534     0.04134744
     37      1      O           0.04237211     0.06535036    -0.05214429
     38      2      H          -0.00344382    -0.02530690    -0.01763257
     39      2      H          -0.02868473    -0.00523152     0.01475201
     40      1      O          -0.06965121    -0.06854023     0.07033166
     41      2      H           0.00466773    -0.00814663     0.03486202
     42      2      H           0.01961903     0.01780277     0.03284802
     43      1      O          -0.00674270     0.00001363     0.06141185
     44      2      H           0.00025896     0.02991151    -0.01126066
     45      2      H           0.01174563    -0.03371475    -0.01972427
     46      1      O          -0.01861687    -0.06297427     0.03823586
     47      2      H          -0.02120676     0.00418362    -0.02830185
     48      2      H           0.00241026    -0.02943987     0.02785762
     49      1      O           0.00410711    -0.04281836     0.09119893
     50      2      H           0.02196715    -0.03321344     0.03215385
     51      2      H           0.02302866    -0.00235361    -0.03753403
     52      1      O           0.01387637    -0.01969805     0.01151804
     53      2      H           0.01582632     0.02161839    -0.02661359
     54      2      H          -0.02790363    -0.02248940     0.01023179
     55      1      O           0.03631663    -0.08885310     0.07637461
     56      2      H          -0.01717954     0.07145399     0.01736065
     57      2      H          -0.01427139    -0.03151487     0.01812156
     58      1      O           0.04552551    -0.09391203    -0.01507216
     59      2      H          -0.00791777     0.02800923    -0.03846980
     60      2      H           0.00780228     0.01299381     0.00724491
     61      1      O          -0.05230009     0.00574667     0.06147973
     62      2      H          -0.00191213    -0.04584520     0.01066145
     63      2      H           0.00709761     0.01383274     0.05154589
     64      1      O           0.08360460     0.01627958     0.00499421
     65      2      H           0.03224742    -0.00892203    -0.04013361
     66      2      H          -0.08894559    -0.01342817    -0.00542421
     67      1      O           0.00137829    -0.04641143    -0.14667673
     68      2      H           0.04239254     0.00340979     0.00622563
     69      2      H          -0.03042345     0.03012192     0.01421404
     70      1      O           0.06405180     0.02312848    -0.04441494
     71      2      H           0.00438115     0.03063269     0.00789946
     72      2      H          -0.02395615     0.00889384     0.00484611
     73      1      O           0.03824413     0.10982634     0.06468665
     74      2      H          -0.00206320    -0.05067349     0.03679876
     75      2      H          -0.00459249    -0.00334962    -0.01912353
     76      1      O           0.05563931    -0.06801818    -0.04386925
     77      2      H           0.01320375    -0.02373077    -0.04260881
     78      2      H          -0.01976600     0.02181884    -0.05006097
     79      1      O          -0.03211171     0.09441223    -0.07132837
     80      2      H           0.00185596     0.04576123    -0.05231688
     81      2      H           0.03360076    -0.04896868    -0.00497744
     82      1      O          -0.02309079    -0.01299327     0.01783948
     83      2      H          -0.00558938    -0.03036145     0.00162802
     84      2      H          -0.01409788    -0.03650209     0.03705253
     85      1      O          -0.01445377    -0.03420075    -0.02480638
     86      2      H           0.00751180     0.04010001    -0.07629012
     87      2      H          -0.01927922    -0.01157827    -0.00018760
     88      1      O          -0.02997023    -0.01444593     0.07048904
     89      2      H           0.01172288    -0.01925898     0.02688272
     90      2      H           0.02344699     0.04513014    -0.01200371
     91      1      O           0.05433093    -0.06178723     0.01689844
     92      2      H           0.01077696     0.06152747    -0.02850097
     93      2      H          -0.03695317    -0.02572289    -0.03011091
     94      1      O          -0.07945872    -0.07156739    -0.13722825
     95      2      H           0.05750671    -0.00763486    -0.03538879
     96      2      H           0.00170558    -0.02107668     0.08111144
     97      1      O          -0.03056820    -0.01846430     0.00173720
     98      2      H           0.04167606     0.02937040     0.02570229
     99      2      H          -0.01992344     0.01100625     0.02669093
    100      1      O           0.00247187     0.05360460    -0.10832847
    101      2      H          -0.00055768    -0.01670530    -0.02364523
    102      2      H           0.01720571    -0.05994376    -0.00932637
    103      1      O           0.01334514    -0.07179337     0.08917338
    104      2      H          -0.00905340    -0.00212362    -0.05722346
    105      2      H           0.02252971     0.04790227     0.01454237
    106      1      O           0.02849386     0.01382238     0.02570987
    107      2      H           0.00520981     0.03393267     0.02063652
    108      2      H          -0.02259706     0.03965752     0.00497025
    109      1      O          -0.01137370     0.10431340     0.05424740
    110      2      H           0.00727509     0.00483405    -0.01199729
    111      2      H           0.04633840     0.02529718    -0.02696493
    112      1      O          -0.06393758     0.00393807    -0.07508250
    113      2      H           0.00264490     0.00901664     0.02733115
    114      2      H           0.04401584    -0.02025938    -0.04091568
    115      1      O           0.02596126     0.11094748     0.10815860
    116      2      H           0.01382790     0.02251372    -0.04611670
    117      2      H          -0.01213027    -0.03854708    -0.01648542
    118      1      O          -0.01548301    -0.05864980    -0.05252515
    119      2      H           0.04080463    -0.01950005     0.03781917
    120      2      H           0.00468551    -0.04116035    -0.05057887
    121      1      O           0.01184133     0.06102789     0.03857180
    122      2      H          -0.01690007    -0.04154330    -0.01577151
    123      2      H          -0.01356202     0.03001850     0.03701645
    124      1      O          -0.02130144    -0.01289646    -0.14447402
    125      2      H          -0.01383122    -0.00332558    -0.01290111
    126      2      H           0.03683018     0.00880110    -0.00625389
    127      1      O           0.00153181    -0.02209954     0.01139504
    128      2      H           0.01322928     0.01071256     0.06809037
    129      2      H          -0.01978780    -0.01894401    -0.03774534
    130      1      O          -0.01855901     0.01202649     0.03371710
    131      2      H          -0.01316630     0.01732536    -0.00626751
    132      2      H           0.00951151    -0.06673800    -0.04757640
    133      1      O          -0.01541925    -0.06895372    -0.02290671
    134      2      H           0.02993272     0.02168735    -0.03696011
    135      2      H           0.00663836    -0.02888227    -0.01546923
    136      1      O          -0.02255644    -0.06602026     0.00247526
    137      2      H           0.01094006     0.03710304    -0.01860969
    138      2      H           0.00011245    -0.00744739     0.00029048
    139      1      O           0.05061999    -0.04356142    -0.03900072
    140      2      H          -0.04799462    -0.02871911     0.03115756
    141      2      H          -0.01036458    -0.02511268    -0.06636468
    142      1      O          -0.04456566     0.07546777    -0.12996130
    143      2      H           0.04170145    -0.02539841     0.04645480
    144      2      H           0.03921487    -0.04247254     0.05015979
    145      1      O           0.07792544     0.05454957     0.09316469
    146      2      H          -0.06719403    -0.01323377    -0.05606390
    147      2      H           0.00588517     0.03133663     0.00171325
    148      1      O           0.07189186    -0.10864430     0.18795604
    149      2      H          -0.05526096    -0.00769334    -0.07519597
    150      2      H           0.01775274     0.03731895    -0.03340826
    151      1      O          -0.01962773    -0.06047121    -0.12028028
    152      2      H          -0.05138697     0.05950349     0.03943718
    153      2      H           0.07763931     0.01125756    -0.01062137
    154      1      O          -0.00071978     0.08313669    -0.11309038
    155      2      H           0.02349785     0.01080734     0.02026570
    156      2      H           0.03119533     0.00535795    -0.01957201
    157      1      O           0.01261659     0.02407506     0.00885497
    158      2      H           0.03484048     0.01142463    -0.01379145
    159      2      H          -0.01095773     0.00643603     0.04929805
    160      1      O          -0.01763425    -0.00771105     0.07390831
    161      2      H          -0.00951330    -0.04316855    -0.02766903
    162      2      H          -0.00347916    -0.02020637    -0.00879560
    163      1      O          -0.02815866    -0.07554127     0.09261217
    164      2      H           0.02076181     0.04420068     0.02914135
    165      2      H           0.00022001     0.05740627    -0.06491564
    166      1      O          -0.05901774    -0.07052154     0.01688433
    167      2      H           0.03666059     0.01385047    -0.02012956
    168      2      H          -0.01091860    -0.04449529    -0.00461302
    169      1      O           0.01276616    -0.10342532    -0.05523256
    170      2      H          -0.01564080     0.00974407     0.02552421
    171      2      H          -0.00032711    -0.00543724     0.04605031
    172      1      O          -0.04980096     0.01617226     0.06264382
    173      2      H          -0.00413921    -0.02299235    -0.04199048
    174      2      H           0.01455370    -0.00375595     0.00115147
    175      1      O           0.03634534     0.03825806    -0.00656549
    176      2      H           0.00556880    -0.04225005    -0.02656484
    177      2      H          -0.01544631     0.05700390     0.01419241
    178      1      O           0.02914491    -0.05745604     0.12221280
    179      2      H          -0.07104497     0.01381074     0.01869430
    180      2      H           0.01685772    -0.02572021    -0.05709839
    181      1      O          -0.00838169     0.05014620     0.00677748
    182      2      H          -0.00155025     0.02082802    -0.03296135
    183      2      H           0.01619253    -0.03637390    -0.01039407
    184      1      O          -0.00088805     0.07651860    -0.07476517
    185      2      H           0.01124742    -0.00594710     0.01611041
    186      2      H          -0.00025543    -0.01990743    -0.02021344
    187      1      O          -0.01192214     0.00337049    -0.11041124
    188      2      H           0.01949986    -0.01915000     0.00869099
    189      2      H           0.02554593     0.05886422    -0.01486345
    190      1      O           0.00207712     0.03810298     0.00290329
    191      2      H          -0.03477125     0.01189536     0.01879954
    192      2      H          -0.00314623     0.00294515     0.11080423
 SUM OF ATOMIC FORCES           0.45029353    -0.35889232    -0.22200289     0.61713309

 -------------------------------------------------------------------------------
 -                                                                             -
 -                                DBCSR STATISTICS                             -
 -                                                                             -
 -------------------------------------------------------------------------------
 COUNTER                                    TOTAL       BLAS       SMM       ACC
 flops     5 x     5 x   256            895552000       0.0%    100.0%      0.0%
 flops     5 x    13 x   256           1115878400       0.0%    100.0%      0.0%
 flops    13 x     5 x   256           1129856000       0.0%    100.0%      0.0%
 flops    13 x    13 x   256           1577838080       0.0%    100.0%      0.0%
 flops inhomo. stacks                           0       0.0%      0.0%      0.0%
 flops total                         4.719124E+09       0.0%    100.0%      0.0%
 flops max/rank                      4.719124E+09       0.0%    100.0%      0.0%
 matmuls inhomo. stacks                         0       0.0%      0.0%      0.0%
 matmuls total                             155680       0.0%    100.0%      0.0%
 number of processed stacks                  2730       0.0%    100.0%      0.0%
 average stack size                                     0.0      57.0       0.0
 marketing flops                    38.828769E+09
 -------------------------------------------------------------------------------
 # multiplications                             35
 max memory usage/rank              25.807102E+09
 # max total images/rank                        1
 # max 3D layers                                1
 # MPI messages exchanged                       0
 MPI messages size (bytes):
  total size                         0.000000E+00
  min size                           0.000000E+00
  max size                           0.000000E+00
  average size                       0.000000E+00
 MPI breakdown and total messages size (bytes):
             size <=      128                   0                        0
       128 < size <=     8192                   0                        0
      8192 < size <=    32768                   0                        0
     32768 < size <=   131072                   0                        0
    131072 < size <=  4194304                   0                        0
   4194304 < size <= 16777216                   0                        0
  16777216 < size                               0                        0
 -------------------------------------------------------------------------------

 MEMORY| Estimated peak process memory [MiB]                               24614

 -------------------------------------------------------------------------------
 -                                                                             -
 -                           R E F E R E N C E S                               -
 -                                                                             -
 -------------------------------------------------------------------------------
 
 CP2K version 7.1, the CP2K developers group (2019).
 CP2K is freely available from https://www.cp2k.org/ .

 Schuett, Ole; Messmer, Peter; Hutter, Juerg; VandeVondele, Joost. 
 Electronic Structure Calculations on Graphics Processing Units, John
 Wiley & Sons, Ltd, 173-190 (2016). 
 GPU-Accelerated Sparse Matrix-Matrix Multiplication for
 Linear Scaling Density Functional Theory.
 https://dx.doi.org/10.1002/9781118670712.ch8

 Borstnik, U; VandeVondele, J; Weber, V; Hutter, J. 
 PARALLEL COMPUTING, 40 (5-6), 47-58 (2014). 
 Sparse matrix multiplication: The distributed block-compressed sparse
 row library.
 https://dx.doi.org/10.1016/j.parco.2014.03.012

 Hutter, J; Iannuzzi, M; Schiffmann, F; VandeVondele, J. 
 WIREs Comput Mol Sci., 4 (1), 15-25 (2014). 
 CP2K: atomistic simulations of condensed matter systems.
 https://dx.doi.org/10.1002/wcms.1159

 Krack, M. 
 THEORETICAL CHEMISTRY ACCOUNTS, 114 (1-3), 145-152 (2005). 
 Pseudopotentials for H to Kr optimized for gradient-corrected
 exchange-correlation functionals.
 https://dx.doi.org/10.1007/s00214-005-0655-y

 VandeVondele, J; Krack, M; Mohamed, F; Parrinello, M; Chassaing, T;
 Hutter, J. COMPUTER PHYSICS COMMUNICATIONS, 167 (2), 103-128 (2005). 
 QUICKSTEP: Fast and accurate density functional calculations using a
 mixed Gaussian and plane waves approach.
 https://dx.doi.org/10.1016/j.cpc.2004.12.014

 Frigo, M; Johnson, SG. 
 PROCEEDINGS OF THE IEEE, 93 (2), 216-231 (2005). 
 The design and implementation of FFTW3.
 https://dx.doi.org/10.1109/JPROC.2004.840301

 Hartwigsen, C; Goedecker, S; Hutter, J. 
 PHYSICAL REVIEW B, 58 (7), 3641-3662 (1998). 
 Relativistic separable dual-space Gaussian pseudopotentials from H to Rn.
 https://dx.doi.org/10.1103/PhysRevB.58.3641

 Lippert, G; Hutter, J; Parrinello, M. 
 MOLECULAR PHYSICS, 92 (3), 477-487 (1997). 
 A hybrid Gaussian and plane wave density functional scheme.
 https://dx.doi.org/10.1080/002689797170220

 Goedecker, S; Teter, M; Hutter, J. 
 PHYSICAL REVIEW B, 54 (3), 1703-1710 (1996). 
 Separable dual-space Gaussian pseudopotentials.
 https://dx.doi.org/10.1103/PhysRevB.54.1703


 -------------------------------------------------------------------------------
 -                                                                             -
 -                                T I M I N G                                  -
 -                                                                             -
 -------------------------------------------------------------------------------
 SUBROUTINE                       CALLS  ASD         SELF TIME        TOTAL TIME
                                MAXIMUM       AVERAGE  MAXIMUM  AVERAGE  MAXIMUM
 CP2K                                 1  1.0    0.667    0.667  836.970  836.970
 qs_forces                            1  2.0    0.000    0.000  825.950  825.950
 qs_energies                          1  3.0    0.000    0.000  820.905  820.905
 scf_env_do_scf                       1  4.0    0.000    0.000  808.882  808.882
 scf_env_do_scf_inner_loop           34  5.0    0.006    0.006  808.881  808.881
 gspace_mixing                       33  6.0    4.758    4.758  311.856  311.856
 broyden_mixing                      33  7.0  277.480  277.480  277.481  277.481
 qs_scf_new_mos                      34  6.0    0.001    0.001  224.525  224.525
 eigensolver                         34  7.0    0.004    0.004  213.434  213.434
 pw_transfer                        454  9.9    0.044    0.044  163.692  163.692
 fft_wrap_pw1pw2                    384 10.9    0.006    0.006  159.482  159.482
 rebuild_ks_matrix                   35  6.9    0.000    0.000  155.171  155.171
 qs_ks_build_kohn_sham_matrix        35  7.9    0.012    0.012  155.170  155.170
 qs_ks_update_qs_env                 34  6.0    0.000    0.000  150.378  150.378
 fft_wrap_pw1pw2_70                 174 11.2   11.683   11.683  144.320  144.320
 cp_fm_syevd                         34  8.0  144.098  144.098  144.242  144.242
 qs_rho_update_rho                   35  6.0    0.000    0.000  124.843  124.843
 calculate_rho_elec                  35  7.0   44.876   44.876  124.843  124.843
 fft3d_s                            385 12.8   80.170   80.170   80.179   80.179
 density_rs2pw                       35  8.0    0.004    0.004   78.705   78.705
 cp_fm_cholesky_restore             102  8.0   69.065   69.065   69.065   69.065
 sum_up_and_integrate                35  8.9    2.315    2.315   51.324   51.324
 integrate_v_rspace                  35  9.9    3.180    3.180   49.009   49.009
 pw_scatter_s                       208 13.1   48.745   48.745   48.745   48.745
 pw_poisson_solve                    35  8.9   39.744   39.744   44.206   44.206
 potential_pw2rs                     35 10.9    0.308    0.308   42.004   42.004
 qs_vxc_create                       35  8.9    0.001    0.001   22.213   22.213
 xc_vxc_pw_create                    35  9.9    5.011    5.011   22.212   22.212
 xc_rho_set_and_dset_create          35 10.9    0.002    0.002   17.202   17.202
 pw_gather_s                        176 12.6   17.086   17.086   17.086   17.086
 -------------------------------------------------------------------------------

 The number of warnings for this run is : 0
 
 -------------------------------------------------------------------------------
  **** **** ******  **  PROGRAM ENDED AT                 2020-05-21 16:34:04.888
 ***** ** ***  *** **   PROGRAM RAN ON                                   gnode39
 **    ****   ******    PROGRAM RAN BY                               mayank.modi
 ***** **    ** ** **   PROGRAM PROCESS ID                                 28686
  **** **  *******  **  PROGRAM STOPPED IN /home/mayank.modi/ab-initio-thermodyn
                                           amics-of-water/mayank/cp2k_energy_cal
                                           culations
