 DBCSR| CPU Multiplication driver                                           XSMM
 DBCSR| Multrec recursion limit                                              512
 DBCSR| Multiplication stack size                                           1000
 DBCSR| Maximum elements for images                                    UNLIMITED
 DBCSR| Multiplicative factor virtual images                                   1
 DBCSR| Use multiplication densification                                       T
 DBCSR| Multiplication size stacks                                             3


  **** **** ******  **  PROGRAM STARTED AT               2020-05-21 20:00:33.499
 ***** ** ***  *** **   PROGRAM STARTED ON                               gnode39
 **    ****   ******    PROGRAM STARTED BY                           mayank.modi
 ***** **    ** ** **   PROGRAM PROCESS ID                                  2962
  **** **  *******  **  PROGRAM STARTED IN /home/mayank.modi/ab-initio-thermodyn
                                           amics-of-water/mayank/cp2k_energy_cal
                                           culations

 CP2K| version string:                                          CP2K version 7.1
 CP2K| source code revision number:                                  git:e635599
 CP2K| cp2kflags: omp libint fftw3 libxc xsmm spglib                            
 CP2K| is freely available from                            https://www.cp2k.org/
 CP2K| Program compiled at                          Mon Dec 23 19:23:12 CET 2019
 CP2K| Program compiled on                                                pc9404
 CP2K| Program compiled for                                Linux-x86-64-gfortran
 CP2K| Data directory path                                        /opt/cp2k/data
 CP2K| Input file name                                             ./input123.in

 GLOBAL| Force Environment number                                              1
 GLOBAL| Basis set file name                                           BASIS_SET
 GLOBAL| Potential file name                                      GTH_POTENTIALS
 GLOBAL| MM Potential file name                                     MM_POTENTIAL
 GLOBAL| Coordinate file name                                      __STD_INPUT__
 GLOBAL| Method name                                                        CP2K
 GLOBAL| Project name                                                   H2O_bulk
 GLOBAL| Preferred FFT library                                             FFTW3
 GLOBAL| Preferred diagonalization lib.                                       SL
 GLOBAL| Run type                                                   ENERGY_FORCE
 GLOBAL| All-to-all communication in single precision                          F
 GLOBAL| FFTs using library dependent lengths                                  F
 GLOBAL| Global print level                                                  LOW
 GLOBAL| MPI I/O enabled                                                       T
 GLOBAL| Total number of message passing processes                             1
 GLOBAL| Number of threads for this process                                   20
 GLOBAL| This output is from process                                           0
 GLOBAL| CPU model name                Intel(R) Xeon(R) CPU E5-2640 v4 @ 2.40GHz
 GLOBAL| CPUID                                                              1002
 GLOBAL| Compiled for CPUID                                                    0

 MEMORY| system memory details [Kb]
 MEMORY|                        rank 0           min           max       average
 MEMORY| MemTotal            131898148     131898148     131898148     131898148
 MEMORY| MemFree              81397060      81397060      81397060      81397060
 MEMORY| Buffers               3188256       3188256       3188256       3188256
 MEMORY| Cached               33743492      33743492      33743492      33743492
 MEMORY| Slab                  4006440       4006440       4006440       4006440
 MEMORY| SReclaimable          3294684       3294684       3294684       3294684
 MEMORY| MemLikelyFree       121623492     121623492     121623492     121623492


 GENERATE|  Preliminary Number of Bonds generated:                             0
 GENERATE|  Achieved consistency in connectivity generation.

 *******************************************************************************
 *******************************************************************************
 **                                                                           **
 **     #####                         ##              ##                      **
 **    ##   ##            ##          ##              ##                      **
 **   ##     ##                       ##            ######                    **
 **   ##     ##  ##   ##  ##   #####  ##  ##   ####   ##    #####    #####    **
 **   ##     ##  ##   ##  ##  ##      ## ##   ##      ##   ##   ##  ##   ##   **
 **   ##  ## ##  ##   ##  ##  ##      ####     ###    ##   ######   ######    **
 **    ##  ###   ##   ##  ##  ##      ## ##      ##   ##   ##       ##        **
 **     #######   #####   ##   #####  ##  ##  ####    ##    #####   ##        **
 **           ##                                                    ##        **
 **                                                                           **
 **                                                ... make the atoms dance   **
 **                                                                           **
 **            Copyright (C) by CP2K developers group (2000 - 2019)           **
 **                                                                           **
 *******************************************************************************


 TOTAL NUMBERS AND MAXIMUM NUMBERS

  Total number of            - Atomic kinds:                                   2
                             - Atoms:                                        192
                             - Shell sets:                                   384
                             - Shells:                                       704
                             - Primitive Cartesian functions:                960
                             - Cartesian basis functions:                   1536
                             - Spherical basis functions:                   1472

  Maximum angular momentum of- Orbital basis functions:                        2
                             - Local part of the GTH pseudopotential:          2
                             - Non-local part of the GTH pseudopotential:      0


 SCF PARAMETERS         Density guess:                                    ATOMIC
                        --------------------------------------------------------
                        max_scf:                                             300
                        max_scf_history:                                       0
                        max_diis:                                              4
                        --------------------------------------------------------
                        eps_scf:                                        1.00E-07
                        eps_scf_history:                                0.00E+00
                        eps_diis:                                       1.00E-01
                        eps_eigval:                                     1.00E-05
                        --------------------------------------------------------
                        level_shift [a.u.]:                                 0.00
                        --------------------------------------------------------
                        Mixing method:                            BROYDEN_MIXING
                                                charge density mixing in g-space
                        --------------------------------------------------------
                        No outer SCF

 Number of electrons:                                                        512
 Number of occupied orbitals:                                                256
 Number of molecular orbitals:                                               256

 Number of orbital functions:                                               1472
 Number of independent orbital functions:                                   1472

 Extrapolation method: initial_guess


 SCF WAVEFUNCTION OPTIMIZATION

  Step     Update method      Time    Convergence         Total energy    Change
  ------------------------------------------------------------------------------
     1 NoMix/Diag. 0.40E+00   11.0     0.99089669     -1087.4011519895 -1.09E+03
     2 Broy./Diag. 0.40E+00   16.5     0.28998236     -1012.7037451065  7.47E+01
     3 Broy./Diag. 0.40E+00   17.3     0.02398967     -1094.3571374346 -8.17E+01
     4 Broy./Diag. 0.40E+00   19.6     0.02811268     -1094.2637741617  9.34E-02
     5 Broy./Diag. 0.40E+00   20.4     0.00264091     -1095.2093543623 -9.46E-01
     6 Broy./Diag. 0.40E+00   21.1     0.00392511     -1095.2622807797 -5.29E-02
     7 Broy./Diag. 0.40E+00   22.2     0.00225066     -1095.4172818217 -1.55E-01
     8 Broy./Diag. 0.40E+00   23.6     0.00338548     -1095.5455425076 -1.28E-01
     9 Broy./Diag. 0.40E+00   24.2     0.00293113     -1095.6108706324 -6.53E-02
    10 Broy./Diag. 0.40E+00   25.8     0.00148759     -1095.6435797100 -3.27E-02
    11 Broy./Diag. 0.40E+00   26.3     0.00124436     -1095.6141659307  2.94E-02
    12 Broy./Diag. 0.40E+00   26.1     0.00057020     -1095.6237845863 -9.62E-03
    13 Broy./Diag. 0.40E+00   26.3     0.00051888     -1095.6432919872 -1.95E-02
    14 Broy./Diag. 0.40E+00   27.5     0.00022728     -1095.6438260845 -5.34E-04
    15 Broy./Diag. 0.40E+00   26.1     0.00020018     -1095.6385327433  5.29E-03
    16 Broy./Diag. 0.40E+00   26.4     0.00012583     -1095.6395049075 -9.72E-04
    17 Broy./Diag. 0.40E+00   26.3     0.00005756     -1095.6407774647 -1.27E-03
    18 Broy./Diag. 0.40E+00   26.5     0.00003864     -1095.6408002962 -2.28E-05
    19 Broy./Diag. 0.40E+00   27.0     0.00001669     -1095.6404550900  3.45E-04
    20 Broy./Diag. 0.40E+00   25.0     0.00001415     -1095.6401057757  3.49E-04
    21 Broy./Diag. 0.40E+00   26.2     0.00001016     -1095.6403714272 -2.66E-04
    22 Broy./Diag. 0.40E+00   26.1     0.00000363     -1095.6405741890 -2.03E-04
    23 Broy./Diag. 0.40E+00   27.3     0.00000479     -1095.6405774006 -3.21E-06
    24 Broy./Diag. 0.40E+00   26.1     0.00000292     -1095.6404982433  7.92E-05
    25 Broy./Diag. 0.40E+00   26.3     0.00000315     -1095.6404574957  4.07E-05
    26 Broy./Diag. 0.40E+00   26.7     0.00000127     -1095.6404340713  2.34E-05
    27 Broy./Diag. 0.40E+00   26.5     0.00000059     -1095.6404324997  1.57E-06
    28 Broy./Diag. 0.40E+00   27.4     0.00000060     -1095.6404336762 -1.18E-06
    29 Broy./Diag. 0.40E+00   25.4     0.00000031     -1095.6404318926  1.78E-06
    30 Broy./Diag. 0.40E+00   25.9     0.00000024     -1095.6404287553  3.14E-06
    31 Broy./Diag. 0.40E+00   25.5     0.00000023     -1095.6404285453  2.10E-07
    32 Broy./Diag. 0.40E+00   24.4     0.00000012     -1095.6404292815 -7.36E-07
    33 Broy./Diag. 0.40E+00   24.9     0.00000012     -1095.6404294730 -1.92E-07
    34 Broy./Diag. 0.40E+00   26.0     0.00000008     -1095.6404289687  5.04E-07

  *** SCF run converged in    34 steps ***


  Electronic density on regular grids:       -511.9999360989        0.0000639011
  Core density on regular grids:              511.9999360426       -0.0000639574
  Total charge density on r-space grids:       -0.0000000563
  Total charge density g-space grids:          -0.0000000563

  Overlap energy of the core charge distribution:               0.00000548439304
  Self energy of the core charge distribution:              -2838.21791979120962
  Core Hamiltonian energy:                                    822.25895369395698
  Hartree energy:                                            1185.29961831029755
  Exchange-correlation energy:                               -264.98108666610068

  Total energy:                                             -1095.64042896866272

 ENERGY| Total FORCE_EVAL ( QS ) energy (a.u.):            -1095.640428961383350


 ATOMIC FORCES in [a.u.]

 # Atom   Kind   Element          X              Y              Z
      1      1      O           0.01970198     0.03832274    -0.06249162
      2      2      H          -0.05719570     0.01985207     0.10214175
      3      2      H          -0.00212238     0.02584086    -0.01698390
      4      1      O           0.03444804    -0.05909358    -0.07044990
      5      2      H           0.00157075    -0.00165703    -0.01765203
      6      2      H          -0.01330594    -0.00633055    -0.02689680
      7      1      O          -0.00196660    -0.02738703    -0.03801711
      8      2      H          -0.01871381    -0.00535365    -0.03227216
      9      2      H          -0.04067614    -0.02141125    -0.09664014
     10      1      O          -0.06159625    -0.08529785    -0.10146815
     11      2      H           0.05078620    -0.01022531    -0.01093630
     12      2      H           0.00518901     0.00314547     0.03678910
     13      1      O          -0.04865313     0.00826668     0.01106736
     14      2      H           0.05928165     0.03284998    -0.06602000
     15      2      H           0.01165432     0.00915442     0.02955606
     16      1      O          -0.02379589     0.01971391    -0.09599870
     17      2      H           0.00013881     0.02716209     0.02904762
     18      2      H           0.05548890     0.01147532    -0.04307330
     19      1      O           0.08455237    -0.07847232     0.01543913
     20      2      H           0.01498818     0.02598761    -0.02906815
     21      2      H          -0.06734281    -0.02856858    -0.01972552
     22      1      O          -0.00879297    -0.03568624     0.01630604
     23      2      H           0.03893947    -0.05918052     0.01062357
     24      2      H           0.01202179     0.04440957    -0.05535227
     25      1      O          -0.00944575     0.00345465     0.12336558
     26      2      H           0.00756446    -0.03676067    -0.03535272
     27      2      H          -0.01800213     0.07118856    -0.03764346
     28      1      O          -0.05719009    -0.08404752    -0.11349830
     29      2      H           0.02731734     0.01026549     0.04734449
     30      2      H          -0.00458837     0.00037736     0.03418899
     31      1      O           0.06765669    -0.08256349    -0.06840146
     32      2      H          -0.04531792    -0.00690333     0.04392227
     33      2      H           0.01583991     0.02435138     0.02491528
     34      1      O           0.01906860    -0.05347325     0.03967320
     35      2      H          -0.05274667    -0.01935111    -0.04601257
     36      2      H           0.01812100    -0.00373068     0.01675186
     37      1      O           0.05450530     0.08322682     0.08846437
     38      2      H           0.00513453    -0.05502705    -0.03286223
     39      2      H          -0.02014438     0.03433004     0.02657576
     40      1      O          -0.04991665    -0.01584292    -0.00823607
     41      2      H           0.02388406    -0.00077533     0.03017235
     42      2      H           0.02138075    -0.00280692    -0.03283311
     43      1      O           0.00271298     0.06770172     0.02734382
     44      2      H           0.00083253     0.04070813     0.08500653
     45      2      H           0.01864136    -0.03160323    -0.00263604
     46      1      O           0.02933772    -0.06275790     0.02267124
     47      2      H          -0.02963342     0.09332068    -0.00344268
     48      2      H          -0.00193956     0.00050269     0.02277384
     49      1      O          -0.00674709     0.08000712    -0.06201051
     50      2      H           0.00105537    -0.02506220    -0.03038736
     51      2      H           0.02159148    -0.02843555     0.01138285
     52      1      O          -0.00920806     0.02729917    -0.03265010
     53      2      H           0.02136235     0.00345881     0.01227812
     54      2      H          -0.03635908    -0.01308240    -0.04782385
     55      1      O           0.05000548    -0.04648064    -0.01822086
     56      2      H           0.00236971     0.01531564     0.04801587
     57      2      H           0.00161571     0.01918154    -0.02265194
     58      1      O           0.00775963    -0.07078527     0.03805969
     59      2      H          -0.02869860    -0.01375105     0.03835839
     60      2      H          -0.01018728     0.00542689    -0.02085647
     61      1      O          -0.00515472    -0.02951504    -0.10528916
     62      2      H          -0.01261537    -0.01336254     0.00363300
     63      2      H           0.00180641    -0.03791514    -0.00072462
     64      1      O          -0.02559078     0.07259331    -0.07063641
     65      2      H           0.04688607    -0.02917589    -0.02455092
     66      2      H           0.01104286    -0.02341681     0.02725043
     67      1      O          -0.02263882     0.05899962     0.03263386
     68      2      H          -0.00992714     0.03847653     0.09037283
     69      2      H           0.06272076    -0.04543694     0.03316148
     70      1      O           0.04563698    -0.04451177    -0.07962017
     71      2      H          -0.01915170    -0.00059426    -0.05773627
     72      2      H          -0.01433284     0.04771755     0.04799735
     73      1      O           0.04176039     0.11067601    -0.11023166
     74      2      H          -0.02776006    -0.02217936     0.01784057
     75      2      H           0.01538618    -0.03522453    -0.02516352
     76      1      O           0.06612371    -0.00746891     0.02152412
     77      2      H           0.03072479    -0.01215098    -0.02677847
     78      2      H          -0.08835070    -0.05632374    -0.07739434
     79      1      O          -0.05471918    -0.06109782     0.07308565
     80      2      H          -0.00013827     0.02029380     0.02228150
     81      2      H           0.01737698     0.00828646    -0.04109802
     82      1      O          -0.01045704     0.03064701    -0.09802542
     83      2      H          -0.01626833    -0.03530433     0.03449003
     84      2      H           0.03468789     0.00208185     0.01522032
     85      1      O          -0.02187780    -0.00111490     0.12436425
     86      2      H           0.02097384    -0.01744606     0.01234595
     87      2      H          -0.01812126    -0.00890442     0.01750670
     88      1      O          -0.05093225    -0.01919592     0.01882887
     89      2      H           0.05652876    -0.03889059     0.00450844
     90      2      H           0.01222807     0.03858017    -0.00001842
     91      1      O           0.01474010    -0.01405515     0.06011647
     92      2      H          -0.00462323    -0.00888574     0.05352449
     93      2      H          -0.04774919    -0.03751991    -0.03779885
     94      1      O           0.00496160     0.08380736    -0.01355185
     95      2      H           0.01377439     0.00229480    -0.03793535
     96      2      H          -0.01179555     0.01036688     0.00748332
     97      1      O          -0.05476747     0.04366217     0.10661902
     98      2      H           0.01473369     0.02711537     0.03896295
     99      2      H           0.04327143    -0.01510183     0.00648997
    100      1      O          -0.09791917     0.03059889    -0.07982683
    101      2      H           0.06410971     0.02944500    -0.05972494
    102      2      H          -0.00395925    -0.04090313     0.01537817
    103      1      O          -0.01197512     0.07550428     0.11747587
    104      2      H          -0.03178328     0.01109504    -0.07742137
    105      2      H           0.02141743     0.03427273     0.03763818
    106      1      O          -0.04647147     0.06127739     0.04943231
    107      2      H          -0.00698486     0.06380408    -0.02567106
    108      2      H           0.05117501    -0.04952024    -0.07186046
    109      1      O          -0.04736497    -0.03830734    -0.05092139
    110      2      H          -0.00074378    -0.00491171     0.05552134
    111      2      H           0.03560221     0.01200723     0.02169443
    112      1      O          -0.02426969    -0.07609386     0.03799215
    113      2      H           0.00035654    -0.02990898    -0.00926565
    114      2      H           0.04910145    -0.00981813    -0.00359029
    115      1      O           0.00543098     0.01386757     0.13719889
    116      2      H          -0.04545326    -0.02900510    -0.01485915
    117      2      H           0.02195375    -0.03174559    -0.01964654
    118      1      O          -0.09147568    -0.09854167    -0.06038897
    119      2      H           0.08074067     0.03554490     0.04385363
    120      2      H           0.00484850     0.00318967    -0.01026590
    121      1      O           0.05175862    -0.03592636     0.08367737
    122      2      H          -0.00997541    -0.02854779    -0.04298225
    123      2      H          -0.03007533     0.03938582     0.04310811
    124      1      O           0.00810809    -0.09909234     0.06184600
    125      2      H          -0.04510544     0.03231390     0.04627930
    126      2      H           0.01910452     0.01854917    -0.01249726
    127      1      O           0.03702328    -0.01167173    -0.06207740
    128      2      H           0.02209950    -0.03809444     0.00158858
    129      2      H          -0.06742342    -0.02507128     0.02003117
    130      1      O           0.02243776     0.03862299     0.10723619
    131      2      H           0.00357175    -0.00389492    -0.00115968
    132      2      H          -0.00879077    -0.01900877     0.02104055
    133      1      O          -0.03691502     0.10055598     0.11867664
    134      2      H           0.00344362     0.00079037    -0.02255285
    135      2      H           0.04591329     0.00376595     0.01936874
    136      1      O          -0.06612517     0.10208833    -0.08219639
    137      2      H           0.00058683    -0.02631808     0.01415522
    138      2      H           0.04327030    -0.03799124    -0.00464879
    139      1      O           0.04737575     0.00427436    -0.08796731
    140      2      H          -0.02418316    -0.01524386    -0.03263150
    141      2      H          -0.00101054     0.01688137    -0.04278720
    142      1      O           0.01799918    -0.05031878     0.06460096
    143      2      H          -0.01922286    -0.04918889    -0.01588791
    144      2      H          -0.00072756    -0.00480390     0.01060357
    145      1      O          -0.01512494    -0.07470682     0.05172042
    146      2      H          -0.01703696    -0.01245040    -0.00602472
    147      2      H           0.02961176    -0.01066343     0.00334264
    148      1      O           0.01531350     0.00878602     0.13327647
    149      2      H          -0.03520056    -0.00658823    -0.02446337
    150      2      H           0.01752601     0.00512215    -0.02050467
    151      1      O           0.01375318    -0.02998503    -0.03923149
    152      2      H           0.03718861     0.03683666     0.01848636
    153      2      H          -0.04579826     0.03139151     0.03746467
    154      1      O           0.02826696    -0.01936212    -0.08030280
    155      2      H           0.02114880     0.02675652     0.05800369
    156      2      H          -0.03282671    -0.06190968    -0.02174527
    157      1      O          -0.02116713     0.05678550    -0.11167838
    158      2      H           0.04895244    -0.05002543    -0.02386957
    159      2      H          -0.03865444    -0.05770772     0.01804817
    160      1      O           0.01356353     0.11683434    -0.11350779
    161      2      H           0.00857034    -0.02140613     0.08788994
    162      2      H          -0.01270521    -0.01024950    -0.01256829
    163      1      O           0.05625396    -0.15164091     0.13260622
    164      2      H          -0.01630710     0.01914584    -0.04025516
    165      2      H          -0.04374664     0.08499872     0.00548890
    166      1      O          -0.03676837     0.06447971    -0.06412127
    167      2      H           0.03556439     0.00615986     0.00033733
    168      2      H           0.00794689    -0.01755516     0.07265773
    169      1      O           0.02573765    -0.08569115    -0.04626709
    170      2      H          -0.06017516     0.01729855    -0.01924748
    171      2      H          -0.01213927    -0.01642172    -0.03718288
    172      1      O          -0.01835911    -0.06129934    -0.05509764
    173      2      H          -0.01516412     0.03690198    -0.00404390
    174      2      H           0.02823632    -0.01437739     0.01391219
    175      1      O          -0.01422733     0.00636388    -0.05795505
    176      2      H           0.00733894    -0.06078247     0.00457592
    177      2      H           0.00239363    -0.00119146    -0.02157776
    178      1      O          -0.00801734    -0.06184660     0.14277947
    179      2      H           0.03042110     0.01373054    -0.02966524
    180      2      H          -0.01775503     0.02699959     0.01364967
    181      1      O          -0.06984552     0.12663002     0.06746815
    182      2      H          -0.00097862    -0.04719005     0.05662396
    183      2      H           0.06493147    -0.00145340     0.00910287
    184      1      O          -0.06803030     0.03470681     0.10293190
    185      2      H           0.02824586     0.03733448    -0.04164837
    186      2      H          -0.00127666    -0.01063807     0.03208318
    187      1      O           0.00883997    -0.08122298    -0.10682723
    188      2      H           0.00176608     0.01486219     0.02019240
    189      2      H          -0.00373334    -0.01647097    -0.00581379
    190      1      O           0.06170178     0.00813768    -0.09831095
    191      2      H          -0.01866873     0.06890311     0.00571790
    192      2      H          -0.00444253     0.03152868    -0.04961717
 SUM OF ATOMIC FORCES           0.02522231    -0.47303558    -0.10824347     0.48591715

 -------------------------------------------------------------------------------
 -                                                                             -
 -                                DBCSR STATISTICS                             -
 -                                                                             -
 -------------------------------------------------------------------------------
 COUNTER                                    TOTAL       BLAS       SMM       ACC
 flops     5 x     5 x   256            838656000       0.0%    100.0%      0.0%
 flops     5 x    13 x   256           1037836800       0.0%    100.0%      0.0%
 flops    13 x     5 x   256           1059968000       0.0%    100.0%      0.0%
 flops    13 x    13 x   256           1459727360       0.0%    100.0%      0.0%
 flops inhomo. stacks                           0       0.0%      0.0%      0.0%
 flops total                         4.396188E+09       0.0%    100.0%      0.0%
 flops max/rank                      4.396188E+09       0.0%    100.0%      0.0%
 matmuls inhomo. stacks                         0       0.0%      0.0%      0.0%
 matmuls total                             145425       0.0%    100.0%      0.0%
 number of processed stacks                  2730       0.0%    100.0%      0.0%
 average stack size                                     0.0      53.3       0.0
 marketing flops                    38.828769E+09
 -------------------------------------------------------------------------------
 # multiplications                             35
 max memory usage/rank              25.806275E+09
 # max total images/rank                        1
 # max 3D layers                                1
 # MPI messages exchanged                       0
 MPI messages size (bytes):
  total size                         0.000000E+00
  min size                           0.000000E+00
  max size                           0.000000E+00
  average size                       0.000000E+00
 MPI breakdown and total messages size (bytes):
             size <=      128                   0                        0
       128 < size <=     8192                   0                        0
      8192 < size <=    32768                   0                        0
     32768 < size <=   131072                   0                        0
    131072 < size <=  4194304                   0                        0
   4194304 < size <= 16777216                   0                        0
  16777216 < size                               0                        0
 -------------------------------------------------------------------------------

 MEMORY| Estimated peak process memory [MiB]                               24613

 -------------------------------------------------------------------------------
 -                                                                             -
 -                           R E F E R E N C E S                               -
 -                                                                             -
 -------------------------------------------------------------------------------
 
 CP2K version 7.1, the CP2K developers group (2019).
 CP2K is freely available from https://www.cp2k.org/ .

 Schuett, Ole; Messmer, Peter; Hutter, Juerg; VandeVondele, Joost. 
 Electronic Structure Calculations on Graphics Processing Units, John
 Wiley & Sons, Ltd, 173-190 (2016). 
 GPU-Accelerated Sparse Matrix-Matrix Multiplication for
 Linear Scaling Density Functional Theory.
 https://dx.doi.org/10.1002/9781118670712.ch8

 Borstnik, U; VandeVondele, J; Weber, V; Hutter, J. 
 PARALLEL COMPUTING, 40 (5-6), 47-58 (2014). 
 Sparse matrix multiplication: The distributed block-compressed sparse
 row library.
 https://dx.doi.org/10.1016/j.parco.2014.03.012

 Hutter, J; Iannuzzi, M; Schiffmann, F; VandeVondele, J. 
 WIREs Comput Mol Sci., 4 (1), 15-25 (2014). 
 CP2K: atomistic simulations of condensed matter systems.
 https://dx.doi.org/10.1002/wcms.1159

 Krack, M. 
 THEORETICAL CHEMISTRY ACCOUNTS, 114 (1-3), 145-152 (2005). 
 Pseudopotentials for H to Kr optimized for gradient-corrected
 exchange-correlation functionals.
 https://dx.doi.org/10.1007/s00214-005-0655-y

 VandeVondele, J; Krack, M; Mohamed, F; Parrinello, M; Chassaing, T;
 Hutter, J. COMPUTER PHYSICS COMMUNICATIONS, 167 (2), 103-128 (2005). 
 QUICKSTEP: Fast and accurate density functional calculations using a
 mixed Gaussian and plane waves approach.
 https://dx.doi.org/10.1016/j.cpc.2004.12.014

 Frigo, M; Johnson, SG. 
 PROCEEDINGS OF THE IEEE, 93 (2), 216-231 (2005). 
 The design and implementation of FFTW3.
 https://dx.doi.org/10.1109/JPROC.2004.840301

 Hartwigsen, C; Goedecker, S; Hutter, J. 
 PHYSICAL REVIEW B, 58 (7), 3641-3662 (1998). 
 Relativistic separable dual-space Gaussian pseudopotentials from H to Rn.
 https://dx.doi.org/10.1103/PhysRevB.58.3641

 Lippert, G; Hutter, J; Parrinello, M. 
 MOLECULAR PHYSICS, 92 (3), 477-487 (1997). 
 A hybrid Gaussian and plane wave density functional scheme.
 https://dx.doi.org/10.1080/002689797170220

 Goedecker, S; Teter, M; Hutter, J. 
 PHYSICAL REVIEW B, 54 (3), 1703-1710 (1996). 
 Separable dual-space Gaussian pseudopotentials.
 https://dx.doi.org/10.1103/PhysRevB.54.1703


 -------------------------------------------------------------------------------
 -                                                                             -
 -                                T I M I N G                                  -
 -                                                                             -
 -------------------------------------------------------------------------------
 SUBROUTINE                       CALLS  ASD         SELF TIME        TOTAL TIME
                                MAXIMUM       AVERAGE  MAXIMUM  AVERAGE  MAXIMUM
 CP2K                                 1  1.0    0.803    0.803  863.546  863.546
 qs_forces                            1  2.0    0.000    0.000  851.656  851.656
 qs_energies                          1  3.0    0.000    0.000  846.841  846.841
 scf_env_do_scf                       1  4.0    0.000    0.000  833.796  833.796
 scf_env_do_scf_inner_loop           34  5.0    0.006    0.006  833.796  833.796
 gspace_mixing                       33  6.0    4.913    4.913  320.161  320.161
 broyden_mixing                      33  7.0  284.307  284.307  284.308  284.308
 qs_scf_new_mos                      34  6.0    0.001    0.001  233.608  233.608
 eigensolver                         34  7.0    0.004    0.004  228.230  228.230
 pw_transfer                        454  9.9    0.044    0.044  170.329  170.329
 fft_wrap_pw1pw2                    384 10.9    0.006    0.006  165.907  165.907
 rebuild_ks_matrix                   35  6.9    0.000    0.000  159.689  159.689
 qs_ks_build_kohn_sham_matrix        35  7.9    0.012    0.012  159.689  159.689
 qs_ks_update_qs_env                 34  6.0    0.000    0.000  155.082  155.082
 cp_fm_syevd                         34  8.0  154.612  154.612  154.771  154.771
 fft_wrap_pw1pw2_70                 174 11.2   13.070   13.070  151.234  151.234
 qs_rho_update_rho                   35  6.0    0.000    0.000  128.108  128.108
 calculate_rho_elec                  35  7.0   45.452   45.452  128.108  128.108
 fft3d_s                            385 12.8   82.520   82.520   82.530   82.530
 density_rs2pw                       35  8.0    0.004    0.004   81.339   81.339
 cp_fm_cholesky_restore             102  8.0   73.312   73.312   73.312   73.312
 pw_scatter_s                       208 13.1   51.339   51.339   51.339   51.339
 sum_up_and_integrate                35  8.9    2.491    2.491   49.156   49.156
 pw_poisson_solve                    35  8.9   42.690   42.690   47.393   47.393
 integrate_v_rspace                  35  9.9    2.662    2.662   46.665   46.665
 potential_pw2rs                     35 10.9    0.304    0.304   43.433   43.433
 qs_vxc_create                       35  8.9    0.001    0.001   23.394   23.394
 xc_vxc_pw_create                    35  9.9    5.256    5.256   23.393   23.393
 xc_rho_set_and_dset_create          35 10.9    0.001    0.001   18.137   18.137
 -------------------------------------------------------------------------------

 The number of warnings for this run is : 0
 
 -------------------------------------------------------------------------------
  **** **** ******  **  PROGRAM ENDED AT                 2020-05-21 20:14:57.215
 ***** ** ***  *** **   PROGRAM RAN ON                                   gnode39
 **    ****   ******    PROGRAM RAN BY                               mayank.modi
 ***** **    ** ** **   PROGRAM PROCESS ID                                  2962
  **** **  *******  **  PROGRAM STOPPED IN /home/mayank.modi/ab-initio-thermodyn
                                           amics-of-water/mayank/cp2k_energy_cal
                                           culations
