 DBCSR| CPU Multiplication driver                                           XSMM
 DBCSR| Multrec recursion limit                                              512
 DBCSR| Multiplication stack size                                           1000
 DBCSR| Maximum elements for images                                    UNLIMITED
 DBCSR| Multiplicative factor virtual images                                   1
 DBCSR| Use multiplication densification                                       T
 DBCSR| Multiplication size stacks                                             3


  **** **** ******  **  PROGRAM STARTED AT               2020-05-21 08:31:51.128
 ***** ** ***  *** **   PROGRAM STARTED ON                               gnode39
 **    ****   ******    PROGRAM STARTED BY                           mayank.modi
 ***** **    ** ** **   PROGRAM PROCESS ID                                 14113
  **** **  *******  **  PROGRAM STARTED IN /home/mayank.modi/ab-initio-thermodyn
                                           amics-of-water/mayank/cp2k_energy_cal
                                           culations

 CP2K| version string:                                          CP2K version 7.1
 CP2K| source code revision number:                                  git:e635599
 CP2K| cp2kflags: omp libint fftw3 libxc xsmm spglib                            
 CP2K| is freely available from                            https://www.cp2k.org/
 CP2K| Program compiled at                          Mon Dec 23 19:23:12 CET 2019
 CP2K| Program compiled on                                                pc9404
 CP2K| Program compiled for                                Linux-x86-64-gfortran
 CP2K| Data directory path                                        /opt/cp2k/data
 CP2K| Input file name                                              ./input71.in

 GLOBAL| Force Environment number                                              1
 GLOBAL| Basis set file name                                           BASIS_SET
 GLOBAL| Potential file name                                      GTH_POTENTIALS
 GLOBAL| MM Potential file name                                     MM_POTENTIAL
 GLOBAL| Coordinate file name                                      __STD_INPUT__
 GLOBAL| Method name                                                        CP2K
 GLOBAL| Project name                                                   H2O_bulk
 GLOBAL| Preferred FFT library                                             FFTW3
 GLOBAL| Preferred diagonalization lib.                                       SL
 GLOBAL| Run type                                                   ENERGY_FORCE
 GLOBAL| All-to-all communication in single precision                          F
 GLOBAL| FFTs using library dependent lengths                                  F
 GLOBAL| Global print level                                                  LOW
 GLOBAL| MPI I/O enabled                                                       T
 GLOBAL| Total number of message passing processes                             1
 GLOBAL| Number of threads for this process                                   20
 GLOBAL| This output is from process                                           0
 GLOBAL| CPU model name                Intel(R) Xeon(R) CPU E5-2640 v4 @ 2.40GHz
 GLOBAL| CPUID                                                              1002
 GLOBAL| Compiled for CPUID                                                    0

 MEMORY| system memory details [Kb]
 MEMORY|                        rank 0           min           max       average
 MEMORY| MemTotal            131898148     131898148     131898148     131898148
 MEMORY| MemFree              88685140      88685140      88685140      88685140
 MEMORY| Buffers               3187120       3187120       3187120       3187120
 MEMORY| Cached               34124784      34124784      34124784      34124784
 MEMORY| Slab                  3929868       3929868       3929868       3929868
 MEMORY| SReclaimable          3268460       3268460       3268460       3268460
 MEMORY| MemLikelyFree       129265504     129265504     129265504     129265504


 GENERATE|  Preliminary Number of Bonds generated:                             0
 GENERATE|  Achieved consistency in connectivity generation.

 *******************************************************************************
 *******************************************************************************
 **                                                                           **
 **     #####                         ##              ##                      **
 **    ##   ##            ##          ##              ##                      **
 **   ##     ##                       ##            ######                    **
 **   ##     ##  ##   ##  ##   #####  ##  ##   ####   ##    #####    #####    **
 **   ##     ##  ##   ##  ##  ##      ## ##   ##      ##   ##   ##  ##   ##   **
 **   ##  ## ##  ##   ##  ##  ##      ####     ###    ##   ######   ######    **
 **    ##  ###   ##   ##  ##  ##      ## ##      ##   ##   ##       ##        **
 **     #######   #####   ##   #####  ##  ##  ####    ##    #####   ##        **
 **           ##                                                    ##        **
 **                                                                           **
 **                                                ... make the atoms dance   **
 **                                                                           **
 **            Copyright (C) by CP2K developers group (2000 - 2019)           **
 **                                                                           **
 *******************************************************************************


 TOTAL NUMBERS AND MAXIMUM NUMBERS

  Total number of            - Atomic kinds:                                   2
                             - Atoms:                                        192
                             - Shell sets:                                   384
                             - Shells:                                       704
                             - Primitive Cartesian functions:                960
                             - Cartesian basis functions:                   1536
                             - Spherical basis functions:                   1472

  Maximum angular momentum of- Orbital basis functions:                        2
                             - Local part of the GTH pseudopotential:          2
                             - Non-local part of the GTH pseudopotential:      0


 SCF PARAMETERS         Density guess:                                    ATOMIC
                        --------------------------------------------------------
                        max_scf:                                             300
                        max_scf_history:                                       0
                        max_diis:                                              4
                        --------------------------------------------------------
                        eps_scf:                                        1.00E-07
                        eps_scf_history:                                0.00E+00
                        eps_diis:                                       1.00E-01
                        eps_eigval:                                     1.00E-05
                        --------------------------------------------------------
                        level_shift [a.u.]:                                 0.00
                        --------------------------------------------------------
                        Mixing method:                            BROYDEN_MIXING
                                                charge density mixing in g-space
                        --------------------------------------------------------
                        No outer SCF

 Number of electrons:                                                        512
 Number of occupied orbitals:                                                256
 Number of molecular orbitals:                                               256

 Number of orbital functions:                                               1472
 Number of independent orbital functions:                                   1472

 Extrapolation method: initial_guess


 SCF WAVEFUNCTION OPTIMIZATION

  Step     Update method      Time    Convergence         Total energy    Change
  ------------------------------------------------------------------------------
     1 NoMix/Diag. 0.40E+00   10.2     0.99824695     -1087.2155511475 -1.09E+03
     2 Broy./Diag. 0.40E+00   16.3     0.29360498     -1013.1969673341  7.40E+01
     3 Broy./Diag. 0.40E+00   17.4     0.02628310     -1094.6575100145 -8.15E+01
     4 Broy./Diag. 0.40E+00   18.1     0.02437140     -1094.2401285113  4.17E-01
     5 Broy./Diag. 0.40E+00   18.9     0.00265686     -1095.1441934067 -9.04E-01
     6 Broy./Diag. 0.40E+00   19.5     0.00368384     -1095.1795931041 -3.54E-02
     7 Broy./Diag. 0.40E+00   19.7     0.00227202     -1095.3311583319 -1.52E-01
     8 Broy./Diag. 0.40E+00   19.6     0.00328388     -1095.4495892795 -1.18E-01
     9 Broy./Diag. 0.40E+00   21.1     0.00342592     -1095.5301243556 -8.05E-02
    10 Broy./Diag. 0.40E+00   21.3     0.00160191     -1095.5604843219 -3.04E-02
    11 Broy./Diag. 0.40E+00   21.8     0.00137492     -1095.5358721366  2.46E-02
    12 Broy./Diag. 0.40E+00   21.2     0.00063900     -1095.5455582213 -9.69E-03
    13 Broy./Diag. 0.40E+00   21.9     0.00053841     -1095.5656679447 -2.01E-02
    14 Broy./Diag. 0.40E+00   22.0     0.00023262     -1095.5681200138 -2.45E-03
    15 Broy./Diag. 0.40E+00   24.6     0.00026288     -1095.5621294460  5.99E-03
    16 Broy./Diag. 0.40E+00   24.3     0.00014747     -1095.5632765156 -1.15E-03
    17 Broy./Diag. 0.40E+00   22.5     0.00005032     -1095.5645998122 -1.32E-03
    18 Broy./Diag. 0.40E+00   21.9     0.00004240     -1095.5647929785 -1.93E-04
    19 Broy./Diag. 0.40E+00   24.0     0.00002112     -1095.5647813282  1.17E-05
    20 Broy./Diag. 0.40E+00   23.8     0.00001684     -1095.5642332199  5.48E-04
    21 Broy./Diag. 0.40E+00   22.9     0.00001082     -1095.5644033953 -1.70E-04
    22 Broy./Diag. 0.40E+00   21.3     0.00000627     -1095.5645132582 -1.10E-04
    23 Broy./Diag. 0.40E+00   21.9     0.00000620     -1095.5644794201  3.38E-05
    24 Broy./Diag. 0.40E+00   20.9     0.00000140     -1095.5644191804  6.02E-05
    25 Broy./Diag. 0.40E+00   22.5     0.00000247     -1095.5643760711  4.31E-05
    26 Broy./Diag. 0.40E+00   21.6     0.00000123     -1095.5644130265 -3.70E-05
    27 Broy./Diag. 0.40E+00   27.4     0.00000073     -1095.5644307652 -1.77E-05
    28 Broy./Diag. 0.40E+00   23.7     0.00000060     -1095.5644276606  3.10E-06
    29 Broy./Diag. 0.40E+00   23.2     0.00000032     -1095.5644197612  7.90E-06
    30 Broy./Diag. 0.40E+00   21.8     0.00000027     -1095.5644187373  1.02E-06
    31 Broy./Diag. 0.40E+00   21.8     0.00000016     -1095.5644189664 -2.29E-07
    32 Broy./Diag. 0.40E+00   22.1     0.00000009     -1095.5644197118 -7.45E-07

  *** SCF run converged in    32 steps ***


  Electronic density on regular grids:       -511.9990699352        0.0009300648
  Core density on regular grids:              512.0000322850        0.0000322850
  Total charge density on r-space grids:        0.0009623499
  Total charge density g-space grids:           0.0009623499

  Overlap energy of the core charge distribution:               0.00000555773628
  Self energy of the core charge distribution:              -2838.21791979120962
  Core Hamiltonian energy:                                    821.46057785044127
  Hartree energy:                                            1185.95497044649642
  Exchange-correlation energy:                               -264.76205377527407

  Total energy:                                             -1095.56441971180993

 ENERGY| Total FORCE_EVAL ( QS ) energy (a.u.):            -1095.564422322074961


 ATOMIC FORCES in [a.u.]

 # Atom   Kind   Element          X              Y              Z
      1      1      O          -0.01091602     0.02340606    -0.13198252
      2      2      H          -0.01273622    -0.02309274    -0.01809684
      3      2      H           0.01550442    -0.00608082    -0.00364095
      4      1      O           0.03947679    -0.06071738    -0.01252479
      5      2      H          -0.01743788     0.01861211     0.00104798
      6      2      H           0.01446119    -0.04438767    -0.06916283
      7      1      O          -0.01423109     0.07818974     0.11719963
      8      2      H          -0.00320633    -0.07817100     0.02328748
      9      2      H           0.01284500    -0.01038739    -0.07012671
     10      1      O          -0.03528233     0.09131666    -0.02015002
     11      2      H          -0.00257163    -0.02851390     0.03970404
     12      2      H           0.01921349    -0.02334786    -0.02643938
     13      1      O           0.03457932    -0.00855449     0.05039039
     14      2      H          -0.01902427     0.01626866    -0.04809836
     15      2      H           0.00109789     0.02717981     0.01115911
     16      1      O           0.01083568    -0.09230434    -0.10340092
     17      2      H          -0.00469888     0.01689103     0.04118722
     18      2      H           0.02064326    -0.00518078     0.07197944
     19      1      O          -0.04909233     0.12295523    -0.01954892
     20      2      H           0.00271757    -0.07283738     0.01941603
     21      2      H           0.00519424    -0.00432503    -0.00163304
     22      1      O          -0.03771289    -0.12843211     0.03159883
     23      2      H           0.04281114    -0.00425732    -0.00101397
     24      2      H          -0.04738532     0.05372722     0.07441507
     25      1      O           0.01987703    -0.08713942     0.00484212
     26      2      H           0.02363022    -0.03848598     0.05953902
     27      2      H          -0.02865292     0.05578741     0.00492822
     28      1      O           0.01825498     0.05294200    -0.14827586
     29      2      H           0.04735600     0.01023819    -0.00193544
     30      2      H          -0.04636825     0.01652986     0.04434674
     31      1      O          -0.02841692    -0.00048117     0.11619274
     32      2      H           0.00395565     0.00903961     0.03609786
     33      2      H           0.01842283     0.05145951     0.04446448
     34      1      O           0.01408681     0.08740435     0.10823165
     35      2      H          -0.01814482     0.00792903    -0.00571858
     36      2      H          -0.01717279    -0.02066980    -0.04015190
     37      1      O           0.01380156     0.14146869     0.13851840
     38      2      H           0.03791682    -0.03483814     0.00717233
     39      2      H          -0.01877213    -0.05829027    -0.08253261
     40      1      O          -0.01406616    -0.05989342     0.02467181
     41      2      H           0.00555931    -0.00708912     0.03708661
     42      2      H           0.02653518     0.01636104     0.00522740
     43      1      O          -0.03001682     0.05843795    -0.08228674
     44      2      H           0.00178170    -0.06363546     0.02198607
     45      2      H           0.05289681     0.00380992     0.02029724
     46      1      O          -0.07188537    -0.03884223     0.10242896
     47      2      H           0.07751820     0.01049992    -0.12435789
     48      2      H          -0.00538075    -0.04614558     0.03636840
     49      1      O           0.04594685     0.06041331     0.04164370
     50      2      H          -0.00435433     0.02168824    -0.06492057
     51      2      H           0.00397282    -0.02738364    -0.01238627
     52      1      O          -0.02922133     0.04555363     0.00790670
     53      2      H           0.03179559    -0.02401244     0.02499695
     54      2      H          -0.02222678    -0.02254728    -0.03308047
     55      1      O           0.04834609    -0.04544179     0.04260348
     56      2      H          -0.02568798     0.05978878    -0.05406670
     57      2      H          -0.00819358     0.00172388     0.02318739
     58      1      O           0.02940607    -0.02342158    -0.09679277
     59      2      H          -0.01665972     0.02838804     0.01844264
     60      2      H          -0.01501262    -0.01441028     0.02004868
     61      1      O          -0.04756075     0.06228362     0.04358196
     62      2      H           0.00355700    -0.03330232     0.02210052
     63      2      H          -0.00447671     0.03071339    -0.01835313
     64      1      O          -0.03452455     0.07429099    -0.00969353
     65      2      H           0.05873298     0.04769837    -0.06031957
     66      2      H          -0.02408159    -0.00842446    -0.02762159
     67      1      O           0.01924386    -0.05183178    -0.14541465
     68      2      H          -0.02805679    -0.03516019     0.03416832
     69      2      H           0.03521074     0.01875624    -0.00673906
     70      1      O          -0.03169866    -0.03721304     0.08529071
     71      2      H          -0.03016031    -0.01665203     0.00172636
     72      2      H           0.00638731     0.01736971     0.03711018
     73      1      O           0.03392429     0.07216030    -0.00587165
     74      2      H           0.00308842    -0.00482653     0.06322320
     75      2      H          -0.01696036     0.02712989     0.01456026
     76      1      O           0.01559711    -0.05155917     0.01894994
     77      2      H          -0.00519712    -0.03193144    -0.04784059
     78      2      H          -0.03142056     0.03908231    -0.03980130
     79      1      O           0.03596999    -0.07265434     0.12982352
     80      2      H          -0.00167394    -0.02596068    -0.03663947
     81      2      H           0.00390593     0.03436578    -0.07521812
     82      1      O           0.01881151     0.00912612    -0.06729569
     83      2      H           0.00779003    -0.03044236     0.02307277
     84      2      H          -0.01393070     0.02344109    -0.05717486
     85      1      O          -0.00592751     0.04639412     0.00588459
     86      2      H           0.01972751    -0.01341996    -0.05577772
     87      2      H          -0.00555444     0.02602825     0.03817813
     88      1      O          -0.03814505    -0.06597445     0.04374299
     89      2      H           0.01496154    -0.02229860    -0.03946629
     90      2      H           0.00480548     0.01086598    -0.04166012
     91      1      O           0.04338012    -0.01947565     0.06534856
     92      2      H          -0.00964713     0.01703145    -0.01100811
     93      2      H          -0.02577067    -0.01337194    -0.01964960
     94      1      O          -0.04822024    -0.05434574    -0.06632590
     95      2      H           0.03237220    -0.03734663     0.02271868
     96      2      H          -0.00161630    -0.01397454    -0.00169776
     97      1      O          -0.09146944    -0.08718099    -0.12547481
     98      2      H           0.01244662     0.04243357     0.01869449
     99      2      H           0.02776038    -0.01895107    -0.00660023
    100      1      O           0.05120675    -0.01351075    -0.07185510
    101      2      H           0.00754272    -0.01247244    -0.03602094
    102      2      H          -0.01430367     0.02786894     0.02971450
    103      1      O          -0.01980129    -0.10261302    -0.03313414
    104      2      H           0.06890341     0.02053208    -0.02356053
    105      2      H          -0.01787416    -0.02855734    -0.02760512
    106      1      O          -0.05050197    -0.06029052     0.12571783
    107      2      H          -0.00028899    -0.02336285    -0.00339827
    108      2      H           0.02018664    -0.01071417    -0.02048896
    109      1      O          -0.05802762    -0.05080530    -0.09555092
    110      2      H           0.02917918     0.03091665     0.02103222
    111      2      H           0.02115272    -0.00734937     0.04455855
    112      1      O          -0.02115190     0.06809511     0.04958186
    113      2      H           0.01047422    -0.01886029     0.03535844
    114      2      H           0.00813845     0.00981433    -0.02698287
    115      1      O           0.00024130     0.09300081    -0.14415964
    116      2      H          -0.02977018     0.01753870     0.03761207
    117      2      H          -0.00719399    -0.03685261     0.00461753
    118      1      O          -0.05495955    -0.05571958     0.03367042
    119      2      H           0.04048691    -0.03561853     0.07769391
    120      2      H           0.02293314    -0.01733078    -0.01232545
    121      1      O           0.06747531     0.02655204    -0.00634051
    122      2      H           0.01037111     0.02013571     0.03938097
    123      2      H          -0.01577921    -0.00145845    -0.00220088
    124      1      O           0.04500374     0.04677910    -0.04291035
    125      2      H          -0.01507406     0.03863474     0.03236150
    126      2      H          -0.00658203    -0.01383092     0.04149360
    127      1      O           0.00844842     0.05475453    -0.07933102
    128      2      H          -0.02192873     0.00204319     0.01363493
    129      2      H           0.00089352    -0.01468596     0.05750235
    130      1      O           0.01830329     0.00376973     0.06043881
    131      2      H          -0.01261199    -0.03343011    -0.01793258
    132      2      H           0.01292183    -0.01095237     0.06598906
    133      1      O          -0.04373320    -0.01830370    -0.09094286
    134      2      H           0.00990610    -0.03776047     0.00232842
    135      2      H           0.00478775    -0.02613165    -0.02996276
    136      1      O          -0.12385271    -0.11796706    -0.04766517
    137      2      H           0.07129805     0.10623059     0.06662940
    138      2      H           0.01016492     0.01911717    -0.04161811
    139      1      O           0.03529068    -0.05048919     0.13035401
    140      2      H          -0.00753384    -0.00409135     0.03936554
    141      2      H           0.00441588     0.00166389    -0.08183203
    142      1      O          -0.00470353     0.07068640     0.11236257
    143      2      H           0.01415858     0.03230317    -0.05825253
    144      2      H          -0.00451367    -0.02482056    -0.05561094
    145      1      O          -0.03368165    -0.07830741     0.04799087
    146      2      H           0.02497564     0.01803153    -0.03354696
    147      2      H           0.03523351     0.04207740    -0.02661062
    148      1      O          -0.02185832    -0.06514781     0.10206359
    149      2      H           0.03333982     0.02231553     0.03436190
    150      2      H           0.00783403     0.00644217    -0.01568009
    151      1      O           0.03199117     0.01060630    -0.07541529
    152      2      H          -0.01050524     0.00397557     0.02923615
    153      2      H          -0.03330744     0.01192245     0.03578492
    154      1      O          -0.02167992    -0.07031711    -0.07218551
    155      2      H           0.01270308    -0.01582347     0.02452482
    156      2      H          -0.01481027     0.02179014    -0.01855062
    157      1      O          -0.01122117     0.05362746    -0.15778176
    158      2      H           0.05848586    -0.02977380     0.00694788
    159      2      H          -0.06078042    -0.00043752     0.02521620
    160      1      O           0.00775756     0.01339673    -0.12509743
    161      2      H           0.01970476    -0.04899047     0.03331691
    162      2      H           0.00362349    -0.03849621    -0.01287757
    163      1      O           0.00461841     0.02306068    -0.09634847
    164      2      H          -0.01814768     0.00944826    -0.00701139
    165      2      H           0.00519050     0.03071035     0.03982292
    166      1      O          -0.00281658     0.05655545    -0.08664340
    167      2      H           0.02283677    -0.00771619    -0.05431287
    168      2      H           0.00425954    -0.02184952     0.00580592
    169      1      O           0.03873258    -0.05022689     0.11049169
    170      2      H          -0.03820719     0.03314426     0.02902986
    171      2      H          -0.01608418    -0.02368633    -0.03772029
    172      1      O          -0.04559589    -0.05847674     0.01527707
    173      2      H           0.03600083    -0.01700420    -0.01418605
    174      2      H           0.01948466     0.03883873    -0.02298934
    175      1      O          -0.02788116    -0.10748028    -0.00641261
    176      2      H          -0.03863612     0.03134655     0.06450732
    177      2      H           0.03682552    -0.01306232     0.00283319
    178      1      O          -0.02089236    -0.04524909    -0.09883943
    179      2      H           0.06289655     0.02553387     0.01276231
    180      2      H          -0.02329740    -0.01650463    -0.04476601
    181      1      O           0.05778714     0.04764270     0.02597585
    182      2      H          -0.05323251    -0.04405930     0.09181952
    183      2      H          -0.00711133     0.04556014    -0.01877225
    184      1      O          -0.00183514     0.02776978     0.08014891
    185      2      H          -0.00248806    -0.01610466     0.02987223
    186      2      H          -0.00429762     0.00768773    -0.03178009
    187      1      O           0.07066413    -0.04192281     0.06539282
    188      2      H          -0.00588133    -0.03914113    -0.03812576
    189      2      H          -0.04933307    -0.00802313     0.01811642
    190      1      O          -0.01399921    -0.07134388     0.08044269
    191      2      H          -0.02694203     0.04170953    -0.01667375
    192      2      H          -0.00438743    -0.00890831    -0.02785771
 SUM OF ATOMIC FORCES           0.03722549    -0.61483701    -0.15390534     0.63489932

 -------------------------------------------------------------------------------
 -                                                                             -
 -                                DBCSR STATISTICS                             -
 -                                                                             -
 -------------------------------------------------------------------------------
 COUNTER                                    TOTAL       BLAS       SMM       ACC
 flops     5 x     5 x   256            833395200       0.0%    100.0%      0.0%
 flops    13 x     5 x   256           1047720960       0.0%    100.0%      0.0%
 flops     5 x    13 x   256           1059801600       0.0%    100.0%      0.0%
 flops    13 x    13 x   256           1467687936       0.0%    100.0%      0.0%
 flops inhomo. stacks                           0       0.0%      0.0%      0.0%
 flops total                         4.408606E+09       0.0%    100.0%      0.0%
 flops max/rank                      4.408606E+09       0.0%    100.0%      0.0%
 matmuls inhomo. stacks                         0       0.0%      0.0%      0.0%
 matmuls total                             145398       0.0%    100.0%      0.0%
 number of processed stacks                  2574       0.0%    100.0%      0.0%
 average stack size                                     0.0      56.5       0.0
 marketing flops                    36.609982E+09
 -------------------------------------------------------------------------------
 # multiplications                             33
 max memory usage/rank              25.807041E+09
 # max total images/rank                        1
 # max 3D layers                                1
 # MPI messages exchanged                       0
 MPI messages size (bytes):
  total size                         0.000000E+00
  min size                           0.000000E+00
  max size                           0.000000E+00
  average size                       0.000000E+00
 MPI breakdown and total messages size (bytes):
             size <=      128                   0                        0
       128 < size <=     8192                   0                        0
      8192 < size <=    32768                   0                        0
     32768 < size <=   131072                   0                        0
    131072 < size <=  4194304                   0                        0
   4194304 < size <= 16777216                   0                        0
  16777216 < size                               0                        0
 -------------------------------------------------------------------------------

 MEMORY| Estimated peak process memory [MiB]                               24614

 -------------------------------------------------------------------------------
 -                                                                             -
 -                           R E F E R E N C E S                               -
 -                                                                             -
 -------------------------------------------------------------------------------
 
 CP2K version 7.1, the CP2K developers group (2019).
 CP2K is freely available from https://www.cp2k.org/ .

 Schuett, Ole; Messmer, Peter; Hutter, Juerg; VandeVondele, Joost. 
 Electronic Structure Calculations on Graphics Processing Units, John
 Wiley & Sons, Ltd, 173-190 (2016). 
 GPU-Accelerated Sparse Matrix-Matrix Multiplication for
 Linear Scaling Density Functional Theory.
 https://dx.doi.org/10.1002/9781118670712.ch8

 Borstnik, U; VandeVondele, J; Weber, V; Hutter, J. 
 PARALLEL COMPUTING, 40 (5-6), 47-58 (2014). 
 Sparse matrix multiplication: The distributed block-compressed sparse
 row library.
 https://dx.doi.org/10.1016/j.parco.2014.03.012

 Hutter, J; Iannuzzi, M; Schiffmann, F; VandeVondele, J. 
 WIREs Comput Mol Sci., 4 (1), 15-25 (2014). 
 CP2K: atomistic simulations of condensed matter systems.
 https://dx.doi.org/10.1002/wcms.1159

 Krack, M. 
 THEORETICAL CHEMISTRY ACCOUNTS, 114 (1-3), 145-152 (2005). 
 Pseudopotentials for H to Kr optimized for gradient-corrected
 exchange-correlation functionals.
 https://dx.doi.org/10.1007/s00214-005-0655-y

 VandeVondele, J; Krack, M; Mohamed, F; Parrinello, M; Chassaing, T;
 Hutter, J. COMPUTER PHYSICS COMMUNICATIONS, 167 (2), 103-128 (2005). 
 QUICKSTEP: Fast and accurate density functional calculations using a
 mixed Gaussian and plane waves approach.
 https://dx.doi.org/10.1016/j.cpc.2004.12.014

 Frigo, M; Johnson, SG. 
 PROCEEDINGS OF THE IEEE, 93 (2), 216-231 (2005). 
 The design and implementation of FFTW3.
 https://dx.doi.org/10.1109/JPROC.2004.840301

 Hartwigsen, C; Goedecker, S; Hutter, J. 
 PHYSICAL REVIEW B, 58 (7), 3641-3662 (1998). 
 Relativistic separable dual-space Gaussian pseudopotentials from H to Rn.
 https://dx.doi.org/10.1103/PhysRevB.58.3641

 Lippert, G; Hutter, J; Parrinello, M. 
 MOLECULAR PHYSICS, 92 (3), 477-487 (1997). 
 A hybrid Gaussian and plane wave density functional scheme.
 https://dx.doi.org/10.1080/002689797170220

 Goedecker, S; Teter, M; Hutter, J. 
 PHYSICAL REVIEW B, 54 (3), 1703-1710 (1996). 
 Separable dual-space Gaussian pseudopotentials.
 https://dx.doi.org/10.1103/PhysRevB.54.1703


 -------------------------------------------------------------------------------
 -                                                                             -
 -                                T I M I N G                                  -
 -                                                                             -
 -------------------------------------------------------------------------------
 SUBROUTINE                       CALLS  ASD         SELF TIME        TOTAL TIME
                                MAXIMUM       AVERAGE  MAXIMUM  AVERAGE  MAXIMUM
 CP2K                                 1  1.0    0.625    0.625  710.657  710.657
 qs_forces                            1  2.0    0.000    0.000  699.506  699.506
 qs_energies                          1  3.0    0.000    0.000  695.751  695.751
 scf_env_do_scf                       1  4.0    0.000    0.000  684.105  684.105
 scf_env_do_scf_inner_loop           32  5.0    0.004    0.004  684.105  684.105
 gspace_mixing                       31  6.0    4.339    4.339  263.392  263.392
 broyden_mixing                      31  7.0  233.149  233.149  233.149  233.149
 qs_scf_new_mos                      32  6.0    0.001    0.001  203.406  203.406
 eigensolver                         32  7.0    0.003    0.003  200.124  200.124
 cp_fm_syevd                         32  8.0  136.371  136.371  136.489  136.489
 pw_transfer                        428  9.9    0.038    0.038  131.474  131.474
 fft_wrap_pw1pw2                    362 10.9    0.004    0.004  128.791  128.791
 rebuild_ks_matrix                   33  6.9    0.000    0.000  125.191  125.191
 qs_ks_build_kohn_sham_matrix        33  7.9    0.008    0.008  125.191  125.191
 qs_ks_update_qs_env                 32  6.0    0.000    0.000  121.592  121.592
 fft_wrap_pw1pw2_70                 164 11.2    9.815    9.815  119.170  119.170
 qs_rho_update_rho                   33  6.0    0.000    0.000   98.750   98.750
 calculate_rho_elec                  33  7.0   37.283   37.283   98.750   98.750
 cp_fm_cholesky_restore              96  8.0   63.505   63.505   63.505   63.505
 fft3d_s                            363 12.8   63.306   63.306   63.326   63.326
 density_rs2pw                       33  8.0    0.002    0.002   60.806   60.806
 pw_scatter_s                       196 13.1   44.069   44.069   44.069   44.069
 pw_poisson_solve                    33  8.9   36.837   36.837   39.787   39.787
 sum_up_and_integrate                33  8.9    2.030    2.030   35.681   35.681
 integrate_v_rspace                  33  9.9    2.167    2.167   33.651   33.651
 potential_pw2rs                     33 10.9    0.277    0.277   31.461   31.461
 qs_vxc_create                       33  8.9    0.001    0.001   17.741   17.741
 xc_vxc_pw_create                    33  9.9    4.618    4.618   17.740   17.740
 -------------------------------------------------------------------------------

 The number of warnings for this run is : 0
 
 -------------------------------------------------------------------------------
  **** **** ******  **  PROGRAM ENDED AT                 2020-05-21 08:43:41.872
 ***** ** ***  *** **   PROGRAM RAN ON                                   gnode39
 **    ****   ******    PROGRAM RAN BY                               mayank.modi
 ***** **    ** ** **   PROGRAM PROCESS ID                                 14113
  **** **  *******  **  PROGRAM STOPPED IN /home/mayank.modi/ab-initio-thermodyn
                                           amics-of-water/mayank/cp2k_energy_cal
                                           culations
