 DBCSR| CPU Multiplication driver                                           XSMM
 DBCSR| Multrec recursion limit                                              512
 DBCSR| Multiplication stack size                                           1000
 DBCSR| Maximum elements for images                                    UNLIMITED
 DBCSR| Multiplicative factor virtual images                                   1
 DBCSR| Use multiplication densification                                       T
 DBCSR| Multiplication size stacks                                             3


  **** **** ******  **  PROGRAM STARTED AT               2020-05-21 13:27:26.533
 ***** ** ***  *** **   PROGRAM STARTED ON                               gnode39
 **    ****   ******    PROGRAM STARTED BY                           mayank.modi
 ***** **    ** ** **   PROGRAM PROCESS ID                                 19148
  **** **  *******  **  PROGRAM STARTED IN /home/mayank.modi/ab-initio-thermodyn
                                           amics-of-water/mayank/cp2k_energy_cal
                                           culations

 CP2K| version string:                                          CP2K version 7.1
 CP2K| source code revision number:                                  git:e635599
 CP2K| cp2kflags: omp libint fftw3 libxc xsmm spglib                            
 CP2K| is freely available from                            https://www.cp2k.org/
 CP2K| Program compiled at                          Mon Dec 23 19:23:12 CET 2019
 CP2K| Program compiled on                                                pc9404
 CP2K| Program compiled for                                Linux-x86-64-gfortran
 CP2K| Data directory path                                        /opt/cp2k/data
 CP2K| Input file name                                              ./input94.in

 GLOBAL| Force Environment number                                              1
 GLOBAL| Basis set file name                                           BASIS_SET
 GLOBAL| Potential file name                                      GTH_POTENTIALS
 GLOBAL| MM Potential file name                                     MM_POTENTIAL
 GLOBAL| Coordinate file name                                      __STD_INPUT__
 GLOBAL| Method name                                                        CP2K
 GLOBAL| Project name                                                   H2O_bulk
 GLOBAL| Preferred FFT library                                             FFTW3
 GLOBAL| Preferred diagonalization lib.                                       SL
 GLOBAL| Run type                                                   ENERGY_FORCE
 GLOBAL| All-to-all communication in single precision                          F
 GLOBAL| FFTs using library dependent lengths                                  F
 GLOBAL| Global print level                                                  LOW
 GLOBAL| MPI I/O enabled                                                       T
 GLOBAL| Total number of message passing processes                             1
 GLOBAL| Number of threads for this process                                   20
 GLOBAL| This output is from process                                           0
 GLOBAL| CPU model name                Intel(R) Xeon(R) CPU E5-2640 v4 @ 2.40GHz
 GLOBAL| CPUID                                                              1002
 GLOBAL| Compiled for CPUID                                                    0

 MEMORY| system memory details [Kb]
 MEMORY|                        rank 0           min           max       average
 MEMORY| MemTotal            131898148     131898148     131898148     131898148
 MEMORY| MemFree              89639276      89639276      89639276      89639276
 MEMORY| Buffers               3187432       3187432       3187432       3187432
 MEMORY| Cached               30339600      30339600      30339600      30339600
 MEMORY| Slab                  3955916       3955916       3955916       3955916
 MEMORY| SReclaimable          3282348       3282348       3282348       3282348
 MEMORY| MemLikelyFree       126448656     126448656     126448656     126448656


 GENERATE|  Preliminary Number of Bonds generated:                             0
 GENERATE|  Achieved consistency in connectivity generation.

 *******************************************************************************
 *******************************************************************************
 **                                                                           **
 **     #####                         ##              ##                      **
 **    ##   ##            ##          ##              ##                      **
 **   ##     ##                       ##            ######                    **
 **   ##     ##  ##   ##  ##   #####  ##  ##   ####   ##    #####    #####    **
 **   ##     ##  ##   ##  ##  ##      ## ##   ##      ##   ##   ##  ##   ##   **
 **   ##  ## ##  ##   ##  ##  ##      ####     ###    ##   ######   ######    **
 **    ##  ###   ##   ##  ##  ##      ## ##      ##   ##   ##       ##        **
 **     #######   #####   ##   #####  ##  ##  ####    ##    #####   ##        **
 **           ##                                                    ##        **
 **                                                                           **
 **                                                ... make the atoms dance   **
 **                                                                           **
 **            Copyright (C) by CP2K developers group (2000 - 2019)           **
 **                                                                           **
 *******************************************************************************


 TOTAL NUMBERS AND MAXIMUM NUMBERS

  Total number of            - Atomic kinds:                                   2
                             - Atoms:                                        192
                             - Shell sets:                                   384
                             - Shells:                                       704
                             - Primitive Cartesian functions:                960
                             - Cartesian basis functions:                   1536
                             - Spherical basis functions:                   1472

  Maximum angular momentum of- Orbital basis functions:                        2
                             - Local part of the GTH pseudopotential:          2
                             - Non-local part of the GTH pseudopotential:      0


 SCF PARAMETERS         Density guess:                                    ATOMIC
                        --------------------------------------------------------
                        max_scf:                                             300
                        max_scf_history:                                       0
                        max_diis:                                              4
                        --------------------------------------------------------
                        eps_scf:                                        1.00E-07
                        eps_scf_history:                                0.00E+00
                        eps_diis:                                       1.00E-01
                        eps_eigval:                                     1.00E-05
                        --------------------------------------------------------
                        level_shift [a.u.]:                                 0.00
                        --------------------------------------------------------
                        Mixing method:                            BROYDEN_MIXING
                                                charge density mixing in g-space
                        --------------------------------------------------------
                        No outer SCF

 Number of electrons:                                                        512
 Number of occupied orbitals:                                                256
 Number of molecular orbitals:                                               256

 Number of orbital functions:                                               1472
 Number of independent orbital functions:                                   1472

 Extrapolation method: initial_guess


 SCF WAVEFUNCTION OPTIMIZATION

  Step     Update method      Time    Convergence         Total energy    Change
  ------------------------------------------------------------------------------
     1 NoMix/Diag. 0.40E+00   10.5     1.00025341     -1087.1609418446 -1.09E+03
     2 Broy./Diag. 0.40E+00   16.3     0.29634050     -1012.9501908979  7.42E+01
     3 Broy./Diag. 0.40E+00   18.0     0.02788928     -1094.8182666220 -8.19E+01
     4 Broy./Diag. 0.40E+00   18.3     0.02548993     -1094.2971476461  5.21E-01
     5 Broy./Diag. 0.40E+00   19.1     0.00246645     -1095.2056078811 -9.08E-01
     6 Broy./Diag. 0.40E+00   20.1     0.00390092     -1095.2378572200 -3.22E-02
     7 Broy./Diag. 0.40E+00   20.8     0.00213362     -1095.3849628558 -1.47E-01
     8 Broy./Diag. 0.40E+00   22.9     0.00280866     -1095.5072801509 -1.22E-01
     9 Broy./Diag. 0.40E+00   24.6     0.00278896     -1095.5677064800 -6.04E-02
    10 Broy./Diag. 0.40E+00   24.8     0.00124240     -1095.5975097362 -2.98E-02
    11 Broy./Diag. 0.40E+00   25.2     0.00119714     -1095.5645282332  3.30E-02
    12 Broy./Diag. 0.40E+00   24.8     0.00050706     -1095.5763252938 -1.18E-02
    13 Broy./Diag. 0.40E+00   24.8     0.00052868     -1095.5975380290 -2.12E-02
    14 Broy./Diag. 0.40E+00   24.5     0.00025748     -1095.6002227339 -2.68E-03
    15 Broy./Diag. 0.40E+00   25.7     0.00021371     -1095.5952467081  4.98E-03
    16 Broy./Diag. 0.40E+00   26.0     0.00012531     -1095.5963549737 -1.11E-03
    17 Broy./Diag. 0.40E+00   26.2     0.00005010     -1095.5975297423 -1.17E-03
    18 Broy./Diag. 0.40E+00   24.8     0.00004049     -1095.5977160826 -1.86E-04
    19 Broy./Diag. 0.40E+00   25.2     0.00001490     -1095.5975398124  1.76E-04
    20 Broy./Diag. 0.40E+00   25.3     0.00001424     -1095.5970676213  4.72E-04
    21 Broy./Diag. 0.40E+00   25.3     0.00001193     -1095.5972837483 -2.16E-04
    22 Broy./Diag. 0.40E+00   24.3     0.00000440     -1095.5974785607 -1.95E-04
    23 Broy./Diag. 0.40E+00   25.0     0.00000485     -1095.5975026183 -2.41E-05
    24 Broy./Diag. 0.40E+00   24.9     0.00000248     -1095.5974213474  8.13E-05
    25 Broy./Diag. 0.40E+00   25.0     0.00000229     -1095.5973673259  5.40E-05
    26 Broy./Diag. 0.40E+00   26.2     0.00000134     -1095.5973839916 -1.67E-05
    27 Broy./Diag. 0.40E+00   26.3     0.00000060     -1095.5973920208 -8.03E-06
    28 Broy./Diag. 0.40E+00   26.0     0.00000063     -1095.5973806275  1.14E-05
    29 Broy./Diag. 0.40E+00   25.2     0.00000044     -1095.5973739640  6.66E-06
    30 Broy./Diag. 0.40E+00   25.8     0.00000027     -1095.5973761888 -2.22E-06
    31 Broy./Diag. 0.40E+00   24.5     0.00000022     -1095.5973791686 -2.98E-06
    32 Broy./Diag. 0.40E+00   24.5     0.00000007     -1095.5973801766 -1.01E-06

  *** SCF run converged in    32 steps ***


  Electronic density on regular grids:       -512.0000219090       -0.0000219090
  Core density on regular grids:              511.9999287761       -0.0000712239
  Total charge density on r-space grids:       -0.0000931329
  Total charge density g-space grids:          -0.0000931329

  Overlap energy of the core charge distribution:               0.00000530669150
  Self energy of the core charge distribution:              -2838.21791979120962
  Core Hamiltonian energy:                                    821.38329912781398
  Hartree energy:                                            1185.93666953957518
  Exchange-correlation energy:                               -264.69943435949403

  Total energy:                                             -1095.59738017662289

 ENERGY| Total FORCE_EVAL ( QS ) energy (a.u.):            -1095.597381157868767


 ATOMIC FORCES in [a.u.]

 # Atom   Kind   Element          X              Y              Z
      1      1      O           0.00289542    -0.11725685    -0.08896709
      2      2      H          -0.01931944    -0.02579831    -0.04511092
      3      2      H           0.00713254     0.10663235     0.03466856
      4      1      O          -0.01006418    -0.09142964     0.10172174
      5      2      H           0.02281373     0.01337954    -0.01466182
      6      2      H          -0.02461499     0.02941680    -0.00507442
      7      1      O           0.03051174    -0.03705336    -0.09327275
      8      2      H          -0.02589657    -0.03777721    -0.02923576
      9      2      H          -0.00242811    -0.03012975    -0.03209723
     10      1      O          -0.05177210     0.02498766    -0.06879846
     11      2      H           0.00938191    -0.02879422     0.00506770
     12      2      H           0.02555293    -0.02236090     0.01184048
     13      1      O           0.01532171     0.01406541     0.02623835
     14      2      H           0.00731411     0.01355392    -0.03526649
     15      2      H           0.02856235     0.01580878     0.00801630
     16      1      O          -0.03903074    -0.04195794    -0.13299456
     17      2      H          -0.00674041    -0.00656909    -0.01691395
     18      2      H          -0.00397247    -0.02567942     0.03328143
     19      1      O          -0.05624785    -0.11228981    -0.09886590
     20      2      H           0.02630669     0.02766330     0.01916702
     21      2      H           0.01015965    -0.02515582    -0.01483165
     22      1      O          -0.02942216    -0.06005464     0.03417978
     23      2      H           0.03102289     0.02977984    -0.04222512
     24      2      H           0.00672894    -0.02611552    -0.01948491
     25      1      O          -0.02056085     0.15215113    -0.10271591
     26      2      H           0.02491660    -0.02816389     0.02901041
     27      2      H          -0.02607096    -0.06230128     0.05795072
     28      1      O          -0.07481889     0.07527156    -0.03233197
     29      2      H           0.02467280    -0.02480292    -0.05298507
     30      2      H           0.01187434    -0.02807059     0.05415223
     31      1      O           0.01318131     0.00111010     0.04595637
     32      2      H          -0.02414535     0.03331643    -0.01206669
     33      2      H           0.01432347     0.04106788    -0.03441241
     34      1      O           0.03669343     0.05061929     0.10828310
     35      2      H           0.00584109     0.02425582     0.04319875
     36      2      H          -0.04171703     0.06013482    -0.05500110
     37      1      O           0.02006518    -0.00716904    -0.01016573
     38      2      H           0.01503575     0.00062657     0.00771696
     39      2      H          -0.04726540     0.00460298     0.01297556
     40      1      O          -0.06108193    -0.05904487    -0.14052417
     41      2      H           0.03801328     0.00654125     0.03895356
     42      2      H           0.01724266     0.01571723    -0.03003815
     43      1      O          -0.06192397     0.00132045    -0.13165493
     44      2      H           0.02134572     0.03275443     0.06671777
     45      2      H           0.01841453     0.01689683     0.03393209
     46      1      O           0.03663861    -0.02999565     0.09319380
     47      2      H          -0.01788036    -0.00123241     0.01174610
     48      2      H          -0.01397861     0.02237241    -0.03033977
     49      1      O          -0.04266056    -0.03425267    -0.12511286
     50      2      H           0.01389425    -0.03889204    -0.02349197
     51      2      H           0.01441981    -0.01075431     0.04174325
     52      1      O           0.03725158    -0.10745932    -0.03371588
     53      2      H           0.01552832     0.04930354    -0.02761435
     54      2      H          -0.01811651    -0.02079730    -0.00500837
     55      1      O           0.02065077     0.07308343    -0.11205258
     56      2      H          -0.01245188    -0.03020481    -0.02440950
     57      2      H          -0.04982640    -0.04420954    -0.04697420
     58      1      O           0.04321099     0.01076263    -0.04424032
     59      2      H          -0.00203877    -0.00491912     0.01296251
     60      2      H          -0.01098035    -0.05061351    -0.07477658
     61      1      O          -0.02371667     0.09272047     0.01387397
     62      2      H           0.01199810    -0.04020489    -0.00010549
     63      2      H           0.01193956     0.01462629     0.02544366
     64      1      O          -0.00076271    -0.07112174    -0.04752970
     65      2      H           0.00358434     0.00574222    -0.00275532
     66      2      H           0.00052965     0.02271207    -0.05471667
     67      1      O          -0.03114040     0.06496764    -0.07623670
     68      2      H           0.03477336     0.06446854     0.04903719
     69      2      H          -0.01460613    -0.01184334     0.02519865
     70      1      O          -0.02350819    -0.01520252     0.08677526
     71      2      H           0.00030165     0.02705396     0.01474236
     72      2      H           0.02902260     0.02658732     0.01818323
     73      1      O          -0.01532407    -0.01819341    -0.07136475
     74      2      H          -0.00716116    -0.05450580    -0.00567365
     75      2      H           0.00815881    -0.04254082    -0.03017887
     76      1      O           0.05894037     0.04346787    -0.11295611
     77      2      H           0.00215759     0.01752961    -0.02677535
     78      2      H          -0.02087214    -0.01968176    -0.04210090
     79      1      O           0.00006723    -0.10507825    -0.06571201
     80      2      H           0.01032895     0.04842320    -0.03917579
     81      2      H           0.02034382    -0.01542116    -0.01951263
     82      1      O          -0.01627656    -0.06451928     0.00009084
     83      2      H          -0.02153438    -0.02875546    -0.02065609
     84      2      H          -0.01428769     0.00819521     0.01993238
     85      1      O           0.00369070    -0.06051967    -0.03612305
     86      2      H           0.02487247    -0.02227210    -0.00370078
     87      2      H          -0.02115268     0.05099549    -0.01088617
     88      1      O          -0.04156023    -0.04513037    -0.09048007
     89      2      H           0.02059102    -0.03093629     0.02926883
     90      2      H           0.01590419     0.02468321     0.01238453
     91      1      O           0.01424307    -0.07594066     0.07401371
     92      2      H           0.00529168     0.02043827     0.05388506
     93      2      H          -0.00922545     0.01292682     0.00966729
     94      1      O          -0.03765443    -0.03311029    -0.12401025
     95      2      H           0.01713957     0.02421792     0.02291980
     96      2      H           0.01490234    -0.00474309     0.05141650
     97      1      O          -0.00773023     0.07966958     0.03982169
     98      2      H          -0.01057458    -0.02158273     0.00399593
     99      2      H           0.02349209    -0.01877324    -0.03653603
    100      1      O          -0.02649077    -0.05864875     0.05897120
    101      2      H          -0.01983040     0.01360978     0.02715883
    102      2      H           0.02760803    -0.00589650     0.05819899
    103      1      O          -0.03620816    -0.01483429    -0.04247613
    104      2      H          -0.00315349     0.01195982     0.01617826
    105      2      H           0.02668691    -0.02593257    -0.03954022
    106      1      O           0.00901505    -0.06940197     0.05935891
    107      2      H           0.01595154    -0.01384343    -0.02406917
    108      2      H          -0.00066589     0.01635949     0.03630937
    109      1      O           0.00371215     0.05119032     0.07792606
    110      2      H           0.00532682    -0.01918673     0.03833912
    111      2      H           0.02130583    -0.02006621    -0.06120389
    112      1      O          -0.03094410    -0.08748677     0.04513061
    113      2      H          -0.00819681     0.02467577     0.02263772
    114      2      H           0.00179026    -0.01602984     0.01139943
    115      1      O           0.03097998     0.03060811     0.01547632
    116      2      H           0.00403401    -0.00451096     0.03882530
    117      2      H          -0.02679658    -0.02176017     0.03740107
    118      1      O          -0.00519592    -0.01052464     0.10296581
    119      2      H           0.03384909    -0.01938120     0.01823990
    120      2      H           0.01176086     0.00374192     0.01936451
    121      1      O           0.00400970     0.05960223    -0.07051636
    122      2      H          -0.01683143     0.01024562    -0.02088360
    123      2      H          -0.01339398     0.03227069     0.01585511
    124      1      O           0.03619704     0.05042467    -0.14736774
    125      2      H          -0.03671923     0.03696758     0.01253161
    126      2      H           0.01020439    -0.04151560     0.00163763
    127      1      O          -0.02813492     0.07725172     0.03702654
    128      2      H          -0.01491244    -0.02171784     0.04986139
    129      2      H           0.03852069    -0.00569622    -0.04760767
    130      1      O          -0.02330976    -0.04682140    -0.07168641
    131      2      H          -0.01620612    -0.00149677     0.01400942
    132      2      H           0.01047339     0.02262273    -0.03770893
    133      1      O          -0.05598849     0.01155113     0.00574668
    134      2      H           0.00046954    -0.01754841    -0.05670142
    135      2      H           0.03234464    -0.04741677    -0.03153153
    136      1      O          -0.06469523    -0.08630253    -0.06343882
    137      2      H           0.03215135     0.09949011    -0.02666732
    138      2      H           0.07344688    -0.07163730    -0.06653911
    139      1      O           0.07861524    -0.08835645     0.11569816
    140      2      H          -0.07015453     0.04222886    -0.01888780
    141      2      H           0.01669618    -0.04341591    -0.04646513
    142      1      O          -0.05414213    -0.00611718     0.05361610
    143      2      H           0.00659151    -0.00100096     0.02153540
    144      2      H           0.02322679    -0.00097836     0.01572745
    145      1      O          -0.05350995    -0.02471528    -0.07393141
    146      2      H          -0.01389228     0.03182542    -0.02974730
    147      2      H           0.01831337     0.04523139    -0.01199521
    148      1      O          -0.06210783    -0.01123501    -0.00988054
    149      2      H           0.01954875    -0.01593584    -0.02262762
    150      2      H           0.05719785     0.01550034    -0.02801416
    151      1      O          -0.06487172    -0.07805420    -0.02636379
    152      2      H           0.06067519    -0.00600427    -0.03015189
    153      2      H          -0.03374807     0.03239086    -0.03473416
    154      1      O           0.01081753     0.02723133    -0.11469973
    155      2      H           0.00640804    -0.00063287     0.04518783
    156      2      H          -0.02446783     0.02161534    -0.01773262
    157      1      O           0.01966521     0.05941848     0.01354734
    158      2      H          -0.00352183    -0.00420033     0.01131729
    159      2      H          -0.02262787    -0.01814891     0.01187320
    160      1      O          -0.01599572     0.06930990     0.08040323
    161      2      H          -0.02163777    -0.09999769     0.00505626
    162      2      H           0.00946494     0.01731231    -0.00306534
    163      1      O          -0.01649939     0.05555195    -0.10386927
    164      2      H           0.01226102     0.01608439    -0.03780573
    165      2      H           0.01082011    -0.00886833    -0.01010721
    166      1      O          -0.00902824     0.02556745     0.00924463
    167      2      H           0.00128291     0.01644540     0.05067865
    168      2      H           0.03558889    -0.04917683    -0.03809837
    169      1      O           0.04236050     0.05360628     0.05276102
    170      2      H           0.00086532     0.00716490    -0.00661321
    171      2      H          -0.00359630     0.00325679     0.01884194
    172      1      O          -0.01222798    -0.09062818     0.03086954
    173      2      H          -0.04927748     0.07194296     0.03349707
    174      2      H           0.02707798     0.00991596    -0.00536329
    175      1      O          -0.01907465    -0.07211915    -0.01500968
    176      2      H           0.04518898    -0.00636251    -0.03589037
    177      2      H          -0.01336363     0.08309924    -0.03240618
    178      1      O           0.10478633    -0.09174760     0.07327110
    179      2      H          -0.02131669    -0.05663493     0.01964612
    180      2      H          -0.05240466     0.07388040    -0.05004611
    181      1      O           0.08512529    -0.02118861    -0.08364226
    182      2      H          -0.07819774     0.02417657     0.01698053
    183      2      H           0.00418086     0.01264076     0.02424048
    184      1      O          -0.00402741     0.00998218    -0.06825623
    185      2      H          -0.00262397     0.01733290     0.02580118
    186      2      H           0.00133327     0.02679804    -0.03858321
    187      1      O          -0.08435346    -0.00692282     0.13609114
    188      2      H          -0.00131570    -0.02186513    -0.02324959
    189      2      H           0.07247574     0.01216455    -0.05757216
    190      1      O          -0.04327805    -0.09697837     0.04917782
    191      2      H          -0.02147652     0.01699373     0.00469429
    192      2      H           0.06066146     0.01192820     0.06523766
 SUM OF ATOMIC FORCES          -0.15226804    -0.66053458    -1.39849713     1.55411895

 -------------------------------------------------------------------------------
 -                                                                             -
 -                                DBCSR STATISTICS                             -
 -                                                                             -
 -------------------------------------------------------------------------------
 COUNTER                                    TOTAL       BLAS       SMM       ACC
 flops     5 x     5 x   256            859161600       0.0%    100.0%      0.0%
 flops    13 x     5 x   256           1074078720       0.0%    100.0%      0.0%
 flops     5 x    13 x   256           1085061120       0.0%    100.0%      0.0%
 flops    13 x    13 x   256           1516230144       0.0%    100.0%      0.0%
 flops inhomo. stacks                           0       0.0%      0.0%      0.0%
 flops total                         4.534532E+09       0.0%    100.0%      0.0%
 flops max/rank                      4.534532E+09       0.0%    100.0%      0.0%
 matmuls inhomo. stacks                         0       0.0%      0.0%      0.0%
 matmuls total                             149523       0.0%    100.0%      0.0%
 number of processed stacks                  2574       0.0%    100.0%      0.0%
 average stack size                                     0.0      58.1       0.0
 marketing flops                    36.609982E+09
 -------------------------------------------------------------------------------
 # multiplications                             33
 max memory usage/rank              25.807745E+09
 # max total images/rank                        1
 # max 3D layers                                1
 # MPI messages exchanged                       0
 MPI messages size (bytes):
  total size                         0.000000E+00
  min size                           0.000000E+00
  max size                           0.000000E+00
  average size                       0.000000E+00
 MPI breakdown and total messages size (bytes):
             size <=      128                   0                        0
       128 < size <=     8192                   0                        0
      8192 < size <=    32768                   0                        0
     32768 < size <=   131072                   0                        0
    131072 < size <=  4194304                   0                        0
   4194304 < size <= 16777216                   0                        0
  16777216 < size                               0                        0
 -------------------------------------------------------------------------------

 MEMORY| Estimated peak process memory [MiB]                               24614

 -------------------------------------------------------------------------------
 -                                                                             -
 -                           R E F E R E N C E S                               -
 -                                                                             -
 -------------------------------------------------------------------------------
 
 CP2K version 7.1, the CP2K developers group (2019).
 CP2K is freely available from https://www.cp2k.org/ .

 Schuett, Ole; Messmer, Peter; Hutter, Juerg; VandeVondele, Joost. 
 Electronic Structure Calculations on Graphics Processing Units, John
 Wiley & Sons, Ltd, 173-190 (2016). 
 GPU-Accelerated Sparse Matrix-Matrix Multiplication for
 Linear Scaling Density Functional Theory.
 https://dx.doi.org/10.1002/9781118670712.ch8

 Borstnik, U; VandeVondele, J; Weber, V; Hutter, J. 
 PARALLEL COMPUTING, 40 (5-6), 47-58 (2014). 
 Sparse matrix multiplication: The distributed block-compressed sparse
 row library.
 https://dx.doi.org/10.1016/j.parco.2014.03.012

 Hutter, J; Iannuzzi, M; Schiffmann, F; VandeVondele, J. 
 WIREs Comput Mol Sci., 4 (1), 15-25 (2014). 
 CP2K: atomistic simulations of condensed matter systems.
 https://dx.doi.org/10.1002/wcms.1159

 Krack, M. 
 THEORETICAL CHEMISTRY ACCOUNTS, 114 (1-3), 145-152 (2005). 
 Pseudopotentials for H to Kr optimized for gradient-corrected
 exchange-correlation functionals.
 https://dx.doi.org/10.1007/s00214-005-0655-y

 VandeVondele, J; Krack, M; Mohamed, F; Parrinello, M; Chassaing, T;
 Hutter, J. COMPUTER PHYSICS COMMUNICATIONS, 167 (2), 103-128 (2005). 
 QUICKSTEP: Fast and accurate density functional calculations using a
 mixed Gaussian and plane waves approach.
 https://dx.doi.org/10.1016/j.cpc.2004.12.014

 Frigo, M; Johnson, SG. 
 PROCEEDINGS OF THE IEEE, 93 (2), 216-231 (2005). 
 The design and implementation of FFTW3.
 https://dx.doi.org/10.1109/JPROC.2004.840301

 Hartwigsen, C; Goedecker, S; Hutter, J. 
 PHYSICAL REVIEW B, 58 (7), 3641-3662 (1998). 
 Relativistic separable dual-space Gaussian pseudopotentials from H to Rn.
 https://dx.doi.org/10.1103/PhysRevB.58.3641

 Lippert, G; Hutter, J; Parrinello, M. 
 MOLECULAR PHYSICS, 92 (3), 477-487 (1997). 
 A hybrid Gaussian and plane wave density functional scheme.
 https://dx.doi.org/10.1080/002689797170220

 Goedecker, S; Teter, M; Hutter, J. 
 PHYSICAL REVIEW B, 54 (3), 1703-1710 (1996). 
 Separable dual-space Gaussian pseudopotentials.
 https://dx.doi.org/10.1103/PhysRevB.54.1703


 -------------------------------------------------------------------------------
 -                                                                             -
 -                                T I M I N G                                  -
 -                                                                             -
 -------------------------------------------------------------------------------
 SUBROUTINE                       CALLS  ASD         SELF TIME        TOTAL TIME
                                MAXIMUM       AVERAGE  MAXIMUM  AVERAGE  MAXIMUM
 CP2K                                 1  1.0    0.625    0.625  782.786  782.786
 qs_forces                            1  2.0    0.000    0.000  771.784  771.784
 qs_energies                          1  3.0    0.000    0.000  766.601  766.601
 scf_env_do_scf                       1  4.0    0.000    0.000  755.053  755.053
 scf_env_do_scf_inner_loop           32  5.0    0.006    0.006  755.052  755.052
 gspace_mixing                       31  6.0    4.338    4.338  295.461  295.461
 broyden_mixing                      31  7.0  264.031  264.031  264.032  264.032
 qs_scf_new_mos                      32  6.0    0.001    0.001  212.123  212.123
 eigensolver                         32  7.0    0.004    0.004  200.781  200.781
 pw_transfer                        428  9.9    0.041    0.041  146.594  146.594
 fft_wrap_pw1pw2                    362 10.9    0.005    0.005  142.448  142.448
 rebuild_ks_matrix                   33  6.9    0.000    0.000  141.666  141.666
 qs_ks_build_kohn_sham_matrix        33  7.9    0.010    0.010  141.666  141.666
 qs_ks_update_qs_env                 32  6.0    0.000    0.000  137.291  137.291
 cp_fm_syevd                         32  8.0  135.905  135.905  136.065  136.065
 fft_wrap_pw1pw2_70                 164 11.2   10.497   10.497  128.704  128.704
 qs_rho_update_rho                   33  6.0    0.000    0.000  112.250  112.250
 calculate_rho_elec                  33  7.0   40.966   40.966  112.250  112.250
 fft3d_s                            363 12.8   71.222   71.222   71.231   71.231
 density_rs2pw                       33  8.0    0.003    0.003   70.068   70.068
 cp_fm_cholesky_restore              96  8.0   64.602   64.602   64.602   64.602
 sum_up_and_integrate                33  8.9    2.176    2.176   45.577   45.577
 pw_scatter_s                       196 13.1   44.731   44.731   44.731   44.731
 integrate_v_rspace                  33  9.9    2.768    2.768   43.402   43.402
 pw_poisson_solve                    33  8.9   36.507   36.507   40.910   40.910
 potential_pw2rs                     33 10.9    0.276    0.276   36.944   36.944
 qs_vxc_create                       33  8.9    0.001    0.001   20.829   20.829
 xc_vxc_pw_create                    33  9.9    4.643    4.643   20.828   20.828
 xc_rho_set_and_dset_create          33 10.9    0.001    0.001   16.185   16.185
 -------------------------------------------------------------------------------

 The number of warnings for this run is : 0
 
 -------------------------------------------------------------------------------
  **** **** ******  **  PROGRAM ENDED AT                 2020-05-21 13:40:29.410
 ***** ** ***  *** **   PROGRAM RAN ON                                   gnode39
 **    ****   ******    PROGRAM RAN BY                               mayank.modi
 ***** **    ** ** **   PROGRAM PROCESS ID                                 19148
  **** **  *******  **  PROGRAM STOPPED IN /home/mayank.modi/ab-initio-thermodyn
                                           amics-of-water/mayank/cp2k_energy_cal
                                           culations
