 DBCSR| CPU Multiplication driver                                           XSMM
 DBCSR| Multrec recursion limit                                              512
 DBCSR| Multiplication stack size                                           1000
 DBCSR| Maximum elements for images                                    UNLIMITED
 DBCSR| Multiplicative factor virtual images                                   1
 DBCSR| Use multiplication densification                                       T
 DBCSR| Multiplication size stacks                                             3


  **** **** ******  **  PROGRAM STARTED AT               2020-05-21 05:17:26.361
 ***** ** ***  *** **   PROGRAM STARTED ON                               gnode39
 **    ****   ******    PROGRAM STARTED BY                           mayank.modi
 ***** **    ** ** **   PROGRAM PROCESS ID                                 29243
  **** **  *******  **  PROGRAM STARTED IN /home/mayank.modi/ab-initio-thermodyn
                                           amics-of-water/mayank/cp2k_energy_cal
                                           culations

 CP2K| version string:                                          CP2K version 7.1
 CP2K| source code revision number:                                  git:e635599
 CP2K| cp2kflags: omp libint fftw3 libxc xsmm spglib                            
 CP2K| is freely available from                            https://www.cp2k.org/
 CP2K| Program compiled at                          Mon Dec 23 19:23:12 CET 2019
 CP2K| Program compiled on                                                pc9404
 CP2K| Program compiled for                                Linux-x86-64-gfortran
 CP2K| Data directory path                                        /opt/cp2k/data
 CP2K| Input file name                                              ./input56.in

 GLOBAL| Force Environment number                                              1
 GLOBAL| Basis set file name                                           BASIS_SET
 GLOBAL| Potential file name                                      GTH_POTENTIALS
 GLOBAL| MM Potential file name                                     MM_POTENTIAL
 GLOBAL| Coordinate file name                                      __STD_INPUT__
 GLOBAL| Method name                                                        CP2K
 GLOBAL| Project name                                                   H2O_bulk
 GLOBAL| Preferred FFT library                                             FFTW3
 GLOBAL| Preferred diagonalization lib.                                       SL
 GLOBAL| Run type                                                   ENERGY_FORCE
 GLOBAL| All-to-all communication in single precision                          F
 GLOBAL| FFTs using library dependent lengths                                  F
 GLOBAL| Global print level                                                  LOW
 GLOBAL| MPI I/O enabled                                                       T
 GLOBAL| Total number of message passing processes                             1
 GLOBAL| Number of threads for this process                                   20
 GLOBAL| This output is from process                                           0
 GLOBAL| CPU model name                Intel(R) Xeon(R) CPU E5-2640 v4 @ 2.40GHz
 GLOBAL| CPUID                                                              1002
 GLOBAL| Compiled for CPUID                                                    0

 MEMORY| system memory details [Kb]
 MEMORY|                        rank 0           min           max       average
 MEMORY| MemTotal            131898148     131898148     131898148     131898148
 MEMORY| MemFree              88704192      88704192      88704192      88704192
 MEMORY| Buffers               3187096       3187096       3187096       3187096
 MEMORY| Cached               34124368      34124368      34124368      34124368
 MEMORY| Slab                  3915348       3915348       3915348       3915348
 MEMORY| SReclaimable          3255692       3255692       3255692       3255692
 MEMORY| MemLikelyFree       129271348     129271348     129271348     129271348


 GENERATE|  Preliminary Number of Bonds generated:                             0
 GENERATE|  Achieved consistency in connectivity generation.

 *******************************************************************************
 *******************************************************************************
 **                                                                           **
 **     #####                         ##              ##                      **
 **    ##   ##            ##          ##              ##                      **
 **   ##     ##                       ##            ######                    **
 **   ##     ##  ##   ##  ##   #####  ##  ##   ####   ##    #####    #####    **
 **   ##     ##  ##   ##  ##  ##      ## ##   ##      ##   ##   ##  ##   ##   **
 **   ##  ## ##  ##   ##  ##  ##      ####     ###    ##   ######   ######    **
 **    ##  ###   ##   ##  ##  ##      ## ##      ##   ##   ##       ##        **
 **     #######   #####   ##   #####  ##  ##  ####    ##    #####   ##        **
 **           ##                                                    ##        **
 **                                                                           **
 **                                                ... make the atoms dance   **
 **                                                                           **
 **            Copyright (C) by CP2K developers group (2000 - 2019)           **
 **                                                                           **
 *******************************************************************************


 TOTAL NUMBERS AND MAXIMUM NUMBERS

  Total number of            - Atomic kinds:                                   2
                             - Atoms:                                        192
                             - Shell sets:                                   384
                             - Shells:                                       704
                             - Primitive Cartesian functions:                960
                             - Cartesian basis functions:                   1536
                             - Spherical basis functions:                   1472

  Maximum angular momentum of- Orbital basis functions:                        2
                             - Local part of the GTH pseudopotential:          2
                             - Non-local part of the GTH pseudopotential:      0


 SCF PARAMETERS         Density guess:                                    ATOMIC
                        --------------------------------------------------------
                        max_scf:                                             300
                        max_scf_history:                                       0
                        max_diis:                                              4
                        --------------------------------------------------------
                        eps_scf:                                        1.00E-07
                        eps_scf_history:                                0.00E+00
                        eps_diis:                                       1.00E-01
                        eps_eigval:                                     1.00E-05
                        --------------------------------------------------------
                        level_shift [a.u.]:                                 0.00
                        --------------------------------------------------------
                        Mixing method:                            BROYDEN_MIXING
                                                charge density mixing in g-space
                        --------------------------------------------------------
                        No outer SCF

 Number of electrons:                                                        512
 Number of occupied orbitals:                                                256
 Number of molecular orbitals:                                               256

 Number of orbital functions:                                               1472
 Number of independent orbital functions:                                   1472

 Extrapolation method: initial_guess


 SCF WAVEFUNCTION OPTIMIZATION

  Step     Update method      Time    Convergence         Total energy    Change
  ------------------------------------------------------------------------------
     1 NoMix/Diag. 0.40E+00   10.2     0.98333069     -1087.4837321919 -1.09E+03
     2 Broy./Diag. 0.40E+00   15.3     0.29394666     -1013.2801727652  7.42E+01
     3 Broy./Diag. 0.40E+00   16.7     0.02962422     -1094.5227969156 -8.12E+01
     4 Broy./Diag. 0.40E+00   17.1     0.02699922     -1094.3595702679  1.63E-01
     5 Broy./Diag. 0.40E+00   17.6     0.00266510     -1095.2529720094 -8.93E-01
     6 Broy./Diag. 0.40E+00   17.5     0.00438866     -1095.2878198348 -3.48E-02
     7 Broy./Diag. 0.40E+00   18.2     0.00253418     -1095.4295250052 -1.42E-01
     8 Broy./Diag. 0.40E+00   19.5     0.00380006     -1095.5587894425 -1.29E-01
     9 Broy./Diag. 0.40E+00   20.1     0.00297157     -1095.6361047916 -7.73E-02
    10 Broy./Diag. 0.40E+00   21.6     0.00162274     -1095.6624767711 -2.64E-02
    11 Broy./Diag. 0.40E+00   21.2     0.00129025     -1095.6393002891  2.32E-02
    12 Broy./Diag. 0.40E+00   20.8     0.00051070     -1095.6497131642 -1.04E-02
    13 Broy./Diag. 0.40E+00   22.4     0.00049212     -1095.6701946995 -2.05E-02
    14 Broy./Diag. 0.40E+00   20.8     0.00019747     -1095.6748299344 -4.64E-03
    15 Broy./Diag. 0.40E+00   22.7     0.00026246     -1095.6689020212  5.93E-03
    16 Broy./Diag. 0.40E+00   21.5     0.00015318     -1095.6695871297 -6.85E-04
    17 Broy./Diag. 0.40E+00   21.9     0.00006421     -1095.6704483406 -8.61E-04
    18 Broy./Diag. 0.40E+00   21.8     0.00003745     -1095.6703686470  7.97E-05
    19 Broy./Diag. 0.40E+00   21.9     0.00001511     -1095.6702382405  1.30E-04
    20 Broy./Diag. 0.40E+00   22.1     0.00001616     -1095.6698756691  3.63E-04
    21 Broy./Diag. 0.40E+00   21.8     0.00001195     -1095.6702196983 -3.44E-04
    22 Broy./Diag. 0.40E+00   22.5     0.00000462     -1095.6704351413 -2.15E-04
    23 Broy./Diag. 0.40E+00   21.1     0.00000498     -1095.6704066396  2.85E-05
    24 Broy./Diag. 0.40E+00   22.6     0.00000235     -1095.6703506976  5.59E-05
    25 Broy./Diag. 0.40E+00   23.5     0.00000319     -1095.6703143511  3.63E-05
    26 Broy./Diag. 0.40E+00   25.1     0.00000113     -1095.6703069491  7.40E-06
    27 Broy./Diag. 0.40E+00   24.3     0.00000072     -1095.6703121247 -5.18E-06
    28 Broy./Diag. 0.40E+00   23.0     0.00000069     -1095.6703076284  4.50E-06
    29 Broy./Diag. 0.40E+00   21.4     0.00000044     -1095.6703096080 -1.98E-06
    30 Broy./Diag. 0.40E+00   22.3     0.00000030     -1095.6703138021 -4.19E-06
    31 Broy./Diag. 0.40E+00   21.0     0.00000027     -1095.6703186246 -4.82E-06
    32 Broy./Diag. 0.40E+00   22.1     0.00000010     -1095.6703217603 -3.14E-06

  *** SCF run converged in    32 steps ***


  Electronic density on regular grids:       -511.9998136555        0.0001863445
  Core density on regular grids:              512.0001251642        0.0001251642
  Total charge density on r-space grids:        0.0003115087
  Total charge density g-space grids:           0.0003115087

  Overlap energy of the core charge distribution:               0.00000528305650
  Self energy of the core charge distribution:              -2838.21791979120962
  Core Hamiltonian energy:                                    821.97908107062517
  Hartree energy:                                            1185.48990114216645
  Exchange-correlation energy:                               -264.92138946495913

  Total energy:                                             -1095.67032176032080

 ENERGY| Total FORCE_EVAL ( QS ) energy (a.u.):            -1095.670324688236633


 ATOMIC FORCES in [a.u.]

 # Atom   Kind   Element          X              Y              Z
      1      1      O           0.03396878    -0.11501503    -0.05669094
      2      2      H          -0.00903712     0.02740202    -0.01070918
      3      2      H          -0.00299155    -0.01841435     0.00935228
      4      1      O          -0.00791863     0.03798682     0.06480167
      5      2      H          -0.00623646     0.03164542    -0.04088977
      6      2      H          -0.00168530     0.01159001     0.02946758
      7      1      O          -0.02871308    -0.00192814     0.11140817
      8      2      H           0.01437506    -0.04090901     0.00719594
      9      2      H          -0.00050438    -0.00000860     0.02481783
     10      1      O          -0.01122894     0.03925977    -0.05090228
     11      2      H           0.05524295    -0.02513460     0.04484548
     12      2      H           0.00258696    -0.00147207     0.00850723
     13      1      O           0.02061375    -0.01515942    -0.15918227
     14      2      H           0.01881150     0.04878065     0.00020440
     15      2      H          -0.00458873    -0.04119168     0.08518746
     16      1      O          -0.01577969    -0.04218935     0.05506279
     17      2      H           0.01051397    -0.00538800     0.01319372
     18      2      H           0.00317820    -0.02012811     0.00253470
     19      1      O           0.03421502    -0.03466752    -0.08396287
     20      2      H           0.00112551     0.01282632     0.02962041
     21      2      H           0.00129574     0.02932360     0.02453316
     22      1      O          -0.05961552     0.05591244    -0.11035400
     23      2      H           0.07148219     0.04433779     0.01977048
     24      2      H          -0.00571088    -0.02880657    -0.01560661
     25      1      O          -0.01179685     0.07343118    -0.11871278
     26      2      H           0.00668720    -0.01506905     0.05373418
     27      2      H          -0.01719038    -0.00065452    -0.02836598
     28      1      O           0.04886114     0.02200294     0.06833530
     29      2      H          -0.02124411    -0.02754149     0.01116625
     30      2      H          -0.00035714     0.01991760     0.03573797
     31      1      O          -0.01689718     0.05031823    -0.11746580
     32      2      H           0.04771350     0.01491844    -0.04019394
     33      2      H          -0.00900225     0.00294121    -0.03545920
     34      1      O           0.09968105     0.06585245     0.10701318
     35      2      H          -0.00070492    -0.00140713    -0.02083752
     36      2      H          -0.07330395     0.04435541    -0.04095087
     37      1      O           0.00698867     0.01619358    -0.06354340
     38      2      H           0.00748951    -0.02663548    -0.01610907
     39      2      H          -0.01837426    -0.02046594    -0.00661068
     40      1      O          -0.01416048    -0.08018150    -0.13826578
     41      2      H           0.02214800    -0.00150001    -0.01787489
     42      2      H           0.02890915     0.03505732    -0.03304592
     43      1      O          -0.07230709    -0.07839933    -0.10413416
     44      2      H           0.04131255    -0.00338255     0.01992609
     45      2      H          -0.00492407     0.07304412     0.00073737
     46      1      O           0.00155018     0.04685095    -0.01298586
     47      2      H          -0.01540028     0.01087337    -0.03858338
     48      2      H          -0.01321120     0.02758683    -0.02449189
     49      1      O          -0.03567034     0.09055029    -0.00559643
     50      2      H          -0.00857842     0.00200618    -0.02846683
     51      2      H           0.03266600    -0.03940479    -0.03523404
     52      1      O           0.01625183    -0.08151543     0.06888775
     53      2      H          -0.01018988    -0.00054937     0.01817296
     54      2      H           0.00891311     0.02752321     0.00938401
     55      1      O           0.06038435     0.03367632    -0.00044980
     56      2      H           0.01048588     0.02736339     0.01605253
     57      2      H          -0.03652469     0.01307035     0.00742083
     58      1      O           0.04851748     0.02765071     0.04018148
     59      2      H          -0.08356156     0.02560737     0.04389887
     60      2      H          -0.00310238    -0.01082265     0.01472793
     61      1      O           0.00671703     0.02306514    -0.01662883
     62      2      H           0.00272813    -0.02831822    -0.04145318
     63      2      H          -0.00779888    -0.03206438    -0.00865422
     64      1      O          -0.00124606    -0.07313584    -0.06202951
     65      2      H           0.02933802     0.00413876    -0.01979155
     66      2      H          -0.03584600    -0.03553312    -0.00098981
     67      1      O           0.00370379    -0.08929577     0.08466782
     68      2      H          -0.00410384    -0.00499475    -0.00758893
     69      2      H           0.02175852     0.04147259    -0.02166506
     70      1      O           0.03498929    -0.01786760    -0.00734260
     71      2      H          -0.03023026    -0.02264605    -0.00142332
     72      2      H           0.00891349     0.00610969    -0.03620684
     73      1      O          -0.04656619     0.03073607    -0.03838073
     74      2      H           0.05872224    -0.06779230     0.04311208
     75      2      H          -0.03092241     0.01015080    -0.02731788
     76      1      O          -0.00944117     0.08885507     0.07484918
     77      2      H          -0.00081828    -0.05261503    -0.01435337
     78      2      H           0.00360366     0.01344317     0.04918386
     79      1      O           0.01124898    -0.11972628    -0.11126150
     80      2      H           0.00359519     0.01910013     0.03439129
     81      2      H           0.00436746     0.03681866     0.01214609
     82      1      O          -0.05458798     0.06972063    -0.08016542
     83      2      H           0.00804603    -0.00841693    -0.04775375
     84      2      H           0.01227147     0.01725557     0.04262639
     85      1      O          -0.05319108     0.02554487     0.02408098
     86      2      H           0.05420051     0.01500366    -0.04126909
     87      2      H          -0.03329701     0.05210681     0.04535529
     88      1      O          -0.02170706    -0.02878347    -0.08062103
     89      2      H           0.00306667    -0.00377477    -0.03590238
     90      2      H           0.00768150    -0.01482207    -0.00210598
     91      1      O          -0.00362215    -0.02866001     0.11642856
     92      2      H           0.00297045     0.05135623    -0.01641195
     93      2      H          -0.02327302    -0.03715356    -0.03259124
     94      1      O           0.02031625    -0.08273998     0.06925937
     95      2      H           0.00923532     0.02394272     0.02716400
     96      2      H          -0.01063562     0.02145399    -0.02981841
     97      1      O          -0.04401023     0.04328171    -0.09713877
     98      2      H           0.02931742     0.00358725    -0.03729356
     99      2      H           0.02556015     0.00338164     0.03393833
    100      1      O           0.07470750     0.09069274     0.03781212
    101      2      H           0.00095928     0.00964264    -0.02406015
    102      2      H          -0.07377088     0.00466262     0.05606639
    103      1      O          -0.03878133    -0.09439139    -0.09438058
    104      2      H           0.02594958     0.00290313     0.01751680
    105      2      H           0.01511233    -0.00268633    -0.00478569
    106      1      O          -0.01520737     0.00761453     0.14095688
    107      2      H           0.01176772     0.06214141    -0.09085207
    108      2      H           0.04003851    -0.08974671     0.03002613
    109      1      O          -0.02451681     0.06588404    -0.00147199
    110      2      H           0.03293400     0.03161099     0.01533044
    111      2      H          -0.00866421     0.00599772    -0.01014408
    112      1      O          -0.00099606     0.03871863     0.05940259
    113      2      H           0.00659182     0.02141423     0.06989090
    114      2      H          -0.00218450     0.00167386    -0.04113367
    115      1      O          -0.01532535     0.09996473    -0.00111741
    116      2      H          -0.03292315     0.00945300     0.02246362
    117      2      H          -0.00043072    -0.02673155     0.07446428
    118      1      O          -0.02285312     0.05222490    -0.05148086
    119      2      H           0.00755331    -0.01633477     0.06036581
    120      2      H           0.00859471    -0.01492848    -0.04384483
    121      1      O           0.05406968     0.04605305    -0.11537762
    122      2      H           0.00987983     0.02157812     0.00344815
    123      2      H          -0.02215296    -0.00462860     0.03394941
    124      1      O          -0.03156077     0.00525425     0.07213539
    125      2      H          -0.01659674     0.02259144    -0.02583376
    126      2      H           0.01824594    -0.03650562    -0.00536937
    127      1      O           0.03641453     0.08475349     0.08673860
    128      2      H          -0.01710264     0.01301288    -0.03030371
    129      2      H          -0.00581416    -0.03514778    -0.00813799
    130      1      O           0.00986551    -0.07373645    -0.03313620
    131      2      H          -0.00373649    -0.02198638    -0.01759386
    132      2      H          -0.01487358     0.04491993     0.04246010
    133      1      O          -0.07052427     0.05100467     0.05550320
    134      2      H           0.11802793    -0.00247880    -0.01473308
    135      2      H          -0.00355638     0.00244850    -0.07619630
    136      1      O           0.00479443    -0.07480666    -0.07038316
    137      2      H          -0.00581579     0.01355020     0.01391682
    138      2      H          -0.04777679    -0.03252093     0.00966073
    139      1      O           0.10122568    -0.02518431     0.06390774
    140      2      H          -0.06381706    -0.02697962     0.03893609
    141      2      H          -0.00451737    -0.02432156    -0.02836639
    142      1      O          -0.00053163    -0.01209881    -0.04371459
    143      2      H          -0.00323723     0.01676914    -0.05233564
    144      2      H          -0.02983429    -0.06673923    -0.00255632
    145      1      O          -0.11086198     0.07066776     0.08668383
    146      2      H           0.09598665    -0.05279690    -0.00516404
    147      2      H          -0.01718787    -0.03410894     0.01177544
    148      1      O          -0.09034277    -0.03045872     0.04868323
    149      2      H           0.02030153     0.04815504     0.05069210
    150      2      H           0.02844389     0.01584369    -0.09365694
    151      1      O           0.02946393     0.07046951     0.08567792
    152      2      H           0.00655043    -0.02986674    -0.03965144
    153      2      H          -0.01134382     0.01889472    -0.01089473
    154      1      O          -0.00954995    -0.03098093     0.06486637
    155      2      H          -0.00378238    -0.03710148     0.03236576
    156      2      H          -0.01382784    -0.00255632    -0.02919184
    157      1      O          -0.01190549    -0.05696349     0.07366555
    158      2      H           0.02407837    -0.02587515     0.02531215
    159      2      H          -0.02052421     0.00536827    -0.00621195
    160      1      O           0.02804855     0.01040104     0.02366497
    161      2      H           0.01155439    -0.00238279    -0.00190639
    162      2      H           0.00187067    -0.01395548     0.05649904
    163      1      O           0.03155688     0.13178453    -0.06090273
    164      2      H          -0.02550129    -0.03355342     0.00144498
    165      2      H          -0.00537003    -0.08536472     0.07420573
    166      1      O          -0.05007357     0.05365311     0.05169236
    167      2      H           0.02387632     0.00626733    -0.06021700
    168      2      H          -0.00627618    -0.00064256     0.01314275
    169      1      O           0.01023762     0.02799764    -0.06934727
    170      2      H          -0.01869555    -0.03426670    -0.05579550
    171      2      H           0.02767825    -0.00216376    -0.00491199
    172      1      O          -0.03656801    -0.10191399     0.14384447
    173      2      H           0.00280577     0.01978604     0.01344143
    174      2      H           0.06745617     0.05309010    -0.06109398
    175      1      O          -0.07000327    -0.09265536    -0.09755118
    176      2      H           0.02610805    -0.01477689     0.02805367
    177      2      H           0.03207456     0.03193547     0.07187039
    178      1      O          -0.00966219     0.09429521    -0.02745445
    179      2      H          -0.00048556     0.01507791     0.03400785
    180      2      H           0.00682906    -0.06173360    -0.07989350
    181      1      O           0.04690418    -0.06138056    -0.12123524
    182      2      H          -0.06159631     0.00896703    -0.03375321
    183      2      H          -0.00173395    -0.03542312    -0.01839508
    184      1      O          -0.02161069     0.05076750    -0.12696182
    185      2      H           0.01631157    -0.03088106    -0.03199481
    186      2      H          -0.00813616    -0.01097127     0.03433831
    187      1      O           0.12873853     0.00002985    -0.01979001
    188      2      H          -0.01249616    -0.01401584    -0.03281354
    189      2      H          -0.11684371     0.07236797    -0.00398400
    190      1      O          -0.00589859    -0.07622846    -0.11913129
    191      2      H           0.01394015     0.02310197     0.03465596
    192      2      H           0.03850175     0.04805310     0.06726446
 SUM OF ATOMIC FORCES           0.06518224     0.21263704    -0.63516421     0.67297608

 -------------------------------------------------------------------------------
 -                                                                             -
 -                                DBCSR STATISTICS                             -
 -                                                                             -
 -------------------------------------------------------------------------------
 COUNTER                                    TOTAL       BLAS       SMM       ACC
 flops     5 x     5 x   256            862963200       0.0%    100.0%      0.0%
 flops     5 x    13 x   256           1089454080       0.0%    100.0%      0.0%
 flops    13 x     5 x   256           1101534720       0.0%    100.0%      0.0%
 flops    13 x    13 x   256           1539073536       0.0%    100.0%      0.0%
 flops inhomo. stacks                           0       0.0%      0.0%      0.0%
 flops total                         4.593026E+09       0.0%    100.0%      0.0%
 flops max/rank                      4.593026E+09       0.0%    100.0%      0.0%
 matmuls inhomo. stacks                         0       0.0%      0.0%      0.0%
 matmuls total                             151041       0.0%    100.0%      0.0%
 number of processed stacks                  2574       0.0%    100.0%      0.0%
 average stack size                                     0.0      58.7       0.0
 marketing flops                    36.609982E+09
 -------------------------------------------------------------------------------
 # multiplications                             33
 max memory usage/rank              25.807999E+09
 # max total images/rank                        1
 # max 3D layers                                1
 # MPI messages exchanged                       0
 MPI messages size (bytes):
  total size                         0.000000E+00
  min size                           0.000000E+00
  max size                           0.000000E+00
  average size                       0.000000E+00
 MPI breakdown and total messages size (bytes):
             size <=      128                   0                        0
       128 < size <=     8192                   0                        0
      8192 < size <=    32768                   0                        0
     32768 < size <=   131072                   0                        0
    131072 < size <=  4194304                   0                        0
   4194304 < size <= 16777216                   0                        0
  16777216 < size                               0                        0
 -------------------------------------------------------------------------------

 MEMORY| Estimated peak process memory [MiB]                               24615

 -------------------------------------------------------------------------------
 -                                                                             -
 -                           R E F E R E N C E S                               -
 -                                                                             -
 -------------------------------------------------------------------------------
 
 CP2K version 7.1, the CP2K developers group (2019).
 CP2K is freely available from https://www.cp2k.org/ .

 Schuett, Ole; Messmer, Peter; Hutter, Juerg; VandeVondele, Joost. 
 Electronic Structure Calculations on Graphics Processing Units, John
 Wiley & Sons, Ltd, 173-190 (2016). 
 GPU-Accelerated Sparse Matrix-Matrix Multiplication for
 Linear Scaling Density Functional Theory.
 https://dx.doi.org/10.1002/9781118670712.ch8

 Borstnik, U; VandeVondele, J; Weber, V; Hutter, J. 
 PARALLEL COMPUTING, 40 (5-6), 47-58 (2014). 
 Sparse matrix multiplication: The distributed block-compressed sparse
 row library.
 https://dx.doi.org/10.1016/j.parco.2014.03.012

 Hutter, J; Iannuzzi, M; Schiffmann, F; VandeVondele, J. 
 WIREs Comput Mol Sci., 4 (1), 15-25 (2014). 
 CP2K: atomistic simulations of condensed matter systems.
 https://dx.doi.org/10.1002/wcms.1159

 Krack, M. 
 THEORETICAL CHEMISTRY ACCOUNTS, 114 (1-3), 145-152 (2005). 
 Pseudopotentials for H to Kr optimized for gradient-corrected
 exchange-correlation functionals.
 https://dx.doi.org/10.1007/s00214-005-0655-y

 VandeVondele, J; Krack, M; Mohamed, F; Parrinello, M; Chassaing, T;
 Hutter, J. COMPUTER PHYSICS COMMUNICATIONS, 167 (2), 103-128 (2005). 
 QUICKSTEP: Fast and accurate density functional calculations using a
 mixed Gaussian and plane waves approach.
 https://dx.doi.org/10.1016/j.cpc.2004.12.014

 Frigo, M; Johnson, SG. 
 PROCEEDINGS OF THE IEEE, 93 (2), 216-231 (2005). 
 The design and implementation of FFTW3.
 https://dx.doi.org/10.1109/JPROC.2004.840301

 Hartwigsen, C; Goedecker, S; Hutter, J. 
 PHYSICAL REVIEW B, 58 (7), 3641-3662 (1998). 
 Relativistic separable dual-space Gaussian pseudopotentials from H to Rn.
 https://dx.doi.org/10.1103/PhysRevB.58.3641

 Lippert, G; Hutter, J; Parrinello, M. 
 MOLECULAR PHYSICS, 92 (3), 477-487 (1997). 
 A hybrid Gaussian and plane wave density functional scheme.
 https://dx.doi.org/10.1080/002689797170220

 Goedecker, S; Teter, M; Hutter, J. 
 PHYSICAL REVIEW B, 54 (3), 1703-1710 (1996). 
 Separable dual-space Gaussian pseudopotentials.
 https://dx.doi.org/10.1103/PhysRevB.54.1703


 -------------------------------------------------------------------------------
 -                                                                             -
 -                                T I M I N G                                  -
 -                                                                             -
 -------------------------------------------------------------------------------
 SUBROUTINE                       CALLS  ASD         SELF TIME        TOTAL TIME
                                MAXIMUM       AVERAGE  MAXIMUM  AVERAGE  MAXIMUM
 CP2K                                 1  1.0    0.645    0.645  691.497  691.497
 qs_forces                            1  2.0    0.000    0.000  680.176  680.176
 qs_energies                          1  3.0    0.000    0.000  676.323  676.323
 scf_env_do_scf                       1  4.0    0.000    0.000  664.819  664.819
 scf_env_do_scf_inner_loop           32  5.0    0.004    0.004  664.819  664.819
 gspace_mixing                       31  6.0    4.334    4.334  251.981  251.981
 broyden_mixing                      31  7.0  222.109  222.109  222.109  222.109
 qs_scf_new_mos                      32  6.0    0.001    0.001  203.621  203.621
 eigensolver                         32  7.0    0.003    0.003  200.447  200.447
 cp_fm_syevd                         32  8.0  135.504  135.504  135.616  135.616
 pw_transfer                        428  9.9    0.038    0.038  129.822  129.822
 fft_wrap_pw1pw2                    362 10.9    0.004    0.004  127.730  127.730
 rebuild_ks_matrix                   33  6.9    0.000    0.000  121.131  121.131
 qs_ks_build_kohn_sham_matrix        33  7.9    0.007    0.007  121.131  121.131
 fft_wrap_pw1pw2_70                 164 11.2    9.558    9.558  118.282  118.282
 qs_ks_update_qs_env                 32  6.0    0.000    0.000  117.440  117.440
 qs_rho_update_rho                   33  6.0    0.000    0.000   94.645   94.645
 calculate_rho_elec                  33  7.0   34.148   34.148   94.645   94.645
 cp_fm_cholesky_restore              96  8.0   64.691   64.691   64.691   64.691
 fft3d_s                            363 12.8   63.250   63.250   63.266   63.266
 density_rs2pw                       33  8.0    0.003    0.003   59.779   59.779
 pw_scatter_s                       196 13.1   43.243   43.243   43.243   43.243
 pw_poisson_solve                    33  8.9   36.052   36.052   38.409   38.409
 sum_up_and_integrate                33  8.9    2.101    2.101   35.068   35.068
 integrate_v_rspace                  33  9.9    2.338    2.338   32.967   32.967
 potential_pw2rs                     33 10.9    0.276    0.276   30.605   30.605
 qs_vxc_create                       33  8.9    0.001    0.001   17.096   17.096
 xc_vxc_pw_create                    33  9.9    4.616    4.616   17.096   17.096
 -------------------------------------------------------------------------------

 The number of warnings for this run is : 0
 
 -------------------------------------------------------------------------------
  **** **** ******  **  PROGRAM ENDED AT                 2020-05-21 05:28:57.981
 ***** ** ***  *** **   PROGRAM RAN ON                                   gnode39
 **    ****   ******    PROGRAM RAN BY                               mayank.modi
 ***** **    ** ** **   PROGRAM PROCESS ID                                 29243
  **** **  *******  **  PROGRAM STOPPED IN /home/mayank.modi/ab-initio-thermodyn
                                           amics-of-water/mayank/cp2k_energy_cal
                                           culations
