 DBCSR| CPU Multiplication driver                                           XSMM
 DBCSR| Multrec recursion limit                                              512
 DBCSR| Multiplication stack size                                           1000
 DBCSR| Maximum elements for images                                    UNLIMITED
 DBCSR| Multiplicative factor virtual images                                   1
 DBCSR| Use multiplication densification                                       T
 DBCSR| Multiplication size stacks                                             3


  **** **** ******  **  PROGRAM STARTED AT               2020-05-21 02:55:39.983
 ***** ** ***  *** **   PROGRAM STARTED ON                               gnode39
 **    ****   ******    PROGRAM STARTED BY                           mayank.modi
 ***** **    ** ** **   PROGRAM PROCESS ID                                 27414
  **** **  *******  **  PROGRAM STARTED IN /home/mayank.modi/ab-initio-thermodyn
                                           amics-of-water/mayank/cp2k_energy_cal
                                           culations

 CP2K| version string:                                          CP2K version 7.1
 CP2K| source code revision number:                                  git:e635599
 CP2K| cp2kflags: omp libint fftw3 libxc xsmm spglib                            
 CP2K| is freely available from                            https://www.cp2k.org/
 CP2K| Program compiled at                          Mon Dec 23 19:23:12 CET 2019
 CP2K| Program compiled on                                                pc9404
 CP2K| Program compiled for                                Linux-x86-64-gfortran
 CP2K| Data directory path                                        /opt/cp2k/data
 CP2K| Input file name                                              ./input45.in

 GLOBAL| Force Environment number                                              1
 GLOBAL| Basis set file name                                           BASIS_SET
 GLOBAL| Potential file name                                      GTH_POTENTIALS
 GLOBAL| MM Potential file name                                     MM_POTENTIAL
 GLOBAL| Coordinate file name                                      __STD_INPUT__
 GLOBAL| Method name                                                        CP2K
 GLOBAL| Project name                                                   H2O_bulk
 GLOBAL| Preferred FFT library                                             FFTW3
 GLOBAL| Preferred diagonalization lib.                                       SL
 GLOBAL| Run type                                                   ENERGY_FORCE
 GLOBAL| All-to-all communication in single precision                          F
 GLOBAL| FFTs using library dependent lengths                                  F
 GLOBAL| Global print level                                                  LOW
 GLOBAL| MPI I/O enabled                                                       T
 GLOBAL| Total number of message passing processes                             1
 GLOBAL| Number of threads for this process                                   20
 GLOBAL| This output is from process                                           0
 GLOBAL| CPU model name                Intel(R) Xeon(R) CPU E5-2640 v4 @ 2.40GHz
 GLOBAL| CPUID                                                              1002
 GLOBAL| Compiled for CPUID                                                    0

 MEMORY| system memory details [Kb]
 MEMORY|                        rank 0           min           max       average
 MEMORY| MemTotal            131898148     131898148     131898148     131898148
 MEMORY| MemFree              88710332      88710332      88710332      88710332
 MEMORY| Buffers               3187096       3187096       3187096       3187096
 MEMORY| Cached               34123828      34123828      34123828      34123828
 MEMORY| Slab                  3915200       3915200       3915200       3915200
 MEMORY| SReclaimable          3255660       3255660       3255660       3255660
 MEMORY| MemLikelyFree       129276916     129276916     129276916     129276916


 GENERATE|  Preliminary Number of Bonds generated:                             0
 GENERATE|  Achieved consistency in connectivity generation.

 *******************************************************************************
 *******************************************************************************
 **                                                                           **
 **     #####                         ##              ##                      **
 **    ##   ##            ##          ##              ##                      **
 **   ##     ##                       ##            ######                    **
 **   ##     ##  ##   ##  ##   #####  ##  ##   ####   ##    #####    #####    **
 **   ##     ##  ##   ##  ##  ##      ## ##   ##      ##   ##   ##  ##   ##   **
 **   ##  ## ##  ##   ##  ##  ##      ####     ###    ##   ######   ######    **
 **    ##  ###   ##   ##  ##  ##      ## ##      ##   ##   ##       ##        **
 **     #######   #####   ##   #####  ##  ##  ####    ##    #####   ##        **
 **           ##                                                    ##        **
 **                                                                           **
 **                                                ... make the atoms dance   **
 **                                                                           **
 **            Copyright (C) by CP2K developers group (2000 - 2019)           **
 **                                                                           **
 *******************************************************************************


 TOTAL NUMBERS AND MAXIMUM NUMBERS

  Total number of            - Atomic kinds:                                   2
                             - Atoms:                                        192
                             - Shell sets:                                   384
                             - Shells:                                       704
                             - Primitive Cartesian functions:                960
                             - Cartesian basis functions:                   1536
                             - Spherical basis functions:                   1472

  Maximum angular momentum of- Orbital basis functions:                        2
                             - Local part of the GTH pseudopotential:          2
                             - Non-local part of the GTH pseudopotential:      0


 SCF PARAMETERS         Density guess:                                    ATOMIC
                        --------------------------------------------------------
                        max_scf:                                             300
                        max_scf_history:                                       0
                        max_diis:                                              4
                        --------------------------------------------------------
                        eps_scf:                                        1.00E-07
                        eps_scf_history:                                0.00E+00
                        eps_diis:                                       1.00E-01
                        eps_eigval:                                     1.00E-05
                        --------------------------------------------------------
                        level_shift [a.u.]:                                 0.00
                        --------------------------------------------------------
                        Mixing method:                            BROYDEN_MIXING
                                                charge density mixing in g-space
                        --------------------------------------------------------
                        No outer SCF

 Number of electrons:                                                        512
 Number of occupied orbitals:                                                256
 Number of molecular orbitals:                                               256

 Number of orbital functions:                                               1472
 Number of independent orbital functions:                                   1472

 Extrapolation method: initial_guess


 SCF WAVEFUNCTION OPTIMIZATION

  Step     Update method      Time    Convergence         Total energy    Change
  ------------------------------------------------------------------------------
     1 NoMix/Diag. 0.40E+00   10.3     0.96893219     -1087.5141488978 -1.09E+03
     2 Broy./Diag. 0.40E+00   14.7     0.29523898     -1014.2134716513  7.33E+01
     3 Broy./Diag. 0.40E+00   16.0     0.02721215     -1094.8209347849 -8.06E+01
     4 Broy./Diag. 0.40E+00   16.2     0.02711685     -1094.4374782386  3.83E-01
     5 Broy./Diag. 0.40E+00   16.5     0.00264044     -1095.3305452838 -8.93E-01
     6 Broy./Diag. 0.40E+00   17.7     0.00531189     -1095.3563633304 -2.58E-02
     7 Broy./Diag. 0.40E+00   19.0     0.00289098     -1095.4887588797 -1.32E-01
     8 Broy./Diag. 0.40E+00   19.2     0.00391362     -1095.6039886982 -1.15E-01
     9 Broy./Diag. 0.40E+00   23.5     0.00318133     -1095.6897099027 -8.57E-02
    10 Broy./Diag. 0.40E+00   24.1     0.00167974     -1095.7124557113 -2.27E-02
    11 Broy./Diag. 0.40E+00   26.2     0.00138659     -1095.6884007048  2.41E-02
    12 Broy./Diag. 0.40E+00   24.6     0.00064375     -1095.6946879293 -6.29E-03
    13 Broy./Diag. 0.40E+00   23.6     0.00054811     -1095.7135520557 -1.89E-02
    14 Broy./Diag. 0.40E+00   22.4     0.00025863     -1095.7174548306 -3.90E-03
    15 Broy./Diag. 0.40E+00   21.8     0.00039554     -1095.7102106535  7.24E-03
    16 Broy./Diag. 0.40E+00   24.0     0.00015777     -1095.7108696259 -6.59E-04
    17 Broy./Diag. 0.40E+00   24.2     0.00009162     -1095.7118648393 -9.95E-04
    18 Broy./Diag. 0.40E+00   23.3     0.00003910     -1095.7110932705  7.72E-04
    19 Broy./Diag. 0.40E+00   24.0     0.00001883     -1095.7110381308  5.51E-05
    20 Broy./Diag. 0.40E+00   25.6     0.00002113     -1095.7107829875  2.55E-04
    21 Broy./Diag. 0.40E+00   29.0     0.00001131     -1095.7111478749 -3.65E-04
    22 Broy./Diag. 0.40E+00   30.1     0.00000653     -1095.7112876124 -1.40E-04
    23 Broy./Diag. 0.40E+00   25.8     0.00000563     -1095.7112222859  6.53E-05
    24 Broy./Diag. 0.40E+00   25.8     0.00000370     -1095.7111457667  7.65E-05
    25 Broy./Diag. 0.40E+00   24.7     0.00000404     -1095.7110961140  4.97E-05
    26 Broy./Diag. 0.40E+00   23.9     0.00000197     -1095.7110774921  1.86E-05
    27 Broy./Diag. 0.40E+00   24.4     0.00000082     -1095.7110811359 -3.64E-06
    28 Broy./Diag. 0.40E+00   24.8     0.00000084     -1095.7110792099  1.93E-06
    29 Broy./Diag. 0.40E+00   24.4     0.00000049     -1095.7110782922  9.18E-07
    30 Broy./Diag. 0.40E+00   24.6     0.00000047     -1095.7110764699  1.82E-06
    31 Broy./Diag. 0.40E+00   24.5     0.00000035     -1095.7110769212 -4.51E-07
    32 Broy./Diag. 0.40E+00   24.8     0.00000015     -1095.7110784926 -1.57E-06
    33 Broy./Diag. 0.40E+00   24.4     0.00000012     -1095.7110790033 -5.11E-07
    34 Broy./Diag. 0.40E+00   25.1     0.00000005     -1095.7110801994 -1.20E-06

  *** SCF run converged in    34 steps ***


  Electronic density on regular grids:       -511.9997357497        0.0002642503
  Core density on regular grids:              512.0001966856        0.0001966856
  Total charge density on r-space grids:        0.0004609359
  Total charge density g-space grids:           0.0004609359

  Overlap energy of the core charge distribution:               0.00000458478549
  Self energy of the core charge distribution:              -2838.21791979120962
  Core Hamiltonian energy:                                    821.20048018055024
  Hartree energy:                                            1186.03599876122098
  Exchange-correlation energy:                               -264.72964393476025

  Total energy:                                             -1095.71108019941312

 ENERGY| Total FORCE_EVAL ( QS ) energy (a.u.):            -1095.711081270732393


 ATOMIC FORCES in [a.u.]

 # Atom   Kind   Element          X              Y              Z
      1      1      O           0.03101062    -0.08735352    -0.08877293
      2      2      H           0.01506904    -0.01798301    -0.01975203
      3      2      H          -0.01069598    -0.00312910     0.02219738
      4      1      O           0.00222208     0.10003674    -0.09095493
      5      2      H           0.00501776    -0.00894358    -0.03595280
      6      2      H           0.02102069    -0.06334221    -0.05231218
      7      1      O          -0.02039211    -0.06091333    -0.03595663
      8      2      H           0.00591159    -0.02347650    -0.03814113
      9      2      H           0.00829636    -0.01854230    -0.03992972
     10      1      O          -0.05262391    -0.08351702     0.02633959
     11      2      H           0.02225842    -0.01693540     0.04015481
     12      2      H           0.04727665    -0.02908670    -0.02958664
     13      1      O          -0.00056859    -0.08985821    -0.01932688
     14      2      H          -0.00612864    -0.02200975     0.03838613
     15      2      H          -0.02700034     0.01489362    -0.00396762
     16      1      O           0.04774175     0.00443328     0.06371442
     17      2      H           0.01213419    -0.03774272     0.01553463
     18      2      H          -0.02549767    -0.01567991     0.04018129
     19      1      O           0.05226208    -0.02215884    -0.05017158
     20      2      H          -0.03081207     0.00564943     0.03932938
     21      2      H          -0.00280025    -0.00157259     0.00053941
     22      1      O          -0.01726148    -0.09103704    -0.10365500
     23      2      H           0.04599525     0.02042520    -0.04561830
     24      2      H          -0.00494687    -0.03783874     0.05429009
     25      1      O          -0.00275885    -0.01513753    -0.12746384
     26      2      H          -0.00183173    -0.01594370    -0.00259652
     27      2      H           0.03827141     0.00733318     0.00790684
     28      1      O           0.01163993     0.06038502     0.04809423
     29      2      H          -0.00033845    -0.05183382     0.02240473
     30      2      H          -0.01888246     0.03002037    -0.00851392
     31      1      O           0.03425957    -0.05912876    -0.14368098
     32      2      H          -0.05676100    -0.00528197     0.01043687
     33      2      H          -0.00477603     0.03066908     0.02905832
     34      1      O          -0.01525812    -0.03012284    -0.08552505
     35      2      H          -0.00386149    -0.02056832     0.01103050
     36      2      H          -0.01038751     0.02329801     0.04036928
     37      1      O           0.05351022     0.06125580    -0.07441205
     38      2      H          -0.01263044    -0.02061456     0.01915650
     39      2      H          -0.03326433    -0.02296683    -0.01997509
     40      1      O          -0.03855357     0.04162596     0.06765922
     41      2      H          -0.00111216     0.00423926     0.00767576
     42      2      H           0.01361050     0.01011687    -0.03470403
     43      1      O          -0.01701584    -0.05094183     0.05998056
     44      2      H           0.01753905    -0.03538461    -0.05018735
     45      2      H          -0.00062761    -0.01370104     0.04196888
     46      1      O          -0.02806799    -0.04462344    -0.14873249
     47      2      H           0.09386170     0.06561968    -0.00861876
     48      2      H          -0.06043967     0.05998410     0.05055504
     49      1      O           0.00347418     0.04649074    -0.06128274
     50      2      H           0.00453057     0.02096758    -0.03555186
     51      2      H           0.02437387    -0.02071615    -0.03431935
     52      1      O           0.02581108     0.01485651    -0.06046315
     53      2      H          -0.00008772     0.02237471     0.03008274
     54      2      H          -0.06047040     0.04149314     0.00968705
     55      1      O           0.02163049     0.03193439     0.10604886
     56      2      H           0.00468261     0.01522063     0.01763696
     57      2      H          -0.00072226    -0.01598979     0.00678712
     58      1      O           0.04538982     0.09006070     0.00655339
     59      2      H          -0.01342286     0.02027656    -0.02572439
     60      2      H          -0.03077368    -0.01995588    -0.00263729
     61      1      O          -0.02910562     0.09383529     0.04480315
     62      2      H           0.01683605    -0.01971235    -0.02492823
     63      2      H           0.01573016    -0.05268703    -0.01027822
     64      1      O          -0.00517378    -0.04861587     0.12672962
     65      2      H           0.03154885    -0.00982852     0.01239997
     66      2      H           0.00640165     0.00453154    -0.02683706
     67      1      O          -0.02901958     0.04497140    -0.13053101
     68      2      H          -0.01854603    -0.04017889     0.05787088
     69      2      H           0.03528744     0.07851685     0.01845968
     70      1      O           0.01442430    -0.09550649    -0.03951571
     71      2      H          -0.00150761     0.00250099     0.02964466
     72      2      H          -0.02339827     0.04815441    -0.01194952
     73      1      O          -0.02662548    -0.04855863    -0.08096322
     74      2      H           0.01863301    -0.02137883    -0.03422195
     75      2      H           0.00096216    -0.01126246     0.01742296
     76      1      O          -0.03824526     0.07797027     0.08363703
     77      2      H          -0.00098100    -0.02034021     0.02927865
     78      2      H           0.00675701    -0.01474264     0.03171592
     79      1      O          -0.04023734    -0.05103591     0.06870789
     80      2      H           0.01560986    -0.02473440     0.00526755
     81      2      H          -0.01084686     0.07029791    -0.01912592
     82      1      O           0.00417760    -0.07747555     0.00479694
     83      2      H           0.01562535     0.00842184    -0.02100047
     84      2      H          -0.01758215    -0.01098841    -0.03896674
     85      1      O           0.02742271    -0.02976356     0.12794687
     86      2      H           0.02428338    -0.00976210     0.00289065
     87      2      H          -0.02829550     0.03220073    -0.01982263
     88      1      O          -0.01280808     0.05484733     0.11334581
     89      2      H           0.01050367    -0.03046714    -0.03611752
     90      2      H           0.00569260     0.00536689    -0.00853113
     91      1      O           0.03406488     0.07466710    -0.00018088
     92      2      H          -0.01754090     0.02224445     0.06217075
     93      2      H          -0.05044889    -0.04286446    -0.05887948
     94      1      O           0.00653516    -0.02790532     0.02655841
     95      2      H           0.03190529     0.01459325     0.03478332
     96      2      H           0.01970439    -0.06294691     0.00820825
     97      1      O          -0.00954417     0.00829818    -0.11251664
     98      2      H           0.01616005    -0.00085742     0.00525659
     99      2      H           0.02119375    -0.02983353     0.03672426
    100      1      O          -0.02582367    -0.04644657    -0.08520097
    101      2      H           0.05127995    -0.05236158     0.03402709
    102      2      H          -0.00483698     0.02168202     0.04584731
    103      1      O          -0.01332633    -0.00533294     0.04328642
    104      2      H           0.00108671    -0.04470149     0.01447430
    105      2      H           0.01808378     0.07292896    -0.02071987
    106      1      O           0.02677559    -0.06538268     0.01660317
    107      2      H          -0.01215765     0.01180713    -0.05172466
    108      2      H           0.01437371    -0.03533079    -0.02323619
    109      1      O          -0.04139702    -0.00537397     0.11810823
    110      2      H          -0.00234503    -0.02780226    -0.02365511
    111      2      H           0.00664905    -0.03102541    -0.04383522
    112      1      O          -0.03413649    -0.06372928    -0.02862018
    113      2      H           0.00745909     0.02899122     0.03509110
    114      2      H           0.02025855    -0.02244910    -0.02633021
    115      1      O          -0.00181466    -0.12853668    -0.12568461
    116      2      H          -0.02119858    -0.00600548    -0.00726527
    117      2      H          -0.01076389     0.05931028     0.06491285
    118      1      O          -0.00452654     0.06791075    -0.03787076
    119      2      H          -0.00024361     0.02453535     0.01970966
    120      2      H           0.04297130    -0.02773455    -0.06465339
    121      1      O          -0.01056304     0.03341660    -0.01656304
    122      2      H          -0.00131369     0.00171615    -0.00597405
    123      2      H          -0.01523949     0.02441967    -0.02240436
    124      1      O           0.02201538     0.09776212     0.05391561
    125      2      H          -0.00395768    -0.02624923    -0.00365333
    126      2      H           0.00975431    -0.01322677     0.06105283
    127      1      O           0.06399642    -0.08990548    -0.06058614
    128      2      H          -0.02757856     0.00936896     0.01559418
    129      2      H          -0.01185243    -0.01482476     0.00527536
    130      1      O          -0.03490066    -0.05444604    -0.04674009
    131      2      H          -0.03306678     0.01913798     0.00408962
    132      2      H           0.04948950    -0.05374223     0.03109545
    133      1      O          -0.10211289    -0.07151161    -0.03180979
    134      2      H           0.06077887     0.03809011     0.03101481
    135      2      H          -0.00811865    -0.00950789    -0.04328535
    136      1      O          -0.01912798    -0.03837890    -0.03460294
    137      2      H          -0.02279752    -0.00196564    -0.01056623
    138      2      H           0.00183515     0.00140379    -0.04477538
    139      1      O           0.09776893     0.14230725     0.01279968
    140      2      H          -0.03669482     0.00252136     0.09607996
    141      2      H          -0.02683288    -0.08666187    -0.05075294
    142      1      O          -0.00258542     0.01753259    -0.03413289
    143      2      H           0.00519026    -0.00412179    -0.03989489
    144      2      H          -0.01300800     0.01237143    -0.05807577
    145      1      O          -0.08906143    -0.04407909    -0.03774251
    146      2      H           0.06083593    -0.01098491    -0.05810590
    147      2      H           0.03053547     0.01800436     0.01704215
    148      1      O          -0.03032583     0.01457106    -0.04674793
    149      2      H           0.01287028     0.01973300    -0.04085780
    150      2      H           0.04680722     0.06527534     0.00584028
    151      1      O          -0.08470405     0.04698688     0.04949628
    152      2      H           0.01322688     0.07035227    -0.06194658
    153      2      H           0.03123998    -0.05648412     0.02143533
    154      1      O           0.04644592    -0.04723154    -0.05556981
    155      2      H          -0.01890592    -0.02819696     0.04623424
    156      2      H           0.00587171    -0.02910612    -0.00338104
    157      1      O          -0.03659192     0.01977835    -0.04307715
    158      2      H           0.03075502    -0.02670178    -0.01341655
    159      2      H          -0.00064394     0.00709404     0.02117276
    160      1      O           0.04112777    -0.06734515    -0.10831282
    161      2      H           0.00449468     0.00927099     0.03095896
    162      2      H           0.00022865     0.01043523     0.02249492
    163      1      O           0.02052284     0.01290375     0.01826460
    164      2      H           0.00221501     0.02018291     0.03602182
    165      2      H          -0.03945179     0.02102653    -0.03260272
    166      1      O          -0.04151797    -0.02114858     0.00925552
    167      2      H           0.00713665    -0.00525512     0.02930110
    168      2      H           0.01714289    -0.01636695    -0.01484731
    169      1      O           0.04384139    -0.10085180     0.11191002
    170      2      H          -0.02689204     0.01542687    -0.03651851
    171      2      H          -0.00256170     0.03734490    -0.05384162
    172      1      O          -0.01600338     0.00079424    -0.10514636
    173      2      H           0.02103022    -0.06916685    -0.03187375
    174      2      H           0.00481977     0.00082734     0.00196180
    175      1      O           0.01349166    -0.07548509    -0.08999959
    176      2      H           0.00448926     0.00398327    -0.01606079
    177      2      H           0.02050368     0.04194664     0.00189968
    178      1      O          -0.07754091    -0.05085368     0.00189952
    179      2      H           0.05187730     0.02384475     0.04166306
    180      2      H          -0.00342871     0.03046300     0.00258531
    181      1      O          -0.01361044     0.04318882     0.00024970
    182      2      H           0.00568267     0.03002634    -0.02841322
    183      2      H          -0.00383824    -0.07567930     0.01639524
    184      1      O           0.03537935     0.00941484     0.05019279
    185      2      H           0.01073278     0.01131421     0.03835907
    186      2      H          -0.00731004     0.00811429     0.03758395
    187      1      O          -0.00336053    -0.04491980    -0.05155396
    188      2      H          -0.04200689    -0.01910505    -0.04228849
    189      2      H           0.03914741    -0.04248444    -0.01453050
    190      1      O          -0.04676459    -0.02210127    -0.16558761
    191      2      H          -0.00156889     0.04339616    -0.03569217
    192      2      H           0.03243701     0.00064323     0.06483460
 SUM OF ATOMIC FORCES           0.14382808    -1.02714446    -1.22117179     1.60217751

 -------------------------------------------------------------------------------
 -                                                                             -
 -                                DBCSR STATISTICS                             -
 -                                                                             -
 -------------------------------------------------------------------------------
 COUNTER                                    TOTAL       BLAS       SMM       ACC
 flops     5 x     5 x   256            920640000       0.0%    100.0%      0.0%
 flops    13 x     5 x   256           1169459200       0.0%    100.0%      0.0%
 flops     5 x    13 x   256           1172953600       0.0%    100.0%      0.0%
 flops    13 x    13 x   256           1638407680       0.0%    100.0%      0.0%
 flops inhomo. stacks                           0       0.0%      0.0%      0.0%
 flops total                         4.901460E+09       0.0%    100.0%      0.0%
 flops max/rank                      4.901460E+09       0.0%    100.0%      0.0%
 matmuls inhomo. stacks                         0       0.0%      0.0%      0.0%
 matmuls total                             161245       0.0%    100.0%      0.0%
 number of processed stacks                  2730       0.0%    100.0%      0.0%
 average stack size                                     0.0      59.1       0.0
 marketing flops                    38.828769E+09
 -------------------------------------------------------------------------------
 # multiplications                             35
 max memory usage/rank              25.807970E+09
 # max total images/rank                        1
 # max 3D layers                                1
 # MPI messages exchanged                       0
 MPI messages size (bytes):
  total size                         0.000000E+00
  min size                           0.000000E+00
  max size                           0.000000E+00
  average size                       0.000000E+00
 MPI breakdown and total messages size (bytes):
             size <=      128                   0                        0
       128 < size <=     8192                   0                        0
      8192 < size <=    32768                   0                        0
     32768 < size <=   131072                   0                        0
    131072 < size <=  4194304                   0                        0
   4194304 < size <= 16777216                   0                        0
  16777216 < size                               0                        0
 -------------------------------------------------------------------------------

 MEMORY| Estimated peak process memory [MiB]                               24615

 -------------------------------------------------------------------------------
 -                                                                             -
 -                           R E F E R E N C E S                               -
 -                                                                             -
 -------------------------------------------------------------------------------
 
 CP2K version 7.1, the CP2K developers group (2019).
 CP2K is freely available from https://www.cp2k.org/ .

 Schuett, Ole; Messmer, Peter; Hutter, Juerg; VandeVondele, Joost. 
 Electronic Structure Calculations on Graphics Processing Units, John
 Wiley & Sons, Ltd, 173-190 (2016). 
 GPU-Accelerated Sparse Matrix-Matrix Multiplication for
 Linear Scaling Density Functional Theory.
 https://dx.doi.org/10.1002/9781118670712.ch8

 Borstnik, U; VandeVondele, J; Weber, V; Hutter, J. 
 PARALLEL COMPUTING, 40 (5-6), 47-58 (2014). 
 Sparse matrix multiplication: The distributed block-compressed sparse
 row library.
 https://dx.doi.org/10.1016/j.parco.2014.03.012

 Hutter, J; Iannuzzi, M; Schiffmann, F; VandeVondele, J. 
 WIREs Comput Mol Sci., 4 (1), 15-25 (2014). 
 CP2K: atomistic simulations of condensed matter systems.
 https://dx.doi.org/10.1002/wcms.1159

 Krack, M. 
 THEORETICAL CHEMISTRY ACCOUNTS, 114 (1-3), 145-152 (2005). 
 Pseudopotentials for H to Kr optimized for gradient-corrected
 exchange-correlation functionals.
 https://dx.doi.org/10.1007/s00214-005-0655-y

 VandeVondele, J; Krack, M; Mohamed, F; Parrinello, M; Chassaing, T;
 Hutter, J. COMPUTER PHYSICS COMMUNICATIONS, 167 (2), 103-128 (2005). 
 QUICKSTEP: Fast and accurate density functional calculations using a
 mixed Gaussian and plane waves approach.
 https://dx.doi.org/10.1016/j.cpc.2004.12.014

 Frigo, M; Johnson, SG. 
 PROCEEDINGS OF THE IEEE, 93 (2), 216-231 (2005). 
 The design and implementation of FFTW3.
 https://dx.doi.org/10.1109/JPROC.2004.840301

 Hartwigsen, C; Goedecker, S; Hutter, J. 
 PHYSICAL REVIEW B, 58 (7), 3641-3662 (1998). 
 Relativistic separable dual-space Gaussian pseudopotentials from H to Rn.
 https://dx.doi.org/10.1103/PhysRevB.58.3641

 Lippert, G; Hutter, J; Parrinello, M. 
 MOLECULAR PHYSICS, 92 (3), 477-487 (1997). 
 A hybrid Gaussian and plane wave density functional scheme.
 https://dx.doi.org/10.1080/002689797170220

 Goedecker, S; Teter, M; Hutter, J. 
 PHYSICAL REVIEW B, 54 (3), 1703-1710 (1996). 
 Separable dual-space Gaussian pseudopotentials.
 https://dx.doi.org/10.1103/PhysRevB.54.1703


 -------------------------------------------------------------------------------
 -                                                                             -
 -                                T I M I N G                                  -
 -                                                                             -
 -------------------------------------------------------------------------------
 SUBROUTINE                       CALLS  ASD         SELF TIME        TOTAL TIME
                                MAXIMUM       AVERAGE  MAXIMUM  AVERAGE  MAXIMUM
 CP2K                                 1  1.0    0.695    0.695  803.939  803.939
 qs_forces                            1  2.0    0.000    0.000  792.327  792.327
 qs_energies                          1  3.0    0.000    0.000  788.046  788.046
 scf_env_do_scf                       1  4.0    0.000    0.000  776.484  776.484
 scf_env_do_scf_inner_loop           34  5.0    0.005    0.005  776.484  776.484
 gspace_mixing                       33  6.0    4.619    4.619  312.511  312.511
 broyden_mixing                      33  7.0  279.882  279.882  279.882  279.882
 qs_scf_new_mos                      34  6.0    0.001    0.001  217.815  217.815
 eigensolver                         34  7.0    0.003    0.003  210.962  210.962
 pw_transfer                        454  9.9    0.042    0.042  146.451  146.451
 cp_fm_syevd                         34  8.0  143.843  143.843  143.971  143.971
 fft_wrap_pw1pw2                    384 10.9    0.005    0.005  142.654  142.654
 rebuild_ks_matrix                   35  6.9    0.000    0.000  140.823  140.823
 qs_ks_build_kohn_sham_matrix        35  7.9    0.009    0.009  140.823  140.823
 qs_ks_update_qs_env                 34  6.0    0.000    0.000  136.769  136.769
 fft_wrap_pw1pw2_70                 174 11.2   11.032   11.032  130.643  130.643
 qs_rho_update_rho                   35  6.0    0.000    0.000  112.181  112.181
 calculate_rho_elec                  35  7.0   42.983   42.983  112.180  112.180
 fft3d_s                            385 12.8   70.369   70.369   70.390   70.390
 density_rs2pw                       35  8.0    0.003    0.003   68.307   68.307
 cp_fm_cholesky_restore             102  8.0   66.859   66.859   66.859   66.859
 pw_scatter_s                       208 13.1   46.784   46.784   46.784   46.784
 pw_poisson_solve                    35  8.9   39.004   39.004   43.063   43.063
 sum_up_and_integrate                35  8.9    2.164    2.164   42.509   42.509
 integrate_v_rspace                  35  9.9    2.674    2.674   40.345   40.345
 potential_pw2rs                     35 10.9    0.298    0.298   36.409   36.409
 qs_vxc_create                       35  8.9    0.001    0.001   20.389   20.389
 xc_vxc_pw_create                    35  9.9    4.898    4.898   20.388   20.388
 -------------------------------------------------------------------------------

 The number of warnings for this run is : 0
 
 -------------------------------------------------------------------------------
  **** **** ******  **  PROGRAM ENDED AT                 2020-05-21 03:09:04.084
 ***** ** ***  *** **   PROGRAM RAN ON                                   gnode39
 **    ****   ******    PROGRAM RAN BY                               mayank.modi
 ***** **    ** ** **   PROGRAM PROCESS ID                                 27414
  **** **  *******  **  PROGRAM STOPPED IN /home/mayank.modi/ab-initio-thermodyn
                                           amics-of-water/mayank/cp2k_energy_cal
                                           culations
