 DBCSR| CPU Multiplication driver                                           XSMM
 DBCSR| Multrec recursion limit                                              512
 DBCSR| Multiplication stack size                                           1000
 DBCSR| Maximum elements for images                                    UNLIMITED
 DBCSR| Multiplicative factor virtual images                                   1
 DBCSR| Use multiplication densification                                       T
 DBCSR| Multiplication size stacks                                             3


  **** **** ******  **  PROGRAM STARTED AT               2020-05-21 05:04:43.079
 ***** ** ***  *** **   PROGRAM STARTED ON                               gnode39
 **    ****   ******    PROGRAM STARTED BY                           mayank.modi
 ***** **    ** ** **   PROGRAM PROCESS ID                                 29108
  **** **  *******  **  PROGRAM STARTED IN /home/mayank.modi/ab-initio-thermodyn
                                           amics-of-water/mayank/cp2k_energy_cal
                                           culations

 CP2K| version string:                                          CP2K version 7.1
 CP2K| source code revision number:                                  git:e635599
 CP2K| cp2kflags: omp libint fftw3 libxc xsmm spglib                            
 CP2K| is freely available from                            https://www.cp2k.org/
 CP2K| Program compiled at                          Mon Dec 23 19:23:12 CET 2019
 CP2K| Program compiled on                                                pc9404
 CP2K| Program compiled for                                Linux-x86-64-gfortran
 CP2K| Data directory path                                        /opt/cp2k/data
 CP2K| Input file name                                              ./input55.in

 GLOBAL| Force Environment number                                              1
 GLOBAL| Basis set file name                                           BASIS_SET
 GLOBAL| Potential file name                                      GTH_POTENTIALS
 GLOBAL| MM Potential file name                                     MM_POTENTIAL
 GLOBAL| Coordinate file name                                      __STD_INPUT__
 GLOBAL| Method name                                                        CP2K
 GLOBAL| Project name                                                   H2O_bulk
 GLOBAL| Preferred FFT library                                             FFTW3
 GLOBAL| Preferred diagonalization lib.                                       SL
 GLOBAL| Run type                                                   ENERGY_FORCE
 GLOBAL| All-to-all communication in single precision                          F
 GLOBAL| FFTs using library dependent lengths                                  F
 GLOBAL| Global print level                                                  LOW
 GLOBAL| MPI I/O enabled                                                       T
 GLOBAL| Total number of message passing processes                             1
 GLOBAL| Number of threads for this process                                   20
 GLOBAL| This output is from process                                           0
 GLOBAL| CPU model name                Intel(R) Xeon(R) CPU E5-2640 v4 @ 2.40GHz
 GLOBAL| CPUID                                                              1002
 GLOBAL| Compiled for CPUID                                                    0

 MEMORY| system memory details [Kb]
 MEMORY|                        rank 0           min           max       average
 MEMORY| MemTotal            131898148     131898148     131898148     131898148
 MEMORY| MemFree              88706728      88706728      88706728      88706728
 MEMORY| Buffers               3187096       3187096       3187096       3187096
 MEMORY| Cached               34124324      34124324      34124324      34124324
 MEMORY| Slab                  3915436       3915436       3915436       3915436
 MEMORY| SReclaimable          3255724       3255724       3255724       3255724
 MEMORY| MemLikelyFree       129273872     129273872     129273872     129273872


 GENERATE|  Preliminary Number of Bonds generated:                             0
 GENERATE|  Achieved consistency in connectivity generation.

 *******************************************************************************
 *******************************************************************************
 **                                                                           **
 **     #####                         ##              ##                      **
 **    ##   ##            ##          ##              ##                      **
 **   ##     ##                       ##            ######                    **
 **   ##     ##  ##   ##  ##   #####  ##  ##   ####   ##    #####    #####    **
 **   ##     ##  ##   ##  ##  ##      ## ##   ##      ##   ##   ##  ##   ##   **
 **   ##  ## ##  ##   ##  ##  ##      ####     ###    ##   ######   ######    **
 **    ##  ###   ##   ##  ##  ##      ## ##      ##   ##   ##       ##        **
 **     #######   #####   ##   #####  ##  ##  ####    ##    #####   ##        **
 **           ##                                                    ##        **
 **                                                                           **
 **                                                ... make the atoms dance   **
 **                                                                           **
 **            Copyright (C) by CP2K developers group (2000 - 2019)           **
 **                                                                           **
 *******************************************************************************


 TOTAL NUMBERS AND MAXIMUM NUMBERS

  Total number of            - Atomic kinds:                                   2
                             - Atoms:                                        192
                             - Shell sets:                                   384
                             - Shells:                                       704
                             - Primitive Cartesian functions:                960
                             - Cartesian basis functions:                   1536
                             - Spherical basis functions:                   1472

  Maximum angular momentum of- Orbital basis functions:                        2
                             - Local part of the GTH pseudopotential:          2
                             - Non-local part of the GTH pseudopotential:      0


 SCF PARAMETERS         Density guess:                                    ATOMIC
                        --------------------------------------------------------
                        max_scf:                                             300
                        max_scf_history:                                       0
                        max_diis:                                              4
                        --------------------------------------------------------
                        eps_scf:                                        1.00E-07
                        eps_scf_history:                                0.00E+00
                        eps_diis:                                       1.00E-01
                        eps_eigval:                                     1.00E-05
                        --------------------------------------------------------
                        level_shift [a.u.]:                                 0.00
                        --------------------------------------------------------
                        Mixing method:                            BROYDEN_MIXING
                                                charge density mixing in g-space
                        --------------------------------------------------------
                        No outer SCF

 Number of electrons:                                                        512
 Number of occupied orbitals:                                                256
 Number of molecular orbitals:                                               256

 Number of orbital functions:                                               1472
 Number of independent orbital functions:                                   1472

 Extrapolation method: initial_guess


 SCF WAVEFUNCTION OPTIMIZATION

  Step     Update method      Time    Convergence         Total energy    Change
  ------------------------------------------------------------------------------
     1 NoMix/Diag. 0.40E+00   10.6     1.00319633     -1087.5498796868 -1.09E+03
     2 Broy./Diag. 0.40E+00   16.5     0.29538865     -1014.3958847300  7.32E+01
     3 Broy./Diag. 0.40E+00   18.2     0.02625549     -1095.0287687779 -8.06E+01
     4 Broy./Diag. 0.40E+00   18.5     0.02686834     -1094.5036887912  5.25E-01
     5 Broy./Diag. 0.40E+00   19.4     0.00264497     -1095.3811371213 -8.77E-01
     6 Broy./Diag. 0.40E+00   19.1     0.00509909     -1095.3926844022 -1.15E-02
     7 Broy./Diag. 0.40E+00   19.6     0.00262295     -1095.5269772197 -1.34E-01
     8 Broy./Diag. 0.40E+00   21.6     0.00376985     -1095.6294114708 -1.02E-01
     9 Broy./Diag. 0.40E+00   23.4     0.00291352     -1095.7261839102 -9.68E-02
    10 Broy./Diag. 0.40E+00   24.1     0.00188130     -1095.7483026992 -2.21E-02
    11 Broy./Diag. 0.40E+00   24.5     0.00136470     -1095.7350271044  1.33E-02
    12 Broy./Diag. 0.40E+00   25.3     0.00072204     -1095.7413907903 -6.36E-03
    13 Broy./Diag. 0.40E+00   24.5     0.00077606     -1095.7616012814 -2.02E-02
    14 Broy./Diag. 0.40E+00   24.1     0.00025464     -1095.7680553386 -6.45E-03
    15 Broy./Diag. 0.40E+00   25.1     0.00027232     -1095.7604100556  7.65E-03
    16 Broy./Diag. 0.40E+00   24.3     0.00013517     -1095.7602712721  1.39E-04
    17 Broy./Diag. 0.40E+00   23.9     0.00009272     -1095.7615490581 -1.28E-03
    18 Broy./Diag. 0.40E+00   24.9     0.00004113     -1095.7620002362 -4.51E-04
    19 Broy./Diag. 0.40E+00   23.9     0.00002030     -1095.7619707357  2.95E-05
    20 Broy./Diag. 0.40E+00   24.7     0.00001680     -1095.7613507656  6.20E-04
    21 Broy./Diag. 0.40E+00   24.0     0.00001049     -1095.7615185873 -1.68E-04
    22 Broy./Diag. 0.40E+00   24.5     0.00000523     -1095.7616594486 -1.41E-04
    23 Broy./Diag. 0.40E+00   25.1     0.00000488     -1095.7616183025  4.11E-05
    24 Broy./Diag. 0.40E+00   24.5     0.00000163     -1095.7615807523  3.76E-05
    25 Broy./Diag. 0.40E+00   25.1     0.00000195     -1095.7615476278  3.31E-05
    26 Broy./Diag. 0.40E+00   24.8     0.00000099     -1095.7615809249 -3.33E-05
    27 Broy./Diag. 0.40E+00   24.6     0.00000083     -1095.7616001672 -1.92E-05
    28 Broy./Diag. 0.40E+00   25.0     0.00000076     -1095.7616058672 -5.70E-06
    29 Broy./Diag. 0.40E+00   24.6     0.00000034     -1095.7616055423  3.25E-07
    30 Broy./Diag. 0.40E+00   24.2     0.00000035     -1095.7616026846  2.86E-06
    31 Broy./Diag. 0.40E+00   24.9     0.00000017     -1095.7616062788 -3.59E-06
    32 Broy./Diag. 0.40E+00   25.2     0.00000009     -1095.7616086342 -2.36E-06

  *** SCF run converged in    32 steps ***


  Electronic density on regular grids:       -512.0000747688       -0.0000747688
  Core density on regular grids:              511.9994468485       -0.0005531515
  Total charge density on r-space grids:       -0.0006279203
  Total charge density g-space grids:          -0.0006279203

  Overlap energy of the core charge distribution:               0.00000437383021
  Self energy of the core charge distribution:              -2838.21791979120962
  Core Hamiltonian energy:                                    820.96047390518049
  Hartree energy:                                            1186.14861417706834
  Exchange-correlation energy:                               -264.65278129903237

  Total energy:                                             -1095.76160863416294

 ENERGY| Total FORCE_EVAL ( QS ) energy (a.u.):            -1095.761612297941610


 ATOMIC FORCES in [a.u.]

 # Atom   Kind   Element          X              Y              Z
      1      1      O           0.05662804    -0.10297137    -0.05527382
      2      2      H          -0.04279312     0.03103574    -0.05212667
      3      2      H          -0.04679821     0.04154204     0.06878823
      4      1      O          -0.00510092     0.01045934     0.03956335
      5      2      H          -0.00909588     0.00772170    -0.00060110
      6      2      H           0.00335801     0.00949454    -0.02118679
      7      1      O          -0.04119254     0.07004530     0.10455523
      8      2      H           0.02704319    -0.04522027    -0.01747469
      9      2      H          -0.00621380    -0.01990104     0.01447800
     10      1      O           0.00410457     0.08473099    -0.06827234
     11      2      H          -0.02589057    -0.00246556    -0.02103675
     12      2      H           0.00317436    -0.01532559    -0.03678451
     13      1      O          -0.00326917     0.12959174    -0.13504676
     14      2      H          -0.00224080     0.03478538    -0.03110282
     15      2      H          -0.00406740    -0.08528615     0.02882054
     16      1      O          -0.01949789    -0.06113962    -0.06025499
     17      2      H          -0.00468210    -0.00206687    -0.03646776
     18      2      H          -0.02039026    -0.02242281    -0.03336487
     19      1      O           0.00653573    -0.05106569    -0.06208555
     20      2      H          -0.00225408     0.02299866    -0.01919966
     21      2      H          -0.00404452     0.00910647    -0.03765095
     22      1      O          -0.05059268     0.00618309     0.04811367
     23      2      H           0.02717879     0.02605029     0.03667421
     24      2      H           0.00770906     0.02261258     0.03660319
     25      1      O           0.02833609     0.08141219     0.03390045
     26      2      H           0.00029418     0.01211448    -0.00696591
     27      2      H          -0.00801669    -0.02212757    -0.00594350
     28      1      O           0.01010003     0.00174068     0.04720669
     29      2      H          -0.04228723    -0.01373174     0.01921336
     30      2      H           0.01395372     0.01526799    -0.02809978
     31      1      O          -0.01668803    -0.02801824    -0.11092095
     32      2      H           0.04927357     0.00960243     0.01213125
     33      2      H          -0.01580684     0.01382310    -0.02960456
     34      1      O           0.01704376     0.07053645    -0.00092630
     35      2      H          -0.01192451     0.01136248     0.00080598
     36      2      H          -0.01586661    -0.02043470    -0.01784117
     37      1      O          -0.01412319    -0.09193359     0.06259067
     38      2      H           0.03553474     0.02728270    -0.01818274
     39      2      H          -0.01032574    -0.00136816     0.04669302
     40      1      O          -0.03379704    -0.03860469    -0.07026131
     41      2      H          -0.00694544    -0.00296141    -0.03192861
     42      2      H           0.05282779     0.04871815    -0.01159666
     43      1      O          -0.00200855    -0.09170030    -0.00552951
     44      2      H           0.02078844    -0.02097241    -0.02567127
     45      2      H           0.01907436     0.04885592     0.00882676
     46      1      O          -0.00176389    -0.06446267    -0.05761516
     47      2      H          -0.00639833    -0.01084999     0.02873908
     48      2      H          -0.02851441     0.02697004     0.02753822
     49      1      O          -0.03714999     0.09559136     0.12866651
     50      2      H           0.00289420    -0.02978732    -0.02997503
     51      2      H           0.02307027    -0.01352213    -0.01654106
     52      1      O           0.01076565     0.04299814     0.12494677
     53      2      H           0.01312882     0.03155096    -0.03158818
     54      2      H          -0.02523405    -0.04056591    -0.02812388
     55      1      O           0.04748853    -0.07191343     0.09035548
     56      2      H          -0.01428800    -0.00873319    -0.03419817
     57      2      H          -0.03165708     0.01923645    -0.05587160
     58      1      O           0.02704183     0.03399604    -0.12644290
     59      2      H          -0.00207982    -0.02529723    -0.01588643
     60      2      H          -0.00635511     0.01744001     0.02264616
     61      1      O           0.02644574     0.03623035    -0.00777262
     62      2      H          -0.00259900     0.01273693     0.01514959
     63      2      H          -0.01215202    -0.03767108     0.01011545
     64      1      O           0.03169356     0.09487683     0.15448082
     65      2      H           0.01482210    -0.02808049    -0.00271598
     66      2      H          -0.02763980     0.01903128     0.00479301
     67      1      O           0.01649396     0.03929087    -0.06214043
     68      2      H          -0.01298318    -0.01305753     0.05833721
     69      2      H           0.00287337     0.00170708     0.05017815
     70      1      O           0.03026503    -0.09897274     0.06039825
     71      2      H          -0.01315104    -0.01902732    -0.00980050
     72      2      H           0.01870950     0.01753817    -0.04018894
     73      1      O          -0.04449745     0.03538848     0.01308007
     74      2      H          -0.00069186    -0.04545809     0.00966818
     75      2      H          -0.00969905     0.01642532     0.00339094
     76      1      O           0.02405251     0.16028599    -0.02154615
     77      2      H          -0.01185884    -0.10544198    -0.02532084
     78      2      H           0.00105292     0.02235523     0.02681690
     79      1      O          -0.02371261     0.02693331    -0.10802825
     80      2      H           0.00944752     0.03062810     0.05821228
     81      2      H           0.00418928    -0.00839289    -0.06344427
     82      1      O          -0.06589681    -0.05078438    -0.06044556
     83      2      H           0.02237401    -0.02637731    -0.00839959
     84      2      H           0.04340622     0.01640990     0.00194694
     85      1      O          -0.02456535    -0.12101771    -0.09093371
     86      2      H           0.01865327    -0.00041623    -0.03551942
     87      2      H          -0.01856393     0.06102756     0.04176536
     88      1      O           0.01435959     0.04913269    -0.01389432
     89      2      H           0.00273537     0.00542904     0.01643249
     90      2      H           0.01697294    -0.02191484    -0.00117158
     91      1      O           0.02868132    -0.03344972     0.12824732
     92      2      H          -0.00383433    -0.00294110    -0.06978361
     93      2      H          -0.02494929    -0.04495755    -0.01156907
     94      1      O          -0.07011656    -0.06497802    -0.13547230
     95      2      H           0.05457372    -0.02733266     0.05280958
     96      2      H          -0.00421424     0.03325799    -0.00498045
     97      1      O          -0.04734428    -0.11251014     0.11211121
     98      2      H           0.04047755     0.07646580     0.00881485
     99      2      H          -0.00706339     0.01523746     0.03424812
    100      1      O           0.05991789     0.09165932    -0.12251270
    101      2      H           0.00990519     0.00040588    -0.00736913
    102      2      H          -0.02405388     0.02422076    -0.00106629
    103      1      O          -0.02509297     0.00610624    -0.10151519
    104      2      H          -0.00459448     0.01844365    -0.02584619
    105      2      H           0.00587955     0.03707449    -0.02498412
    106      1      O          -0.02511723    -0.08403799     0.05061680
    107      2      H           0.01073981     0.04801246    -0.01395868
    108      2      H           0.00473723     0.01137693    -0.03550028
    109      1      O          -0.04345881    -0.04600861     0.10456404
    110      2      H           0.01838802     0.00494415     0.00201865
    111      2      H          -0.01786804    -0.04951178     0.00850717
    112      1      O          -0.02787250     0.00375493     0.01109813
    113      2      H           0.02108588     0.01273064     0.07664243
    114      2      H           0.01797437    -0.03268614    -0.00222168
    115      1      O           0.04341018     0.05308844    -0.09318805
    116      2      H          -0.00586661    -0.00842631    -0.00042847
    117      2      H           0.01029930     0.01867482    -0.00640159
    118      1      O          -0.08035660    -0.04074399     0.04997856
    119      2      H           0.03089706     0.03830326     0.07284843
    120      2      H           0.03964592    -0.00045394    -0.07009534
    121      1      O          -0.02526269    -0.04284483    -0.10502443
    122      2      H          -0.00063564    -0.04543417     0.01810668
    123      2      H          -0.01416836     0.05604695     0.08227399
    124      1      O           0.02236274    -0.00263675     0.06636644
    125      2      H           0.00497623     0.00472298    -0.03456971
    126      2      H           0.02414164     0.00103267     0.04805235
    127      1      O           0.00474833     0.04437692    -0.00770151
    128      2      H          -0.01255802     0.03378341    -0.03903125
    129      2      H           0.00952432     0.00905111     0.04948961
    130      1      O           0.05797051    -0.10907011     0.03603320
    131      2      H          -0.00577992    -0.00817847     0.00450409
    132      2      H          -0.02531997     0.06615991     0.04207414
    133      1      O           0.01517499     0.00190253     0.04145703
    134      2      H           0.02384473     0.01505309    -0.03792062
    135      2      H          -0.02366606     0.03254494    -0.00049073
    136      1      O          -0.01072283     0.03961375    -0.09350862
    137      2      H           0.00821691     0.04344581     0.05205533
    138      2      H           0.01754595     0.03691910     0.01339480
    139      1      O           0.09728718    -0.05403983     0.02046544
    140      2      H          -0.06341276    -0.03477376     0.07223845
    141      2      H          -0.01021514    -0.00068651     0.01334471
    142      1      O           0.03466602     0.03166233     0.00029639
    143      2      H          -0.00747461    -0.02563769    -0.04171087
    144      2      H          -0.01898154    -0.02160674    -0.06910524
    145      1      O          -0.03321962     0.10307649    -0.07811161
    146      2      H           0.01822666    -0.01883495     0.04217604
    147      2      H           0.02067417    -0.01186088    -0.03339492
    148      1      O           0.00686310    -0.13004636     0.01474166
    149      2      H           0.00676522     0.05068294     0.12546735
    150      2      H           0.04120240     0.05920693    -0.06881008
    151      1      O          -0.00136420    -0.07685488     0.13713393
    152      2      H           0.01233660    -0.00413948    -0.05683682
    153      2      H           0.01435828     0.05136430    -0.03223300
    154      1      O           0.00681856    -0.03420455    -0.02370417
    155      2      H           0.00619714    -0.00436488     0.02837251
    156      2      H          -0.04100818    -0.03319613     0.00389632
    157      1      O          -0.03120424    -0.07211590    -0.14581162
    158      2      H           0.03141768    -0.03815714     0.02909848
    159      2      H          -0.03164727     0.02719077     0.00462378
    160      1      O           0.02611959    -0.03531197     0.05554686
    161      2      H          -0.00655848     0.00876697     0.02823149
    162      2      H           0.01779986    -0.01789519    -0.01659466
    163      1      O           0.03494189     0.01304444    -0.10852620
    164      2      H          -0.01689395    -0.01972469    -0.03966050
    165      2      H          -0.01937484    -0.05018613    -0.00548135
    166      1      O          -0.03353590    -0.06249910    -0.06547022
    167      2      H           0.02800350     0.01607974    -0.01435584
    168      2      H           0.00679628    -0.03467524     0.02716266
    169      1      O          -0.00975588    -0.04606585    -0.06269800
    170      2      H          -0.03106819    -0.00296209    -0.04422486
    171      2      H           0.00665879    -0.00654853     0.00283829
    172      1      O          -0.00868371    -0.07738157    -0.04303351
    173      2      H          -0.01704783    -0.02441035     0.00862718
    174      2      H           0.02703279     0.02963046    -0.00674368
    175      1      O          -0.02306444    -0.03510618     0.03403737
    176      2      H           0.01190137    -0.03347290    -0.04404155
    177      2      H           0.00456598     0.06986175     0.06192897
    178      1      O          -0.00227106     0.14251055    -0.00780398
    179      2      H           0.01156848     0.02656224    -0.02140366
    180      2      H           0.00282052    -0.12078300    -0.01963573
    181      1      O           0.02120334    -0.09805062     0.14533564
    182      2      H          -0.02577766     0.00975976    -0.04275226
    183      2      H           0.00939799     0.03552555     0.02008272
    184      1      O          -0.01139806     0.04788115     0.08747549
    185      2      H           0.01671139     0.01572493     0.00649041
    186      2      H           0.01365845     0.02690621     0.00793793
    187      1      O           0.07304646    -0.02088994     0.05733705
    188      2      H          -0.00773680     0.01869907    -0.03544450
    189      2      H          -0.08815922     0.05931074     0.02094033
    190      1      O          -0.00576200    -0.13596304    -0.02781523
    191      2      H          -0.01873880     0.10411146    -0.02609414
    192      2      H          -0.01158937     0.00785004     0.05821884
 SUM OF ATOMIC FORCES           0.00682778    -0.12600684    -0.38862343     0.40859823

 -------------------------------------------------------------------------------
 -                                                                             -
 -                                DBCSR STATISTICS                             -
 -                                                                             -
 -------------------------------------------------------------------------------
 COUNTER                                    TOTAL       BLAS       SMM       ACC
 flops     5 x     5 x   256            869299200       0.0%    100.0%      0.0%
 flops     5 x    13 x   256           1093847040       0.0%    100.0%      0.0%
 flops    13 x     5 x   256           1101534720       0.0%    100.0%      0.0%
 flops    13 x    13 x   256           1530507264       0.0%    100.0%      0.0%
 flops inhomo. stacks                           0       0.0%      0.0%      0.0%
 flops total                         4.595188E+09       0.0%    100.0%      0.0%
 flops max/rank                      4.595188E+09       0.0%    100.0%      0.0%
 matmuls inhomo. stacks                         0       0.0%      0.0%      0.0%
 matmuls total                             151569       0.0%    100.0%      0.0%
 number of processed stacks                  2574       0.0%    100.0%      0.0%
 average stack size                                     0.0      58.9       0.0
 marketing flops                    36.609982E+09
 -------------------------------------------------------------------------------
 # multiplications                             33
 max memory usage/rank              25.808245E+09
 # max total images/rank                        1
 # max 3D layers                                1
 # MPI messages exchanged                       0
 MPI messages size (bytes):
  total size                         0.000000E+00
  min size                           0.000000E+00
  max size                           0.000000E+00
  average size                       0.000000E+00
 MPI breakdown and total messages size (bytes):
             size <=      128                   0                        0
       128 < size <=     8192                   0                        0
      8192 < size <=    32768                   0                        0
     32768 < size <=   131072                   0                        0
    131072 < size <=  4194304                   0                        0
   4194304 < size <= 16777216                   0                        0
  16777216 < size                               0                        0
 -------------------------------------------------------------------------------

 MEMORY| Estimated peak process memory [MiB]                               24615

 -------------------------------------------------------------------------------
 -                                                                             -
 -                           R E F E R E N C E S                               -
 -                                                                             -
 -------------------------------------------------------------------------------
 
 CP2K version 7.1, the CP2K developers group (2019).
 CP2K is freely available from https://www.cp2k.org/ .

 Schuett, Ole; Messmer, Peter; Hutter, Juerg; VandeVondele, Joost. 
 Electronic Structure Calculations on Graphics Processing Units, John
 Wiley & Sons, Ltd, 173-190 (2016). 
 GPU-Accelerated Sparse Matrix-Matrix Multiplication for
 Linear Scaling Density Functional Theory.
 https://dx.doi.org/10.1002/9781118670712.ch8

 Borstnik, U; VandeVondele, J; Weber, V; Hutter, J. 
 PARALLEL COMPUTING, 40 (5-6), 47-58 (2014). 
 Sparse matrix multiplication: The distributed block-compressed sparse
 row library.
 https://dx.doi.org/10.1016/j.parco.2014.03.012

 Hutter, J; Iannuzzi, M; Schiffmann, F; VandeVondele, J. 
 WIREs Comput Mol Sci., 4 (1), 15-25 (2014). 
 CP2K: atomistic simulations of condensed matter systems.
 https://dx.doi.org/10.1002/wcms.1159

 Krack, M. 
 THEORETICAL CHEMISTRY ACCOUNTS, 114 (1-3), 145-152 (2005). 
 Pseudopotentials for H to Kr optimized for gradient-corrected
 exchange-correlation functionals.
 https://dx.doi.org/10.1007/s00214-005-0655-y

 VandeVondele, J; Krack, M; Mohamed, F; Parrinello, M; Chassaing, T;
 Hutter, J. COMPUTER PHYSICS COMMUNICATIONS, 167 (2), 103-128 (2005). 
 QUICKSTEP: Fast and accurate density functional calculations using a
 mixed Gaussian and plane waves approach.
 https://dx.doi.org/10.1016/j.cpc.2004.12.014

 Frigo, M; Johnson, SG. 
 PROCEEDINGS OF THE IEEE, 93 (2), 216-231 (2005). 
 The design and implementation of FFTW3.
 https://dx.doi.org/10.1109/JPROC.2004.840301

 Hartwigsen, C; Goedecker, S; Hutter, J. 
 PHYSICAL REVIEW B, 58 (7), 3641-3662 (1998). 
 Relativistic separable dual-space Gaussian pseudopotentials from H to Rn.
 https://dx.doi.org/10.1103/PhysRevB.58.3641

 Lippert, G; Hutter, J; Parrinello, M. 
 MOLECULAR PHYSICS, 92 (3), 477-487 (1997). 
 A hybrid Gaussian and plane wave density functional scheme.
 https://dx.doi.org/10.1080/002689797170220

 Goedecker, S; Teter, M; Hutter, J. 
 PHYSICAL REVIEW B, 54 (3), 1703-1710 (1996). 
 Separable dual-space Gaussian pseudopotentials.
 https://dx.doi.org/10.1103/PhysRevB.54.1703


 -------------------------------------------------------------------------------
 -                                                                             -
 -                                T I M I N G                                  -
 -                                                                             -
 -------------------------------------------------------------------------------
 SUBROUTINE                       CALLS  ASD         SELF TIME        TOTAL TIME
                                MAXIMUM       AVERAGE  MAXIMUM  AVERAGE  MAXIMUM
 CP2K                                 1  1.0    0.662    0.662  763.140  763.140
 qs_forces                            1  2.0    0.000    0.000  752.138  752.138
 qs_energies                          1  3.0    0.000    0.000  747.603  747.603
 scf_env_do_scf                       1  4.0    0.000    0.000  736.148  736.148
 scf_env_do_scf_inner_loop           32  5.0    0.005    0.005  736.148  736.148
 gspace_mixing                       31  6.0    4.325    4.325  283.539  283.539
 broyden_mixing                      31  7.0  252.670  252.670  252.670  252.670
 qs_scf_new_mos                      32  6.0    0.001    0.001  208.219  208.219
 eigensolver                         32  7.0    0.004    0.004  197.812  197.812
 pw_transfer                        428  9.9    0.040    0.040  145.426  145.426
 fft_wrap_pw1pw2                    362 10.9    0.005    0.005  141.424  141.424
 rebuild_ks_matrix                   33  6.9    0.000    0.000  141.122  141.122
 qs_ks_build_kohn_sham_matrix        33  7.9    0.015    0.015  141.122  141.122
 qs_ks_update_qs_env                 32  6.0    0.000    0.000  136.808  136.808
 cp_fm_syevd                         32  8.0  134.593  134.593  134.736  134.736
 fft_wrap_pw1pw2_70                 164 11.2   10.187   10.187  127.658  127.658
 qs_rho_update_rho                   33  6.0    0.000    0.000  110.260  110.260
 calculate_rho_elec                  33  7.0   39.727   39.727  110.260  110.260
 fft3d_s                            363 12.8   70.901   70.901   70.910   70.910
 density_rs2pw                       33  8.0    0.003    0.003   69.414   69.414
 cp_fm_cholesky_restore              96  8.0   62.963   62.963   62.963   62.963
 sum_up_and_integrate                33  8.9    2.294    2.294   46.647   46.647
 integrate_v_rspace                  33  9.9    3.000    3.000   44.352   44.352
 pw_scatter_s                       196 13.1   43.968   43.968   43.968   43.968
 pw_poisson_solve                    33  8.9   36.207   36.207   40.471   40.471
 potential_pw2rs                     33 10.9    0.268    0.268   37.542   37.542
 qs_vxc_create                       33  8.9    0.001    0.001   20.379   20.379
 xc_vxc_pw_create                    33  9.9    4.612    4.612   20.378   20.378
 xc_rho_set_and_dset_create          33 10.9    0.001    0.001   15.766   15.766
 -------------------------------------------------------------------------------

 The number of warnings for this run is : 0
 
 -------------------------------------------------------------------------------
  **** **** ******  **  PROGRAM ENDED AT                 2020-05-21 05:17:26.323
 ***** ** ***  *** **   PROGRAM RAN ON                                   gnode39
 **    ****   ******    PROGRAM RAN BY                               mayank.modi
 ***** **    ** ** **   PROGRAM PROCESS ID                                 29108
  **** **  *******  **  PROGRAM STOPPED IN /home/mayank.modi/ab-initio-thermodyn
                                           amics-of-water/mayank/cp2k_energy_cal
                                           culations
