 DBCSR| CPU Multiplication driver                                           XSMM
 DBCSR| Multrec recursion limit                                              512
 DBCSR| Multiplication stack size                                           1000
 DBCSR| Maximum elements for images                                    UNLIMITED
 DBCSR| Multiplicative factor virtual images                                   1
 DBCSR| Use multiplication densification                                       T
 DBCSR| Multiplication size stacks                                             3


  **** **** ******  **  PROGRAM STARTED AT               2020-05-21 14:17:54.716
 ***** ** ***  *** **   PROGRAM STARTED ON                               gnode39
 **    ****   ******    PROGRAM STARTED BY                           mayank.modi
 ***** **    ** ** **   PROGRAM PROCESS ID                                 22162
  **** **  *******  **  PROGRAM STARTED IN /home/mayank.modi/ab-initio-thermodyn
                                           amics-of-water/mayank/cp2k_energy_cal
                                           culations

 CP2K| version string:                                          CP2K version 7.1
 CP2K| source code revision number:                                  git:e635599
 CP2K| cp2kflags: omp libint fftw3 libxc xsmm spglib                            
 CP2K| is freely available from                            https://www.cp2k.org/
 CP2K| Program compiled at                          Mon Dec 23 19:23:12 CET 2019
 CP2K| Program compiled on                                                pc9404
 CP2K| Program compiled for                                Linux-x86-64-gfortran
 CP2K| Data directory path                                        /opt/cp2k/data
 CP2K| Input file name                                              ./input98.in

 GLOBAL| Force Environment number                                              1
 GLOBAL| Basis set file name                                           BASIS_SET
 GLOBAL| Potential file name                                      GTH_POTENTIALS
 GLOBAL| MM Potential file name                                     MM_POTENTIAL
 GLOBAL| Coordinate file name                                      __STD_INPUT__
 GLOBAL| Method name                                                        CP2K
 GLOBAL| Project name                                                   H2O_bulk
 GLOBAL| Preferred FFT library                                             FFTW3
 GLOBAL| Preferred diagonalization lib.                                       SL
 GLOBAL| Run type                                                   ENERGY_FORCE
 GLOBAL| All-to-all communication in single precision                          F
 GLOBAL| FFTs using library dependent lengths                                  F
 GLOBAL| Global print level                                                  LOW
 GLOBAL| MPI I/O enabled                                                       T
 GLOBAL| Total number of message passing processes                             1
 GLOBAL| Number of threads for this process                                   20
 GLOBAL| This output is from process                                           0
 GLOBAL| CPU model name                Intel(R) Xeon(R) CPU E5-2640 v4 @ 2.40GHz
 GLOBAL| CPUID                                                              1002
 GLOBAL| Compiled for CPUID                                                    0

 MEMORY| system memory details [Kb]
 MEMORY|                        rank 0           min           max       average
 MEMORY| MemTotal            131898148     131898148     131898148     131898148
 MEMORY| MemFree              94912628      94912628      94912628      94912628
 MEMORY| Buffers               3187576       3187576       3187576       3187576
 MEMORY| Cached               29348756      29348756      29348756      29348756
 MEMORY| Slab                  3952500       3952500       3952500       3952500
 MEMORY| SReclaimable          3283564       3283564       3283564       3283564
 MEMORY| MemLikelyFree       130732524     130732524     130732524     130732524


 GENERATE|  Preliminary Number of Bonds generated:                             0
 GENERATE|  Achieved consistency in connectivity generation.

 *******************************************************************************
 *******************************************************************************
 **                                                                           **
 **     #####                         ##              ##                      **
 **    ##   ##            ##          ##              ##                      **
 **   ##     ##                       ##            ######                    **
 **   ##     ##  ##   ##  ##   #####  ##  ##   ####   ##    #####    #####    **
 **   ##     ##  ##   ##  ##  ##      ## ##   ##      ##   ##   ##  ##   ##   **
 **   ##  ## ##  ##   ##  ##  ##      ####     ###    ##   ######   ######    **
 **    ##  ###   ##   ##  ##  ##      ## ##      ##   ##   ##       ##        **
 **     #######   #####   ##   #####  ##  ##  ####    ##    #####   ##        **
 **           ##                                                    ##        **
 **                                                                           **
 **                                                ... make the atoms dance   **
 **                                                                           **
 **            Copyright (C) by CP2K developers group (2000 - 2019)           **
 **                                                                           **
 *******************************************************************************


 TOTAL NUMBERS AND MAXIMUM NUMBERS

  Total number of            - Atomic kinds:                                   2
                             - Atoms:                                        192
                             - Shell sets:                                   384
                             - Shells:                                       704
                             - Primitive Cartesian functions:                960
                             - Cartesian basis functions:                   1536
                             - Spherical basis functions:                   1472

  Maximum angular momentum of- Orbital basis functions:                        2
                             - Local part of the GTH pseudopotential:          2
                             - Non-local part of the GTH pseudopotential:      0


 SCF PARAMETERS         Density guess:                                    ATOMIC
                        --------------------------------------------------------
                        max_scf:                                             300
                        max_scf_history:                                       0
                        max_diis:                                              4
                        --------------------------------------------------------
                        eps_scf:                                        1.00E-07
                        eps_scf_history:                                0.00E+00
                        eps_diis:                                       1.00E-01
                        eps_eigval:                                     1.00E-05
                        --------------------------------------------------------
                        level_shift [a.u.]:                                 0.00
                        --------------------------------------------------------
                        Mixing method:                            BROYDEN_MIXING
                                                charge density mixing in g-space
                        --------------------------------------------------------
                        No outer SCF

 Number of electrons:                                                        512
 Number of occupied orbitals:                                                256
 Number of molecular orbitals:                                               256

 Number of orbital functions:                                               1472
 Number of independent orbital functions:                                   1472

 Extrapolation method: initial_guess


 SCF WAVEFUNCTION OPTIMIZATION

  Step     Update method      Time    Convergence         Total energy    Change
  ------------------------------------------------------------------------------
     1 NoMix/Diag. 0.40E+00   10.3     0.99597286     -1087.3409577258 -1.09E+03
     2 Broy./Diag. 0.40E+00   15.6     0.28938912     -1012.8720147660  7.45E+01
     3 Broy./Diag. 0.40E+00   16.9     0.02680335     -1094.6574033380 -8.18E+01
     4 Broy./Diag. 0.40E+00   17.3     0.02740099     -1094.3588436327  2.99E-01
     5 Broy./Diag. 0.40E+00   17.6     0.00253462     -1095.2772768232 -9.18E-01
     6 Broy./Diag. 0.40E+00   18.8     0.00487982     -1095.3095137319 -3.22E-02
     7 Broy./Diag. 0.40E+00   19.1     0.00296026     -1095.4604340528 -1.51E-01
     8 Broy./Diag. 0.40E+00   20.2     0.00360317     -1095.5878025527 -1.27E-01
     9 Broy./Diag. 0.40E+00   22.5     0.00310878     -1095.6552446490 -6.74E-02
    10 Broy./Diag. 0.40E+00   23.9     0.00167531     -1095.6860094362 -3.08E-02
    11 Broy./Diag. 0.40E+00   23.7     0.00158946     -1095.6512051233  3.48E-02
    12 Broy./Diag. 0.40E+00   25.2     0.00060463     -1095.6635403948 -1.23E-02
    13 Broy./Diag. 0.40E+00   24.4     0.00056821     -1095.6863704899 -2.28E-02
    14 Broy./Diag. 0.40E+00   24.9     0.00029542     -1095.6899132812 -3.54E-03
    15 Broy./Diag. 0.40E+00   24.3     0.00027238     -1095.6845045323  5.41E-03
    16 Broy./Diag. 0.40E+00   24.8     0.00015423     -1095.6861924031 -1.69E-03
    17 Broy./Diag. 0.40E+00   24.6     0.00005515     -1095.6871052325 -9.13E-04
    18 Broy./Diag. 0.40E+00   24.7     0.00004393     -1095.6868353247  2.70E-04
    19 Broy./Diag. 0.40E+00   26.2     0.00001823     -1095.6866312187  2.04E-04
    20 Broy./Diag. 0.40E+00   26.4     0.00001169     -1095.6862577256  3.73E-04
    21 Broy./Diag. 0.40E+00   26.1     0.00001005     -1095.6866028653 -3.45E-04
    22 Broy./Diag. 0.40E+00   25.8     0.00000439     -1095.6867535798 -1.51E-04
    23 Broy./Diag. 0.40E+00   24.8     0.00000459     -1095.6866952226  5.84E-05
    24 Broy./Diag. 0.40E+00   25.6     0.00000230     -1095.6866175013  7.77E-05
    25 Broy./Diag. 0.40E+00   25.1     0.00000246     -1095.6865716926  4.58E-05
    26 Broy./Diag. 0.40E+00   24.6     0.00000149     -1095.6865687259  2.97E-06
    27 Broy./Diag. 0.40E+00   25.9     0.00000078     -1095.6865705101 -1.78E-06
    28 Broy./Diag. 0.40E+00   25.0     0.00000066     -1095.6865603763  1.01E-05
    29 Broy./Diag. 0.40E+00   24.4     0.00000026     -1095.6865536617  6.71E-06
    30 Broy./Diag. 0.40E+00   24.1     0.00000020     -1095.6865528918  7.70E-07
    31 Broy./Diag. 0.40E+00   24.6     0.00000020     -1095.6865536658 -7.74E-07
    32 Broy./Diag. 0.40E+00   25.2     0.00000008     -1095.6865535303  1.36E-07

  *** SCF run converged in    32 steps ***


  Electronic density on regular grids:       -512.0006374514       -0.0006374514
  Core density on regular grids:              511.9997139752       -0.0002860248
  Total charge density on r-space grids:       -0.0009234762
  Total charge density g-space grids:          -0.0009234762

  Overlap energy of the core charge distribution:               0.00000482187349
  Self energy of the core charge distribution:              -2838.21791979120962
  Core Hamiltonian energy:                                    821.77084573942989
  Hartree energy:                                            1185.58099561283370
  Exchange-correlation energy:                               -264.82047991327369

  Total energy:                                             -1095.68655353034615

 ENERGY| Total FORCE_EVAL ( QS ) energy (a.u.):            -1095.686554607681728


 ATOMIC FORCES in [a.u.]

 # Atom   Kind   Element          X              Y              Z
      1      1      O           0.10443455    -0.05678312    -0.05522694
      2      2      H          -0.08263446    -0.00809593    -0.02358432
      3      2      H          -0.01380167     0.00248424     0.04191426
      4      1      O           0.02413903    -0.09948948     0.04811850
      5      2      H           0.04198208     0.02055357    -0.03546069
      6      2      H          -0.03809565     0.03404607    -0.03306814
      7      1      O           0.02777074     0.00827660     0.09614178
      8      2      H          -0.00393745    -0.01768765    -0.02482449
      9      2      H          -0.00146294    -0.01106430    -0.06515166
     10      1      O          -0.05110965     0.06962199    -0.06582066
     11      2      H           0.01595878    -0.03054790     0.04257086
     12      2      H           0.00188853     0.00098769     0.03911791
     13      1      O          -0.05189349     0.00426331     0.05691405
     14      2      H           0.05552228     0.01396589     0.00699893
     15      2      H           0.00857704     0.00936385     0.02044507
     16      1      O          -0.02032331     0.12527949    -0.13655354
     17      2      H           0.01901721    -0.08850764    -0.00384329
     18      2      H           0.00479311     0.02654518     0.03328533
     19      1      O          -0.01671674    -0.01919502     0.04676432
     20      2      H           0.04093174     0.03433548    -0.01745901
     21      2      H          -0.01894019    -0.04602435    -0.06489105
     22      1      O          -0.02715010    -0.10123661    -0.12070773
     23      2      H           0.01188322     0.01873430    -0.04297294
     24      2      H           0.00175576     0.02074958     0.03356592
     25      1      O          -0.01317143     0.02514544     0.04870785
     26      2      H           0.02113611     0.01413863    -0.03581584
     27      2      H           0.01856522    -0.04321121    -0.08646908
     28      1      O           0.02526892     0.01080240    -0.01670894
     29      2      H           0.00498331    -0.00020523     0.00255660
     30      2      H          -0.01889877    -0.02307502    -0.00492833
     31      1      O           0.04307561     0.01619692    -0.13379676
     32      2      H          -0.04867275    -0.04359975     0.01061174
     33      2      H          -0.00161177     0.04877300     0.02416998
     34      1      O           0.07584011    -0.11090937    -0.07374022
     35      2      H           0.01027327     0.03008286     0.02000489
     36      2      H          -0.05152343     0.02021519    -0.02878456
     37      1      O           0.01316300    -0.07511376     0.01362113
     38      2      H          -0.00951846     0.03030360    -0.03962673
     39      2      H          -0.01168391     0.01557263     0.04806811
     40      1      O          -0.02925850    -0.02028584    -0.08543408
     41      2      H           0.00078468    -0.03138670    -0.00092780
     42      2      H           0.01368082     0.03438837    -0.04228151
     43      1      O          -0.03913565     0.03663601    -0.16418115
     44      2      H          -0.02258960    -0.02063866     0.02544889
     45      2      H           0.06180693    -0.05768544    -0.01644812
     46      1      O           0.00978720    -0.05748206     0.02115486
     47      2      H           0.00532532     0.01909694    -0.00672590
     48      2      H           0.02445102    -0.01795148     0.02254351
     49      1      O          -0.03013641     0.11536819    -0.12124236
     50      2      H           0.02080888    -0.03794403     0.05358368
     51      2      H           0.02145672     0.01731154    -0.04556294
     52      1      O          -0.05366869    -0.05877279     0.00271716
     53      2      H           0.00648888     0.02308433     0.00697909
     54      2      H           0.02722666     0.02355607    -0.05440280
     55      1      O           0.03833044     0.01475970    -0.13017980
     56      2      H          -0.00739066     0.03067145    -0.03461712
     57      2      H          -0.02741369    -0.03768766     0.00189677
     58      1      O           0.03969112    -0.02462077    -0.03890347
     59      2      H           0.00496314     0.01746982    -0.00258689
     60      2      H           0.00008637    -0.01117230    -0.07357305
     61      1      O          -0.05162600    -0.03473567    -0.10846272
     62      2      H          -0.00649524     0.01728274     0.04858826
     63      2      H           0.03340906     0.00910844     0.06466180
     64      1      O          -0.04602460     0.09444519     0.01653782
     65      2      H           0.04493625    -0.03070729    -0.03893769
     66      2      H          -0.01682080     0.00595798    -0.00825993
     67      1      O           0.03157017    -0.03516780    -0.06501944
     68      2      H           0.01560049     0.00996824     0.03039429
     69      2      H           0.00145936    -0.00778571     0.04478073
     70      1      O           0.02303039    -0.07929133    -0.07032328
     71      2      H          -0.01638259     0.02382246    -0.02452421
     72      2      H          -0.00330182    -0.02253278    -0.02163635
     73      1      O           0.00129722     0.06792296     0.10169707
     74      2      H          -0.00095203    -0.02408243     0.04759281
     75      2      H           0.00479097    -0.01499985    -0.04406205
     76      1      O          -0.02624359     0.09762039     0.09085237
     77      2      H           0.00457782    -0.06426130     0.01887469
     78      2      H           0.00777507     0.01897477    -0.03448600
     79      1      O          -0.07893291    -0.05837413    -0.08826136
     80      2      H           0.03270701     0.00369238    -0.01707288
     81      2      H           0.03838194    -0.03082287    -0.00569440
     82      1      O           0.03360792    -0.00491002     0.03438338
     83      2      H          -0.01594967    -0.02662315    -0.00271595
     84      2      H           0.00130736     0.00867288     0.02203985
     85      1      O          -0.07609322    -0.03622200     0.15728335
     86      2      H           0.06706869     0.01803108    -0.04237543
     87      2      H          -0.02899387     0.01939731     0.03401602
     88      1      O          -0.00632474     0.00117760     0.10735327
     89      2      H           0.02102050    -0.02154278     0.02540913
     90      2      H           0.01662795     0.00082005    -0.00701423
     91      1      O           0.03294994     0.02179831     0.04787116
     92      2      H          -0.01578981    -0.01353264    -0.00203635
     93      2      H          -0.02760825     0.00567371     0.03689031
     94      1      O          -0.07375896     0.06664425    -0.01696722
     95      2      H           0.06497039    -0.01890745     0.01363219
     96      2      H           0.01210995    -0.04795555     0.02623517
     97      1      O          -0.03406994    -0.01209207     0.10751858
     98      2      H           0.00380793     0.00167571    -0.00603789
     99      2      H           0.02031513    -0.04032438    -0.06074631
    100      1      O          -0.03826581     0.09287743    -0.02888815
    101      2      H           0.02185159    -0.01656439     0.03609373
    102      2      H           0.00784500    -0.02416745    -0.01465146
    103      1      O           0.01633553     0.06027218     0.06632209
    104      2      H          -0.01078576     0.04910632    -0.02508613
    105      2      H          -0.01781711    -0.02010789     0.01049717
    106      1      O           0.00506442    -0.05541655    -0.08012380
    107      2      H           0.00089046     0.02009565    -0.04179717
    108      2      H           0.00349740    -0.03205269     0.03999241
    109      1      O          -0.07750661    -0.05043311    -0.06131746
    110      2      H           0.01289018    -0.01534379    -0.00189534
    111      2      H           0.02452857     0.01365084    -0.04781663
    112      1      O          -0.01086232    -0.08064682    -0.08799183
    113      2      H          -0.00011843    -0.02424974     0.08152809
    114      2      H           0.05162005     0.01249179    -0.01538152
    115      1      O           0.00693735    -0.02741120    -0.01255642
    116      2      H          -0.00043896     0.02635238     0.01628423
    117      2      H          -0.01561716    -0.03956090    -0.01023767
    118      1      O          -0.01040896     0.05171926     0.06653060
    119      2      H           0.02784727     0.03437000    -0.01053459
    120      2      H           0.00140722     0.00203298     0.02018783
    121      1      O          -0.01037446     0.05308107    -0.14946822
    122      2      H          -0.01063393    -0.05001977     0.04892961
    123      2      H          -0.02062849     0.04245341    -0.01426930
    124      1      O           0.03362257    -0.02029738     0.01421645
    125      2      H          -0.01816781     0.04712787     0.00026567
    126      2      H           0.03023329    -0.01367422     0.01895225
    127      1      O           0.00959039     0.06957641    -0.04489899
    128      2      H          -0.00940649     0.00437729     0.05629051
    129      2      H          -0.01295664     0.02310743     0.00968865
    130      1      O           0.00015888    -0.05704990    -0.00311125
    131      2      H          -0.03782657     0.00897833     0.03407279
    132      2      H           0.00480807     0.00557116    -0.00429706
    133      1      O          -0.04657857     0.10151990     0.09903776
    134      2      H           0.00498152    -0.01849075    -0.00529540
    135      2      H           0.05740078    -0.04361343     0.04336388
    136      1      O          -0.07308169     0.01091872    -0.09746580
    137      2      H           0.02161331     0.05792496     0.02243304
    138      2      H           0.06088453    -0.04935012    -0.02388081
    139      1      O           0.03203779     0.08031528     0.10724422
    140      2      H          -0.04106166     0.04057498     0.05673718
    141      2      H           0.00540156    -0.01182729    -0.05518792
    142      1      O          -0.09447685     0.12556232    -0.11171847
    143      2      H          -0.02165282    -0.00618659    -0.04681750
    144      2      H           0.08366293    -0.05614582     0.05407113
    145      1      O           0.01605256     0.02349911     0.04058188
    146      2      H          -0.00684096    -0.01016239    -0.00366418
    147      2      H           0.01972156     0.00376481    -0.03581848
    148      1      O          -0.04347088    -0.05986379     0.11961362
    149      2      H          -0.00703494     0.00576382     0.02016645
    150      2      H           0.05032374     0.07239886     0.01007174
    151      1      O           0.02926835    -0.04947421     0.12268078
    152      2      H           0.00031363     0.01831610    -0.05761416
    153      2      H          -0.01176861    -0.01941923     0.01629443
    154      1      O           0.00036006     0.07191099    -0.00967629
    155      2      H          -0.03127374    -0.03555528    -0.01768792
    156      2      H          -0.00905390    -0.04737734     0.01827156
    157      1      O           0.04348961     0.04629910    -0.02864245
    158      2      H           0.03273191     0.00043120     0.00936421
    159      2      H          -0.05450619    -0.00250855     0.07212937
    160      1      O          -0.00252226     0.09911318    -0.03477640
    161      2      H          -0.01982866    -0.01115198     0.00417493
    162      2      H           0.00794450     0.01041111    -0.06691802
    163      1      O          -0.01285798     0.12101472     0.05213810
    164      2      H           0.00916955    -0.10394000     0.08821104
    165      2      H          -0.01379066     0.02528403     0.00389187
    166      1      O          -0.05482107    -0.02038810     0.06443373
    167      2      H           0.03321899     0.02128227    -0.02259383
    168      2      H          -0.01409699     0.00438409     0.04063456
    169      1      O           0.08508591    -0.08157212    -0.05439687
    170      2      H          -0.07523443    -0.00702472    -0.00212351
    171      2      H          -0.01182854    -0.02580536    -0.01766093
    172      1      O          -0.02131587    -0.09597915     0.04624969
    173      2      H          -0.03169989     0.02211601    -0.00058180
    174      2      H           0.05663671    -0.02221486    -0.02641959
    175      1      O          -0.05599565    -0.02844714     0.01615524
    176      2      H           0.06902404    -0.00171289    -0.04218341
    177      2      H          -0.00713738     0.04809806    -0.08883782
    178      1      O          -0.01549292     0.02538692     0.10624860
    179      2      H           0.00157363    -0.01500012    -0.03623713
    180      2      H          -0.01358634     0.05729395    -0.07561903
    181      1      O          -0.02769500    -0.05843999     0.02566653
    182      2      H           0.02410289    -0.00110205    -0.00200824
    183      2      H           0.01049307    -0.00160952    -0.01955408
    184      1      O           0.00307555     0.03312192     0.10268187
    185      2      H           0.02845869    -0.01140620    -0.07458594
    186      2      H           0.00920382    -0.03333029     0.04399844
    187      1      O          -0.00955384     0.04540570    -0.00383648
    188      2      H          -0.01059661     0.02740471    -0.02580329
    189      2      H          -0.00142513    -0.01587500    -0.02031480
    190      1      O           0.01154284     0.04460387     0.02840421
    191      2      H          -0.02146037     0.04358597     0.02837579
    192      2      H          -0.02033529     0.01196706    -0.04335273
 SUM OF ATOMIC FORCES           0.02607296     0.09516689    -0.56904047     0.57753233

 -------------------------------------------------------------------------------
 -                                                                             -
 -                                DBCSR STATISTICS                             -
 -                                                                             -
 -------------------------------------------------------------------------------
 COUNTER                                    TOTAL       BLAS       SMM       ACC
 flops     5 x     5 x   256            862963200       0.0%    100.0%      0.0%
 flops    13 x     5 x   256           1078471680       0.0%    100.0%      0.0%
 flops     5 x    13 x   256           1083962880       0.0%    100.0%      0.0%
 flops    13 x    13 x   256           1527651840       0.0%    100.0%      0.0%
 flops inhomo. stacks                           0       0.0%      0.0%      0.0%
 flops total                         4.553050E+09       0.0%    100.0%      0.0%
 flops max/rank                      4.553050E+09       0.0%    100.0%      0.0%
 matmuls inhomo. stacks                         0       0.0%      0.0%      0.0%
 matmuls total                             150051       0.0%    100.0%      0.0%
 number of processed stacks                  2574       0.0%    100.0%      0.0%
 average stack size                                     0.0      58.3       0.0
 marketing flops                    36.609982E+09
 -------------------------------------------------------------------------------
 # multiplications                             33
 max memory usage/rank              25.807991E+09
 # max total images/rank                        1
 # max 3D layers                                1
 # MPI messages exchanged                       0
 MPI messages size (bytes):
  total size                         0.000000E+00
  min size                           0.000000E+00
  max size                           0.000000E+00
  average size                       0.000000E+00
 MPI breakdown and total messages size (bytes):
             size <=      128                   0                        0
       128 < size <=     8192                   0                        0
      8192 < size <=    32768                   0                        0
     32768 < size <=   131072                   0                        0
    131072 < size <=  4194304                   0                        0
   4194304 < size <= 16777216                   0                        0
  16777216 < size                               0                        0
 -------------------------------------------------------------------------------

 MEMORY| Estimated peak process memory [MiB]                               24615

 -------------------------------------------------------------------------------
 -                                                                             -
 -                           R E F E R E N C E S                               -
 -                                                                             -
 -------------------------------------------------------------------------------
 
 CP2K version 7.1, the CP2K developers group (2019).
 CP2K is freely available from https://www.cp2k.org/ .

 Schuett, Ole; Messmer, Peter; Hutter, Juerg; VandeVondele, Joost. 
 Electronic Structure Calculations on Graphics Processing Units, John
 Wiley & Sons, Ltd, 173-190 (2016). 
 GPU-Accelerated Sparse Matrix-Matrix Multiplication for
 Linear Scaling Density Functional Theory.
 https://dx.doi.org/10.1002/9781118670712.ch8

 Borstnik, U; VandeVondele, J; Weber, V; Hutter, J. 
 PARALLEL COMPUTING, 40 (5-6), 47-58 (2014). 
 Sparse matrix multiplication: The distributed block-compressed sparse
 row library.
 https://dx.doi.org/10.1016/j.parco.2014.03.012

 Hutter, J; Iannuzzi, M; Schiffmann, F; VandeVondele, J. 
 WIREs Comput Mol Sci., 4 (1), 15-25 (2014). 
 CP2K: atomistic simulations of condensed matter systems.
 https://dx.doi.org/10.1002/wcms.1159

 Krack, M. 
 THEORETICAL CHEMISTRY ACCOUNTS, 114 (1-3), 145-152 (2005). 
 Pseudopotentials for H to Kr optimized for gradient-corrected
 exchange-correlation functionals.
 https://dx.doi.org/10.1007/s00214-005-0655-y

 VandeVondele, J; Krack, M; Mohamed, F; Parrinello, M; Chassaing, T;
 Hutter, J. COMPUTER PHYSICS COMMUNICATIONS, 167 (2), 103-128 (2005). 
 QUICKSTEP: Fast and accurate density functional calculations using a
 mixed Gaussian and plane waves approach.
 https://dx.doi.org/10.1016/j.cpc.2004.12.014

 Frigo, M; Johnson, SG. 
 PROCEEDINGS OF THE IEEE, 93 (2), 216-231 (2005). 
 The design and implementation of FFTW3.
 https://dx.doi.org/10.1109/JPROC.2004.840301

 Hartwigsen, C; Goedecker, S; Hutter, J. 
 PHYSICAL REVIEW B, 58 (7), 3641-3662 (1998). 
 Relativistic separable dual-space Gaussian pseudopotentials from H to Rn.
 https://dx.doi.org/10.1103/PhysRevB.58.3641

 Lippert, G; Hutter, J; Parrinello, M. 
 MOLECULAR PHYSICS, 92 (3), 477-487 (1997). 
 A hybrid Gaussian and plane wave density functional scheme.
 https://dx.doi.org/10.1080/002689797170220

 Goedecker, S; Teter, M; Hutter, J. 
 PHYSICAL REVIEW B, 54 (3), 1703-1710 (1996). 
 Separable dual-space Gaussian pseudopotentials.
 https://dx.doi.org/10.1103/PhysRevB.54.1703


 -------------------------------------------------------------------------------
 -                                                                             -
 -                                T I M I N G                                  -
 -                                                                             -
 -------------------------------------------------------------------------------
 SUBROUTINE                       CALLS  ASD         SELF TIME        TOTAL TIME
                                MAXIMUM       AVERAGE  MAXIMUM  AVERAGE  MAXIMUM
 CP2K                                 1  1.0    0.621    0.621  763.234  763.234
 qs_forces                            1  2.0    0.000    0.000  752.293  752.293
 qs_energies                          1  3.0    0.000    0.000  747.873  747.873
 scf_env_do_scf                       1  4.0    0.000    0.000  736.299  736.299
 scf_env_do_scf_inner_loop           32  5.0    0.005    0.005  736.298  736.298
 gspace_mixing                       31  6.0    4.369    4.369  292.106  292.106
 broyden_mixing                      31  7.0  260.850  260.850  260.850  260.850
 qs_scf_new_mos                      32  6.0    0.001    0.001  206.743  206.743
 eigensolver                         32  7.0    0.003    0.003  199.814  199.814
 pw_transfer                        428  9.9    0.040    0.040  143.662  143.662
 fft_wrap_pw1pw2                    362 10.9    0.007    0.007  139.970  139.970
 rebuild_ks_matrix                   33  6.9    0.000    0.000  137.162  137.162
 qs_ks_build_kohn_sham_matrix        33  7.9    0.011    0.011  137.162  137.162
 cp_fm_syevd                         32  8.0  134.989  134.989  135.122  135.122
 qs_ks_update_qs_env                 32  6.0    0.000    0.000  132.934  132.934
 fft_wrap_pw1pw2_70                 164 11.2   10.292   10.292  126.981  126.981
 qs_rho_update_rho                   33  6.0    0.000    0.000  107.108  107.108
 calculate_rho_elec                  33  7.0   37.270   37.270  107.108  107.108
 fft3d_s                            363 12.8   69.385   69.385   69.394   69.394
 density_rs2pw                       33  8.0    0.003    0.003   68.742   68.742
 cp_fm_cholesky_restore              96  8.0   64.575   64.575   64.575   64.575
 pw_scatter_s                       196 13.1   44.628   44.628   44.628   44.628
 sum_up_and_integrate                33  8.9    2.236    2.236   42.171   42.171
 pw_poisson_solve                    33  8.9   37.023   37.023   40.971   40.971
 integrate_v_rspace                  33  9.9    2.553    2.553   39.935   39.935
 potential_pw2rs                     33 10.9    0.280    0.280   36.081   36.081
 qs_vxc_create                       33  8.9    0.001    0.001   20.527   20.527
 xc_vxc_pw_create                    33  9.9    4.610    4.610   20.526   20.526
 xc_rho_set_and_dset_create          33 10.9    0.001    0.001   15.916   15.916
 -------------------------------------------------------------------------------

 The number of warnings for this run is : 0
 
 -------------------------------------------------------------------------------
  **** **** ******  **  PROGRAM ENDED AT                 2020-05-21 14:30:38.077
 ***** ** ***  *** **   PROGRAM RAN ON                                   gnode39
 **    ****   ******    PROGRAM RAN BY                               mayank.modi
 ***** **    ** ** **   PROGRAM PROCESS ID                                 22162
  **** **  *******  **  PROGRAM STOPPED IN /home/mayank.modi/ab-initio-thermodyn
                                           amics-of-water/mayank/cp2k_energy_cal
                                           culations
