 DBCSR| CPU Multiplication driver                                           XSMM
 DBCSR| Multrec recursion limit                                              512
 DBCSR| Multiplication stack size                                           1000
 DBCSR| Maximum elements for images                                    UNLIMITED
 DBCSR| Multiplicative factor virtual images                                   1
 DBCSR| Use multiplication densification                                       T
 DBCSR| Multiplication size stacks                                             3


  **** **** ******  **  PROGRAM STARTED AT               2020-05-20 18:01:18.261
 ***** ** ***  *** **   PROGRAM STARTED ON                               gnode39
 **    ****   ******    PROGRAM STARTED BY                           mayank.modi
 ***** **    ** ** **   PROGRAM PROCESS ID                                 15624
  **** **  *******  **  PROGRAM STARTED IN /home/mayank.modi/ab-initio-thermodyn
                                           amics-of-water/mayank/cp2k_energy_cal
                                           culations

 CP2K| version string:                                          CP2K version 7.1
 CP2K| source code revision number:                                  git:e635599
 CP2K| cp2kflags: omp libint fftw3 libxc xsmm spglib                            
 CP2K| is freely available from                            https://www.cp2k.org/
 CP2K| Program compiled at                          Mon Dec 23 19:23:12 CET 2019
 CP2K| Program compiled on                                                pc9404
 CP2K| Program compiled for                                Linux-x86-64-gfortran
 CP2K| Data directory path                                        /opt/cp2k/data
 CP2K| Input file name                                               ./input5.in

 GLOBAL| Force Environment number                                              1
 GLOBAL| Basis set file name                                           BASIS_SET
 GLOBAL| Potential file name                                      GTH_POTENTIALS
 GLOBAL| MM Potential file name                                     MM_POTENTIAL
 GLOBAL| Coordinate file name                                      __STD_INPUT__
 GLOBAL| Method name                                                        CP2K
 GLOBAL| Project name                                                   H2O_bulk
 GLOBAL| Preferred FFT library                                             FFTW3
 GLOBAL| Preferred diagonalization lib.                                       SL
 GLOBAL| Run type                                                   ENERGY_FORCE
 GLOBAL| All-to-all communication in single precision                          F
 GLOBAL| FFTs using library dependent lengths                                  F
 GLOBAL| Global print level                                                  LOW
 GLOBAL| MPI I/O enabled                                                       T
 GLOBAL| Total number of message passing processes                             1
 GLOBAL| Number of threads for this process                                   20
 GLOBAL| This output is from process                                           0
 GLOBAL| CPU model name                Intel(R) Xeon(R) CPU E5-2640 v4 @ 2.40GHz
 GLOBAL| CPUID                                                              1002
 GLOBAL| Compiled for CPUID                                                    0

 MEMORY| system memory details [Kb]
 MEMORY|                        rank 0           min           max       average
 MEMORY| MemTotal            131898148     131898148     131898148     131898148
 MEMORY| MemFree              92818324      92818324      92818324      92818324
 MEMORY| Buffers               3186884       3186884       3186884       3186884
 MEMORY| Cached               30343164      30343164      30343164      30343164
 MEMORY| Slab                  3969908       3969908       3969908       3969908
 MEMORY| SReclaimable          3265756       3265756       3265756       3265756
 MEMORY| MemLikelyFree       129614128     129614128     129614128     129614128


 GENERATE|  Preliminary Number of Bonds generated:                             0
 GENERATE|  Achieved consistency in connectivity generation.

 *******************************************************************************
 *******************************************************************************
 **                                                                           **
 **     #####                         ##              ##                      **
 **    ##   ##            ##          ##              ##                      **
 **   ##     ##                       ##            ######                    **
 **   ##     ##  ##   ##  ##   #####  ##  ##   ####   ##    #####    #####    **
 **   ##     ##  ##   ##  ##  ##      ## ##   ##      ##   ##   ##  ##   ##   **
 **   ##  ## ##  ##   ##  ##  ##      ####     ###    ##   ######   ######    **
 **    ##  ###   ##   ##  ##  ##      ## ##      ##   ##   ##       ##        **
 **     #######   #####   ##   #####  ##  ##  ####    ##    #####   ##        **
 **           ##                                                    ##        **
 **                                                                           **
 **                                                ... make the atoms dance   **
 **                                                                           **
 **            Copyright (C) by CP2K developers group (2000 - 2019)           **
 **                                                                           **
 *******************************************************************************


 TOTAL NUMBERS AND MAXIMUM NUMBERS

  Total number of            - Atomic kinds:                                   2
                             - Atoms:                                        192
                             - Shell sets:                                   384
                             - Shells:                                       704
                             - Primitive Cartesian functions:                960
                             - Cartesian basis functions:                   1536
                             - Spherical basis functions:                   1472

  Maximum angular momentum of- Orbital basis functions:                        2
                             - Local part of the GTH pseudopotential:          2
                             - Non-local part of the GTH pseudopotential:      0


 SCF PARAMETERS         Density guess:                                    ATOMIC
                        --------------------------------------------------------
                        max_scf:                                             300
                        max_scf_history:                                       0
                        max_diis:                                              4
                        --------------------------------------------------------
                        eps_scf:                                        1.00E-07
                        eps_scf_history:                                0.00E+00
                        eps_diis:                                       1.00E-01
                        eps_eigval:                                     1.00E-05
                        --------------------------------------------------------
                        level_shift [a.u.]:                                 0.00
                        --------------------------------------------------------
                        Mixing method:                            BROYDEN_MIXING
                                                charge density mixing in g-space
                        --------------------------------------------------------
                        No outer SCF

 Number of electrons:                                                        512
 Number of occupied orbitals:                                                256
 Number of molecular orbitals:                                               256

 Number of orbital functions:                                               1472
 Number of independent orbital functions:                                   1472

 Extrapolation method: initial_guess


 SCF WAVEFUNCTION OPTIMIZATION

  Step     Update method      Time    Convergence         Total energy    Change
  ------------------------------------------------------------------------------
     1 NoMix/Diag. 0.40E+00   10.4     1.02414607     -1087.9155948507 -1.09E+03
     2 Broy./Diag. 0.40E+00   15.7     0.29098989     -1015.2803725648  7.26E+01
     3 Broy./Diag. 0.40E+00   17.4     0.02741390     -1094.9562105333 -7.97E+01
     4 Broy./Diag. 0.40E+00   17.3     0.02808737     -1094.8385355389  1.18E-01
     5 Broy./Diag. 0.40E+00   17.9     0.00272005     -1095.7092863724 -8.71E-01
     6 Broy./Diag. 0.40E+00   19.3     0.00654696     -1095.6718483101  3.74E-02
     7 Broy./Diag. 0.40E+00   21.1     0.00408579     -1095.7768897691 -1.05E-01
     8 Broy./Diag. 0.40E+00   21.3     0.00716960     -1095.8816724459 -1.05E-01
     9 Broy./Diag. 0.40E+00   22.6     0.00378101     -1095.9580913045 -7.64E-02
    10 Broy./Diag. 0.40E+00   24.6     0.00206038     -1095.9700999264 -1.20E-02
    11 Broy./Diag. 0.40E+00   23.7     0.00193823     -1095.9311861510  3.89E-02
    12 Broy./Diag. 0.40E+00   23.9     0.00089717     -1095.9394393492 -8.25E-03
    13 Broy./Diag. 0.40E+00   23.9     0.00079091     -1095.9646728745 -2.52E-02
    14 Broy./Diag. 0.40E+00   25.0     0.00025164     -1095.9730126050 -8.34E-03
    15 Broy./Diag. 0.40E+00   24.4     0.00026066     -1095.9628900759  1.01E-02
    16 Broy./Diag. 0.40E+00   24.0     0.00010169     -1095.9607748648  2.12E-03
    17 Broy./Diag. 0.40E+00   24.5     0.00007246     -1095.9621546802 -1.38E-03
    18 Broy./Diag. 0.40E+00   23.7     0.00005168     -1095.9634020736 -1.25E-03
    19 Broy./Diag. 0.40E+00   24.4     0.00002655     -1095.9632826963  1.19E-04
    20 Broy./Diag. 0.40E+00   24.6     0.00002337     -1095.9622144733  1.07E-03
    21 Broy./Diag. 0.40E+00   24.0     0.00001229     -1095.9623161024 -1.02E-04
    22 Broy./Diag. 0.40E+00   23.6     0.00001019     -1095.9626701664 -3.54E-04
    23 Broy./Diag. 0.40E+00   24.2     0.00000720     -1095.9627066752 -3.65E-05
    24 Broy./Diag. 0.40E+00   25.0     0.00000365     -1095.9626220543  8.46E-05
    25 Broy./Diag. 0.40E+00   24.3     0.00000483     -1095.9624900132  1.32E-04
    26 Broy./Diag. 0.40E+00   23.9     0.00000181     -1095.9625387486 -4.87E-05
    27 Broy./Diag. 0.40E+00   24.1     0.00000203     -1095.9626127367 -7.40E-05
    28 Broy./Diag. 0.40E+00   24.1     0.00000079     -1095.9625950794  1.77E-05
    29 Broy./Diag. 0.40E+00   24.3     0.00000055     -1095.9625729762  2.21E-05
    30 Broy./Diag. 0.40E+00   23.7     0.00000038     -1095.9625738385 -8.62E-07
    31 Broy./Diag. 0.40E+00   23.9     0.00000019     -1095.9625809764 -7.14E-06
    32 Broy./Diag. 0.40E+00   24.7     0.00000015     -1095.9625822595 -1.28E-06
    33 Broy./Diag. 0.40E+00   23.9     0.00000011     -1095.9625807892  1.47E-06
    34 Broy./Diag. 0.40E+00   24.4     0.00000007     -1095.9625799585  8.31E-07

  *** SCF run converged in    34 steps ***


  Electronic density on regular grids:       -511.9998616445        0.0001383555
  Core density on regular grids:              511.9998461388       -0.0001538612
  Total charge density on r-space grids:       -0.0000155058
  Total charge density g-space grids:          -0.0000155058

  Overlap energy of the core charge distribution:               0.00000430268999
  Self energy of the core charge distribution:              -2838.21791979120962
  Core Hamiltonian energy:                                    821.49293382878420
  Hartree energy:                                            1185.65490912754126
  Exchange-correlation energy:                               -264.89250742625597

  Total energy:                                             -1095.96257995845008

 ENERGY| Total FORCE_EVAL ( QS ) energy (a.u.):            -1095.962581604568641


 ATOMIC FORCES in [a.u.]

 # Atom   Kind   Element          X              Y              Z
      1      1      O           0.03632743    -0.00901210     0.09050890
      2      2      H          -0.01449958    -0.00061744     0.00508883
      3      2      H           0.00230050     0.01945161    -0.00079611
      4      1      O           0.00450758     0.02509761     0.12130122
      5      2      H          -0.01976225     0.04342574    -0.04043311
      6      2      H          -0.01075241     0.00327304    -0.03144016
      7      1      O          -0.03590675    -0.01824793     0.10149613
      8      2      H           0.01141032    -0.02887866    -0.03366246
      9      2      H          -0.00332275     0.00018806     0.03371229
     10      1      O          -0.08530168    -0.07863131    -0.01957197
     11      2      H           0.02733048     0.03535162     0.01680025
     12      2      H           0.03145092    -0.01387616    -0.06713539
     13      1      O          -0.06757655     0.02203633     0.01782539
     14      2      H           0.07907628     0.02259548     0.00498596
     15      2      H           0.00439521    -0.03914243    -0.04311166
     16      1      O          -0.00900495     0.05775302     0.05050575
     17      2      H           0.06710362    -0.02990573    -0.03422251
     18      2      H          -0.03618290    -0.04259831    -0.04549579
     19      1      O           0.00612648     0.00247503    -0.00779408
     20      2      H          -0.01112009     0.01779440     0.03362310
     21      2      H          -0.01101436     0.00932597    -0.02924803
     22      1      O          -0.02812380     0.00740256    -0.09572555
     23      2      H           0.01359117     0.07016589    -0.01326890
     24      2      H          -0.00844172     0.03384612    -0.04496661
     25      1      O          -0.03179140    -0.04066322    -0.01377014
     26      2      H           0.03121877     0.03208050    -0.02691169
     27      2      H           0.01045211    -0.00992339     0.00886824
     28      1      O           0.02776392     0.09423012    -0.04925807
     29      2      H           0.02037586    -0.01102074    -0.05821060
     30      2      H          -0.00466816    -0.02293681     0.02873662
     31      1      O           0.01227955    -0.09206031     0.07370182
     32      2      H           0.01238697     0.00116976     0.01207404
     33      2      H          -0.00468027     0.01872295    -0.04647569
     34      1      O           0.04132966     0.07582745    -0.02840980
     35      2      H           0.00980569    -0.04737666     0.04052128
     36      2      H          -0.01177133     0.00733089     0.06333118
     37      1      O           0.08690841    -0.11842431    -0.06782748
     38      2      H          -0.03975488    -0.00358870    -0.05146557
     39      2      H          -0.05803242     0.03547499     0.08871648
     40      1      O          -0.00956590     0.04716547     0.00201764
     41      2      H          -0.01637101    -0.01403934     0.05141482
     42      2      H           0.01073966    -0.01636333     0.00818820
     43      1      O          -0.02357560     0.06024476     0.07449547
     44      2      H           0.02463172     0.02048355     0.02984658
     45      2      H          -0.01333686    -0.01618903     0.03249204
     46      1      O           0.00766413    -0.02545497     0.08960250
     47      2      H          -0.03073731     0.00043021    -0.00646931
     48      2      H           0.05144965    -0.02703259    -0.07176885
     49      1      O           0.08041689     0.02744118     0.08968266
     50      2      H          -0.07903246    -0.05486259     0.02939002
     51      2      H          -0.00204432     0.00893608    -0.04429823
     52      1      O          -0.06531308    -0.00037967    -0.08569363
     53      2      H           0.02348339    -0.00085595     0.01829674
     54      2      H           0.00377088     0.03482921    -0.00004438
     55      1      O           0.04352597     0.04185303    -0.18803874
     56      2      H           0.00334894     0.03506623     0.02991174
     57      2      H          -0.06170942    -0.06843871     0.04274562
     58      1      O          -0.01383126    -0.00150963    -0.11679108
     59      2      H           0.00342014     0.00333841     0.00963634
     60      2      H          -0.00265625     0.00774419     0.02747100
     61      1      O           0.06128909     0.05439636     0.02897949
     62      2      H          -0.02490272     0.02033652    -0.05692076
     63      2      H          -0.00177713     0.02467111    -0.00259589
     64      1      O           0.01518956    -0.04333384    -0.00196987
     65      2      H          -0.01760272    -0.03793913     0.01177572
     66      2      H          -0.01662726     0.04350544    -0.02668554
     67      1      O          -0.08337314     0.05863812     0.03217447
     68      2      H           0.01242941     0.01084536    -0.01160859
     69      2      H           0.02844401    -0.03981598     0.02962606
     70      1      O           0.08723566    -0.03257019    -0.07570775
     71      2      H          -0.07652092    -0.02919865    -0.02606139
     72      2      H           0.00523628     0.02132304    -0.02441256
     73      1      O          -0.04150960     0.06666786    -0.03876365
     74      2      H           0.01549552    -0.03529058     0.01251592
     75      2      H           0.02767152     0.02114638    -0.03377653
     76      1      O          -0.02442003     0.00467934    -0.00507826
     77      2      H          -0.00052073    -0.08198776    -0.00005218
     78      2      H          -0.01054354     0.02191711    -0.01455249
     79      1      O          -0.02275313    -0.07489611     0.08388807
     80      2      H          -0.02863896    -0.00150386    -0.05230266
     81      2      H           0.04634974    -0.01584732     0.00158190
     82      1      O           0.05590774     0.08026243    -0.02971951
     83      2      H           0.01730902    -0.00138763    -0.00793998
     84      2      H          -0.00701901     0.00605021    -0.02197738
     85      1      O           0.00736441    -0.06890124    -0.11726562
     86      2      H           0.01120707    -0.00775864    -0.02733192
     87      2      H          -0.00463584     0.03827416     0.02703656
     88      1      O          -0.04547192    -0.02602414     0.11557869
     89      2      H           0.02013339    -0.00975010     0.03518482
     90      2      H          -0.00123071     0.02591987     0.00918074
     91      1      O           0.03496316     0.05526149     0.07709643
     92      2      H           0.00968500     0.04937125     0.03634980
     93      2      H          -0.02971069     0.00851271     0.05996028
     94      1      O          -0.02201569    -0.01873902     0.06626482
     95      2      H           0.00408452     0.01947611     0.04276361
     96      2      H          -0.01462125     0.01818282    -0.02884221
     97      1      O          -0.04002740    -0.08550595     0.01846809
     98      2      H           0.01255532    -0.00548967     0.03297004
     99      2      H          -0.00612621     0.01423095     0.02520202
    100      1      O          -0.01487842    -0.11095063    -0.11571061
    101      2      H           0.02940465     0.00767575     0.07300388
    102      2      H          -0.05064313     0.03147397    -0.01605793
    103      1      O          -0.06092054    -0.07341116     0.09910011
    104      2      H           0.03694625    -0.02737432    -0.00297637
    105      2      H           0.00458913     0.03488524    -0.03196417
    106      1      O           0.00727108     0.02326952    -0.05201205
    107      2      H           0.03890597     0.00484797    -0.03171327
    108      2      H           0.01139405    -0.02789242    -0.01208600
    109      1      O          -0.01733636    -0.00964445    -0.00515813
    110      2      H          -0.00293921    -0.01377948     0.02951507
    111      2      H          -0.00252085    -0.03047794     0.03207773
    112      1      O          -0.03985517    -0.03469305    -0.01707775
    113      2      H           0.00691012    -0.02723163     0.02715543
    114      2      H           0.03814852    -0.04312228     0.04378114
    115      1      O           0.00616903     0.00324745    -0.06613901
    116      2      H           0.00660274     0.01339210    -0.00402902
    117      2      H           0.01140398     0.01074240    -0.03744986
    118      1      O          -0.02577822     0.11217836    -0.07714925
    119      2      H           0.01617047    -0.00896050     0.06514842
    120      2      H           0.01142497    -0.01802800    -0.05862051
    121      1      O           0.02600138    -0.06505219    -0.02317271
    122      2      H           0.00797685    -0.03083886     0.03010527
    123      2      H          -0.01345876    -0.01477053    -0.02529069
    124      1      O           0.06129422     0.05075927    -0.03225715
    125      2      H          -0.03517457     0.04326624    -0.01145083
    126      2      H          -0.00111915    -0.00778439     0.05481430
    127      1      O           0.04621726    -0.08872008     0.09674649
    128      2      H           0.00599896     0.04305192     0.00553637
    129      2      H          -0.01453385     0.01921063     0.03572012
    130      1      O           0.01069618    -0.09473036    -0.00667133
    131      2      H           0.05253598    -0.00718295    -0.04072966
    132      2      H          -0.03425207    -0.00524602    -0.00780314
    133      1      O          -0.01294998     0.07291446    -0.11457900
    134      2      H           0.01853104    -0.00385232     0.02400726
    135      2      H          -0.00064531    -0.01132833     0.02023074
    136      1      O          -0.05660414     0.00134120    -0.09138136
    137      2      H           0.04878041     0.01467939     0.00477311
    138      2      H          -0.01178664    -0.03262881     0.02339262
    139      1      O           0.01671022    -0.02781478     0.12076764
    140      2      H          -0.00475591     0.04561541    -0.03209431
    141      2      H          -0.01399623    -0.02547806    -0.03249551
    142      1      O           0.01343270    -0.06357204    -0.09809841
    143      2      H           0.02619941    -0.02168201     0.01246747
    144      2      H          -0.00167185    -0.02736870     0.03315358
    145      1      O          -0.02999363    -0.05820261     0.03771550
    146      2      H           0.01334499    -0.03308933    -0.02776942
    147      2      H          -0.00065742     0.02726177    -0.03102587
    148      1      O          -0.00086762     0.04488783     0.04696271
    149      2      H           0.00732409     0.03814127     0.00512166
    150      2      H           0.00762668     0.02048729    -0.01038093
    151      1      O          -0.02400614    -0.01104319    -0.04955812
    152      2      H          -0.01409310    -0.02970204    -0.01651884
    153      2      H           0.00834173     0.05926538    -0.03193083
    154      1      O           0.05259213    -0.09344509    -0.00852841
    155      2      H           0.01825347     0.02889586     0.01220528
    156      2      H          -0.03811382    -0.00824274    -0.03747298
    157      1      O          -0.06188651    -0.01711009    -0.01423265
    158      2      H           0.05048121    -0.00574196     0.03842276
    159      2      H          -0.01155905     0.01201708     0.05761638
    160      1      O           0.07679688    -0.06532957     0.13600944
    161      2      H          -0.02835344    -0.06810954    -0.04706902
    162      2      H          -0.01765847     0.07307584    -0.04216420
    163      1      O          -0.06282587     0.08710392     0.09353218
    164      2      H           0.01013225     0.01158349     0.07536879
    165      2      H           0.02006469    -0.00664033    -0.04606759
    166      1      O           0.00945546     0.02266682     0.09803140
    167      2      H           0.00645611     0.05334578     0.01352418
    168      2      H           0.01290502     0.01944136    -0.05255030
    169      1      O           0.03215671    -0.06120967     0.13023064
    170      2      H          -0.02037751    -0.01194166    -0.03423664
    171      2      H           0.02402117     0.02941317    -0.04088685
    172      1      O          -0.01615986     0.07116746     0.00054456
    173      2      H          -0.00150124    -0.02107581    -0.03690206
    174      2      H           0.02676098    -0.01421867    -0.06301218
    175      1      O          -0.02792868     0.03510431    -0.05073914
    176      2      H          -0.00173096     0.01894200     0.03116827
    177      2      H           0.06478073     0.02014253    -0.03866442
    178      1      O          -0.02651506     0.05193851    -0.02220441
    179      2      H          -0.02399515     0.02248145     0.00384882
    180      2      H           0.04857964     0.00160427     0.00615717
    181      1      O          -0.03638562    -0.06133896    -0.12746884
    182      2      H          -0.01822087    -0.03147840     0.00707133
    183      2      H           0.07053784    -0.00253620     0.02412254
    184      1      O          -0.00034288    -0.04520723     0.07444981
    185      2      H          -0.00507714     0.01952541     0.00910942
    186      2      H           0.00715118     0.01878338     0.00668994
    187      1      O           0.04949177     0.01024110     0.11313735
    188      2      H          -0.03342251     0.00627923    -0.07028770
    189      2      H          -0.00616760    -0.05009038     0.00056355
    190      1      O          -0.02201555    -0.21060694     0.00727509
    191      2      H          -0.00847871     0.20424381    -0.02714971
    192      2      H           0.02278003     0.01517443     0.04994540
 SUM OF ATOMIC FORCES           0.17680794    -0.16596042     0.04704773     0.24701700

 -------------------------------------------------------------------------------
 -                                                                             -
 -                                DBCSR STATISTICS                             -
 -                                                                             -
 -------------------------------------------------------------------------------
 COUNTER                                    TOTAL       BLAS       SMM       ACC
 flops     5 x     5 x   256           1284416000       0.0%    100.0%      0.0%
 flops    13 x     5 x   256           1615577600       0.0%    100.0%      0.0%
 flops     5 x    13 x   256           1617907200       0.0%    100.0%      0.0%
 flops    13 x    13 x   256           2201704960       0.0%    100.0%      0.0%
 flops inhomo. stacks                           0       0.0%      0.0%      0.0%
 flops total                         6.719606E+09       0.0%    100.0%      0.0%
 flops max/rank                      6.719606E+09       0.0%    100.0%      0.0%
 matmuls inhomo. stacks                         0       0.0%      0.0%      0.0%
 matmuls total                             222950       0.0%    100.0%      0.0%
 number of processed stacks                  2730       0.0%    100.0%      0.0%
 average stack size                                     0.0      81.7       0.0
 marketing flops                    38.828769E+09
 -------------------------------------------------------------------------------
 # multiplications                             35
 max memory usage/rank              25.814880E+09
 # max total images/rank                        1
 # max 3D layers                                1
 # MPI messages exchanged                       0
 MPI messages size (bytes):
  total size                         0.000000E+00
  min size                           0.000000E+00
  max size                           0.000000E+00
  average size                       0.000000E+00
 MPI breakdown and total messages size (bytes):
             size <=      128                   0                        0
       128 < size <=     8192                   0                        0
      8192 < size <=    32768                   0                        0
     32768 < size <=   131072                   0                        0
    131072 < size <=  4194304                   0                        0
   4194304 < size <= 16777216                   0                        0
  16777216 < size                               0                        0
 -------------------------------------------------------------------------------

 MEMORY| Estimated peak process memory [MiB]                               24621

 -------------------------------------------------------------------------------
 -                                                                             -
 -                           R E F E R E N C E S                               -
 -                                                                             -
 -------------------------------------------------------------------------------
 
 CP2K version 7.1, the CP2K developers group (2019).
 CP2K is freely available from https://www.cp2k.org/ .

 Schuett, Ole; Messmer, Peter; Hutter, Juerg; VandeVondele, Joost. 
 Electronic Structure Calculations on Graphics Processing Units, John
 Wiley & Sons, Ltd, 173-190 (2016). 
 GPU-Accelerated Sparse Matrix-Matrix Multiplication for
 Linear Scaling Density Functional Theory.
 https://dx.doi.org/10.1002/9781118670712.ch8

 Borstnik, U; VandeVondele, J; Weber, V; Hutter, J. 
 PARALLEL COMPUTING, 40 (5-6), 47-58 (2014). 
 Sparse matrix multiplication: The distributed block-compressed sparse
 row library.
 https://dx.doi.org/10.1016/j.parco.2014.03.012

 Hutter, J; Iannuzzi, M; Schiffmann, F; VandeVondele, J. 
 WIREs Comput Mol Sci., 4 (1), 15-25 (2014). 
 CP2K: atomistic simulations of condensed matter systems.
 https://dx.doi.org/10.1002/wcms.1159

 Krack, M. 
 THEORETICAL CHEMISTRY ACCOUNTS, 114 (1-3), 145-152 (2005). 
 Pseudopotentials for H to Kr optimized for gradient-corrected
 exchange-correlation functionals.
 https://dx.doi.org/10.1007/s00214-005-0655-y

 VandeVondele, J; Krack, M; Mohamed, F; Parrinello, M; Chassaing, T;
 Hutter, J. COMPUTER PHYSICS COMMUNICATIONS, 167 (2), 103-128 (2005). 
 QUICKSTEP: Fast and accurate density functional calculations using a
 mixed Gaussian and plane waves approach.
 https://dx.doi.org/10.1016/j.cpc.2004.12.014

 Frigo, M; Johnson, SG. 
 PROCEEDINGS OF THE IEEE, 93 (2), 216-231 (2005). 
 The design and implementation of FFTW3.
 https://dx.doi.org/10.1109/JPROC.2004.840301

 Hartwigsen, C; Goedecker, S; Hutter, J. 
 PHYSICAL REVIEW B, 58 (7), 3641-3662 (1998). 
 Relativistic separable dual-space Gaussian pseudopotentials from H to Rn.
 https://dx.doi.org/10.1103/PhysRevB.58.3641

 Lippert, G; Hutter, J; Parrinello, M. 
 MOLECULAR PHYSICS, 92 (3), 477-487 (1997). 
 A hybrid Gaussian and plane wave density functional scheme.
 https://dx.doi.org/10.1080/002689797170220

 Goedecker, S; Teter, M; Hutter, J. 
 PHYSICAL REVIEW B, 54 (3), 1703-1710 (1996). 
 Separable dual-space Gaussian pseudopotentials.
 https://dx.doi.org/10.1103/PhysRevB.54.1703


 -------------------------------------------------------------------------------
 -                                                                             -
 -                                T I M I N G                                  -
 -                                                                             -
 -------------------------------------------------------------------------------
 SUBROUTINE                       CALLS  ASD         SELF TIME        TOTAL TIME
                                MAXIMUM       AVERAGE  MAXIMUM  AVERAGE  MAXIMUM
 CP2K                                 1  1.0    0.629    0.629  796.766  796.766
 qs_forces                            1  2.0    0.000    0.000  785.750  785.750
 qs_energies                          1  3.0    0.000    0.000  781.918  781.918
 scf_env_do_scf                       1  4.0    0.000    0.000  770.436  770.436
 scf_env_do_scf_inner_loop           34  5.0    0.005    0.005  770.436  770.436
 gspace_mixing                       33  6.0    4.641    4.641  309.517  309.517
 broyden_mixing                      33  7.0  277.195  277.195  277.195  277.195
 qs_scf_new_mos                      34  6.0    0.001    0.001  219.953  219.953
 eigensolver                         34  7.0    0.004    0.004  216.203  216.203
 cp_fm_syevd                         34  8.0  146.172  146.172  146.329  146.329
 pw_transfer                        454  9.9    0.043    0.043  143.307  143.307
 fft_wrap_pw1pw2                    384 10.9    0.006    0.006  139.715  139.715
 rebuild_ks_matrix                   35  6.9    0.000    0.000  139.112  139.112
 qs_ks_build_kohn_sham_matrix        35  7.9    0.009    0.009  139.112  139.112
 qs_ks_update_qs_env                 34  6.0    0.000    0.000  135.539  135.539
 fft_wrap_pw1pw2_70                 174 11.2   10.640   10.640  127.967  127.967
 qs_rho_update_rho                   35  6.0    0.000    0.000  108.292  108.292
 calculate_rho_elec                  35  7.0   37.807   37.807  108.292  108.292
 cp_fm_cholesky_restore             102  8.0   69.746   69.746   69.746   69.746
 density_rs2pw                       35  8.0    0.003    0.003   69.459   69.459
 fft3d_s                            385 12.8   68.133   68.133   68.141   68.141
 pw_scatter_s                       208 13.1   46.616   46.616   46.616   46.616
 pw_poisson_solve                    35  8.9   39.840   39.840   43.688   43.688
 sum_up_and_integrate                35  8.9    2.170    2.170   40.050   40.050
 integrate_v_rspace                  35  9.9    3.163    3.163   37.880   37.880
 potential_pw2rs                     35 10.9    0.276    0.276   34.666   34.666
 qs_vxc_create                       35  8.9    0.001    0.001   21.332   21.332
 xc_vxc_pw_create                    35  9.9    4.866    4.866   21.331   21.331
 xc_rho_set_and_dset_create          35 10.9    0.001    0.001   16.465   16.465
 -------------------------------------------------------------------------------

 The number of warnings for this run is : 0
 
 -------------------------------------------------------------------------------
  **** **** ******  **  PROGRAM ENDED AT                 2020-05-20 18:14:35.139
 ***** ** ***  *** **   PROGRAM RAN ON                                   gnode39
 **    ****   ******    PROGRAM RAN BY                               mayank.modi
 ***** **    ** ** **   PROGRAM PROCESS ID                                 15624
  **** **  *******  **  PROGRAM STOPPED IN /home/mayank.modi/ab-initio-thermodyn
                                           amics-of-water/mayank/cp2k_energy_cal
                                           culations
