 DBCSR| CPU Multiplication driver                                           XSMM
 DBCSR| Multrec recursion limit                                              512
 DBCSR| Multiplication stack size                                           1000
 DBCSR| Maximum elements for images                                    UNLIMITED
 DBCSR| Multiplicative factor virtual images                                   1
 DBCSR| Use multiplication densification                                       T
 DBCSR| Multiplication size stacks                                             3


  **** **** ******  **  PROGRAM STARTED AT               2020-05-21 08:57:22.139
 ***** ** ***  *** **   PROGRAM STARTED ON                               gnode39
 **    ****   ******    PROGRAM STARTED BY                           mayank.modi
 ***** **    ** ** **   PROGRAM PROCESS ID                                 14442
  **** **  *******  **  PROGRAM STARTED IN /home/mayank.modi/ab-initio-thermodyn
                                           amics-of-water/mayank/cp2k_energy_cal
                                           culations

 CP2K| version string:                                          CP2K version 7.1
 CP2K| source code revision number:                                  git:e635599
 CP2K| cp2kflags: omp libint fftw3 libxc xsmm spglib                            
 CP2K| is freely available from                            https://www.cp2k.org/
 CP2K| Program compiled at                          Mon Dec 23 19:23:12 CET 2019
 CP2K| Program compiled on                                                pc9404
 CP2K| Program compiled for                                Linux-x86-64-gfortran
 CP2K| Data directory path                                        /opt/cp2k/data
 CP2K| Input file name                                              ./input73.in

 GLOBAL| Force Environment number                                              1
 GLOBAL| Basis set file name                                           BASIS_SET
 GLOBAL| Potential file name                                      GTH_POTENTIALS
 GLOBAL| MM Potential file name                                     MM_POTENTIAL
 GLOBAL| Coordinate file name                                      __STD_INPUT__
 GLOBAL| Method name                                                        CP2K
 GLOBAL| Project name                                                   H2O_bulk
 GLOBAL| Preferred FFT library                                             FFTW3
 GLOBAL| Preferred diagonalization lib.                                       SL
 GLOBAL| Run type                                                   ENERGY_FORCE
 GLOBAL| All-to-all communication in single precision                          F
 GLOBAL| FFTs using library dependent lengths                                  F
 GLOBAL| Global print level                                                  LOW
 GLOBAL| MPI I/O enabled                                                       T
 GLOBAL| Total number of message passing processes                             1
 GLOBAL| Number of threads for this process                                   20
 GLOBAL| This output is from process                                           0
 GLOBAL| CPU model name                Intel(R) Xeon(R) CPU E5-2640 v4 @ 2.40GHz
 GLOBAL| CPUID                                                              1002
 GLOBAL| Compiled for CPUID                                                    0

 MEMORY| system memory details [Kb]
 MEMORY|                        rank 0           min           max       average
 MEMORY| MemTotal            131898148     131898148     131898148     131898148
 MEMORY| MemFree              88691048      88691048      88691048      88691048
 MEMORY| Buffers               3187120       3187120       3187120       3187120
 MEMORY| Cached               34124876      34124876      34124876      34124876
 MEMORY| Slab                  3929640       3929640       3929640       3929640
 MEMORY| SReclaimable          3268540       3268540       3268540       3268540
 MEMORY| MemLikelyFree       129271584     129271584     129271584     129271584


 GENERATE|  Preliminary Number of Bonds generated:                             0
 GENERATE|  Achieved consistency in connectivity generation.

 *******************************************************************************
 *******************************************************************************
 **                                                                           **
 **     #####                         ##              ##                      **
 **    ##   ##            ##          ##              ##                      **
 **   ##     ##                       ##            ######                    **
 **   ##     ##  ##   ##  ##   #####  ##  ##   ####   ##    #####    #####    **
 **   ##     ##  ##   ##  ##  ##      ## ##   ##      ##   ##   ##  ##   ##   **
 **   ##  ## ##  ##   ##  ##  ##      ####     ###    ##   ######   ######    **
 **    ##  ###   ##   ##  ##  ##      ## ##      ##   ##   ##       ##        **
 **     #######   #####   ##   #####  ##  ##  ####    ##    #####   ##        **
 **           ##                                                    ##        **
 **                                                                           **
 **                                                ... make the atoms dance   **
 **                                                                           **
 **            Copyright (C) by CP2K developers group (2000 - 2019)           **
 **                                                                           **
 *******************************************************************************


 TOTAL NUMBERS AND MAXIMUM NUMBERS

  Total number of            - Atomic kinds:                                   2
                             - Atoms:                                        192
                             - Shell sets:                                   384
                             - Shells:                                       704
                             - Primitive Cartesian functions:                960
                             - Cartesian basis functions:                   1536
                             - Spherical basis functions:                   1472

  Maximum angular momentum of- Orbital basis functions:                        2
                             - Local part of the GTH pseudopotential:          2
                             - Non-local part of the GTH pseudopotential:      0


 SCF PARAMETERS         Density guess:                                    ATOMIC
                        --------------------------------------------------------
                        max_scf:                                             300
                        max_scf_history:                                       0
                        max_diis:                                              4
                        --------------------------------------------------------
                        eps_scf:                                        1.00E-07
                        eps_scf_history:                                0.00E+00
                        eps_diis:                                       1.00E-01
                        eps_eigval:                                     1.00E-05
                        --------------------------------------------------------
                        level_shift [a.u.]:                                 0.00
                        --------------------------------------------------------
                        Mixing method:                            BROYDEN_MIXING
                                                charge density mixing in g-space
                        --------------------------------------------------------
                        No outer SCF

 Number of electrons:                                                        512
 Number of occupied orbitals:                                                256
 Number of molecular orbitals:                                               256

 Number of orbital functions:                                               1472
 Number of independent orbital functions:                                   1472

 Extrapolation method: initial_guess


 SCF WAVEFUNCTION OPTIMIZATION

  Step     Update method      Time    Convergence         Total energy    Change
  ------------------------------------------------------------------------------
     1 NoMix/Diag. 0.40E+00   10.6     0.99619662     -1087.2455943345 -1.09E+03
     2 Broy./Diag. 0.40E+00   15.8     0.29562361     -1013.0027798967  7.42E+01
     3 Broy./Diag. 0.40E+00   17.8     0.02509922     -1094.8023741293 -8.18E+01
     4 Broy./Diag. 0.40E+00   18.0     0.03022585     -1094.3493263613  4.53E-01
     5 Broy./Diag. 0.40E+00   18.8     0.00268993     -1095.2531888270 -9.04E-01
     6 Broy./Diag. 0.40E+00   19.8     0.00373308     -1095.2774679246 -2.43E-02
     7 Broy./Diag. 0.40E+00   20.9     0.00221119     -1095.4224397937 -1.45E-01
     8 Broy./Diag. 0.40E+00   22.9     0.00340270     -1095.5352440087 -1.13E-01
     9 Broy./Diag. 0.40E+00   22.8     0.00293048     -1095.6132199590 -7.80E-02
    10 Broy./Diag. 0.40E+00   25.2     0.00160154     -1095.6345611365 -2.13E-02
    11 Broy./Diag. 0.40E+00   25.5     0.00125186     -1095.6148119059  1.97E-02
    12 Broy./Diag. 0.40E+00   26.3     0.00053139     -1095.6199342200 -5.12E-03
    13 Broy./Diag. 0.40E+00   25.8     0.00044495     -1095.6376897559 -1.78E-02
    14 Broy./Diag. 0.40E+00   26.1     0.00020398     -1095.6444468547 -6.76E-03
    15 Broy./Diag. 0.40E+00   25.2     0.00027165     -1095.6365772014  7.87E-03
    16 Broy./Diag. 0.40E+00   24.4     0.00011308     -1095.6364974303  7.98E-05
    17 Broy./Diag. 0.40E+00   24.7     0.00007192     -1095.6385831134 -2.09E-03
    18 Broy./Diag. 0.40E+00   24.8     0.00003688     -1095.6399990117 -1.42E-03
    19 Broy./Diag. 0.40E+00   25.3     0.00001711     -1095.6393392849  6.60E-04
    20 Broy./Diag. 0.40E+00   24.7     0.00001681     -1095.6383306022  1.01E-03
    21 Broy./Diag. 0.40E+00   25.2     0.00000993     -1095.6387265638 -3.96E-04
    22 Broy./Diag. 0.40E+00   25.3     0.00000638     -1095.6390006723 -2.74E-04
    23 Broy./Diag. 0.40E+00   24.9     0.00000654     -1095.6389619904  3.87E-05
    24 Broy./Diag. 0.40E+00   24.2     0.00000145     -1095.6388533479  1.09E-04
    25 Broy./Diag. 0.40E+00   25.1     0.00000251     -1095.6388130410  4.03E-05
    26 Broy./Diag. 0.40E+00   25.0     0.00000112     -1095.6388343006 -2.13E-05
    27 Broy./Diag. 0.40E+00   24.5     0.00000083     -1095.6388463140 -1.20E-05
    28 Broy./Diag. 0.40E+00   25.4     0.00000078     -1095.6388484306 -2.12E-06
    29 Broy./Diag. 0.40E+00   24.3     0.00000031     -1095.6388499370 -1.51E-06
    30 Broy./Diag. 0.40E+00   24.2     0.00000030     -1095.6388458264  4.11E-06
    31 Broy./Diag. 0.40E+00   24.9     0.00000014     -1095.6388521688 -6.34E-06
    32 Broy./Diag. 0.40E+00   25.4     0.00000010     -1095.6388577023 -5.53E-06
    33 Broy./Diag. 0.40E+00   24.7     0.00000008     -1095.6388593975 -1.70E-06

  *** SCF run converged in    33 steps ***


  Electronic density on regular grids:       -512.0005250674       -0.0005250674
  Core density on regular grids:              512.0001709333        0.0001709333
  Total charge density on r-space grids:       -0.0003541340
  Total charge density g-space grids:          -0.0003541340

  Overlap energy of the core charge distribution:               0.00000500893934
  Self energy of the core charge distribution:              -2838.21791979120962
  Core Hamiltonian energy:                                    821.55772652390056
  Hartree energy:                                            1185.78034994654263
  Exchange-correlation energy:                               -264.75902108564270

  Total energy:                                             -1095.63885939746979

 ENERGY| Total FORCE_EVAL ( QS ) energy (a.u.):            -1095.638856324646440


 ATOMIC FORCES in [a.u.]

 # Atom   Kind   Element          X              Y              Z
      1      1      O           0.06101236    -0.07719992    -0.15299042
      2      2      H          -0.03850086     0.01508864    -0.00528717
      3      2      H          -0.00331683     0.03910098     0.03597354
      4      1      O          -0.04346545     0.06101739    -0.00881993
      5      2      H           0.00298605    -0.01269795     0.01379989
      6      2      H           0.01416918    -0.03306829    -0.02286108
      7      1      O          -0.00977104    -0.02262604     0.02339210
      8      2      H          -0.02256854     0.00736533    -0.02189637
      9      2      H          -0.01367975     0.03244550     0.00033754
     10      1      O          -0.05492981     0.09306418     0.02649080
     11      2      H           0.00733916     0.01319454    -0.00559424
     12      2      H           0.01642290     0.01122683     0.01730567
     13      1      O           0.01498342    -0.05991453     0.02688525
     14      2      H           0.01257760     0.04379007     0.01481331
     15      2      H           0.00525154     0.01723021    -0.01035392
     16      1      O          -0.05458873    -0.06174819    -0.00381084
     17      2      H           0.01030460    -0.02759862     0.01843433
     18      2      H           0.02868566     0.02879901     0.00594820
     19      1      O           0.03942456     0.04115678     0.09640400
     20      2      H          -0.01312566    -0.03854665     0.02125756
     21      2      H           0.00755468     0.03323152    -0.02952212
     22      1      O           0.05855025     0.01344727     0.07463300
     23      2      H          -0.00965843    -0.00330526     0.04335984
     24      2      H          -0.03967732     0.02797774     0.06185140
     25      1      O           0.05492918    -0.03689106    -0.11808567
     26      2      H          -0.00416474    -0.00178289    -0.01510390
     27      2      H          -0.03157977    -0.02601701     0.02557578
     28      1      O           0.00829500     0.00176401    -0.06709229
     29      2      H           0.01743608    -0.00167146     0.00647083
     30      2      H          -0.00485271     0.02070859    -0.00592936
     31      1      O           0.04271005    -0.05155586     0.04467590
     32      2      H          -0.00588789     0.01419166     0.03425359
     33      2      H          -0.00286665     0.04540558     0.03264021
     34      1      O           0.06269365    -0.01836793     0.11988216
     35      2      H          -0.00682511    -0.00237464    -0.03286301
     36      2      H          -0.02815182     0.02003277     0.05324368
     37      1      O          -0.04182553     0.08665132     0.10587823
     38      2      H           0.03884517    -0.05413643     0.03121760
     39      2      H          -0.00785623     0.00477464     0.02807917
     40      1      O          -0.02281887    -0.01717311     0.06893232
     41      2      H           0.01586924    -0.02174611    -0.03228342
     42      2      H           0.04695872     0.02950348    -0.02665448
     43      1      O           0.01712735    -0.01956644    -0.14525629
     44      2      H          -0.02118450    -0.02880094     0.02659072
     45      2      H           0.00604550     0.01281466    -0.03474012
     46      1      O          -0.01269369    -0.05214858     0.07515367
     47      2      H           0.01048056    -0.02607733     0.03730956
     48      2      H          -0.00084598     0.06293330    -0.03362494
     49      1      O           0.06673845     0.02974971    -0.09329339
     50      2      H          -0.04152713    -0.02539372    -0.01062274
     51      2      H           0.00434152    -0.00707259     0.00862383
     52      1      O           0.06074204     0.04447841     0.02918243
     53      2      H          -0.02082296     0.05820845    -0.05979975
     54      2      H          -0.01809478    -0.00600395    -0.03354754
     55      1      O          -0.01425401    -0.07494894     0.06854910
     56      2      H           0.00862211     0.05769386     0.00936199
     57      2      H          -0.01572998     0.01493347    -0.01695196
     58      1      O           0.03395339    -0.07315067    -0.01532513
     59      2      H          -0.05546808     0.02828129     0.04918611
     60      2      H           0.00089423    -0.04256988    -0.03005217
     61      1      O          -0.06168752     0.10315074     0.01300001
     62      2      H           0.00848200    -0.08263141     0.00000417
     63      2      H           0.03291733     0.02592899     0.01561564
     64      1      O          -0.05289775    -0.06988397    -0.01911999
     65      2      H           0.02981915     0.01332312    -0.02554618
     66      2      H          -0.01184850    -0.01233355     0.01228315
     67      1      O          -0.01240563     0.01704308    -0.00445752
     68      2      H           0.00179928     0.00608365     0.06265628
     69      2      H           0.02359345     0.01349481     0.03821146
     70      1      O          -0.00554192    -0.07861986     0.13142807
     71      2      H          -0.01205974     0.04144224    -0.05162632
     72      2      H           0.01973868    -0.00845547     0.02030025
     73      1      O           0.01876558    -0.01788730     0.13458645
     74      2      H           0.01000644    -0.01478228     0.05730574
     75      2      H          -0.02212116    -0.04392655    -0.07738787
     76      1      O           0.02738017     0.02433970     0.15029533
     77      2      H          -0.00394867    -0.06751537    -0.02175113
     78      2      H          -0.06342693     0.01656896    -0.06956750
     79      1      O           0.02260486    -0.03046807     0.11909189
     80      2      H          -0.00638094     0.03376629    -0.04387687
     81      2      H           0.00140786     0.01040252    -0.05334727
     82      1      O          -0.06556214     0.10610639     0.01033571
     83      2      H           0.01339412    -0.04449127    -0.00346972
     84      2      H           0.03194983    -0.01913237     0.11006102
     85      1      O           0.00171483     0.01547711     0.12620459
     86      2      H           0.01736477     0.02680449    -0.04532429
     87      2      H          -0.02712292     0.03012473     0.00829887
     88      1      O           0.00150732     0.05755702    -0.02422324
     89      2      H          -0.00278058    -0.00329151     0.03114633
     90      2      H          -0.00606121     0.01436165     0.00676169
     91      1      O           0.01966495     0.00816841     0.09124653
     92      2      H           0.00955317     0.04306564    -0.04440187
     93      2      H          -0.04639231     0.00874795    -0.03948296
     94      1      O          -0.06588483    -0.02297188     0.02908697
     95      2      H           0.01812959    -0.03547559    -0.02878927
     96      2      H          -0.00592056    -0.04189091     0.03837208
     97      1      O          -0.05447803    -0.04998246    -0.09661348
     98      2      H           0.02614251     0.02909523     0.00856032
     99      2      H           0.01809725    -0.04130694    -0.01841313
    100      1      O           0.05317090    -0.04378188    -0.06657070
    101      2      H           0.00510627     0.02326731    -0.00617420
    102      2      H          -0.03772456     0.01563939     0.03752763
    103      1      O          -0.00721223    -0.03779108    -0.08162843
    104      2      H          -0.01936131    -0.02604621    -0.04255486
    105      2      H          -0.01894286    -0.01258009    -0.04591165
    106      1      O           0.01493651    -0.04405856    -0.09330193
    107      2      H           0.00610398    -0.01861734     0.01507470
    108      2      H           0.02231831    -0.01615193     0.03718618
    109      1      O          -0.03808672    -0.01940287    -0.06253703
    110      2      H          -0.00023128     0.02234923    -0.04916223
    111      2      H           0.00064727    -0.02043922     0.01098103
    112      1      O          -0.04056161    -0.02685388    -0.03127643
    113      2      H          -0.00182095    -0.00307672     0.06518787
    114      2      H           0.06520228     0.02073227    -0.02776611
    115      1      O           0.00987089     0.05547184     0.07009928
    116      2      H          -0.00596813    -0.01041030     0.02795867
    117      2      H          -0.00402530    -0.00452048    -0.00317343
    118      1      O          -0.03279251     0.10447366     0.03843281
    119      2      H           0.00521930     0.00004525    -0.00763930
    120      2      H           0.00670592    -0.04125886    -0.04303482
    121      1      O          -0.00121308    -0.07441058    -0.00716704
    122      2      H           0.00352000    -0.03328434     0.02696930
    123      2      H          -0.03960546     0.05195486    -0.00974642
    124      1      O           0.00716857     0.04670306    -0.05403708
    125      2      H          -0.01600604    -0.01321322    -0.01915754
    126      2      H           0.01148095     0.00432561     0.04130367
    127      1      O           0.03914701    -0.06097747    -0.00784116
    128      2      H          -0.00320088     0.00488907    -0.00397646
    129      2      H          -0.02086917    -0.00898925     0.01355373
    130      1      O          -0.00612574    -0.04680706    -0.11784914
    131      2      H          -0.02487344    -0.02560416    -0.00491381
    132      2      H           0.00234355    -0.01636340     0.01995201
    133      1      O          -0.01897533    -0.05004069     0.13825035
    134      2      H           0.05773892     0.02207356    -0.04902096
    135      2      H          -0.02224466    -0.07041246    -0.08105652
    136      1      O           0.01929802    -0.00758715    -0.00066204
    137      2      H          -0.03462742    -0.02496407    -0.03635799
    138      2      H           0.01641166    -0.02320938     0.00596486
    139      1      O           0.08507261     0.00050961     0.06478789
    140      2      H          -0.04723729    -0.04415045    -0.01024215
    141      2      H          -0.01619066    -0.01829921     0.03241086
    142      1      O          -0.02997876     0.08028112     0.02074276
    143      2      H           0.02739773    -0.00778471    -0.00707228
    144      2      H           0.04677012    -0.06589945    -0.03214987
    145      1      O          -0.01250342     0.04020109     0.08728200
    146      2      H           0.03724454     0.01159020    -0.03553712
    147      2      H           0.01420136     0.01261767     0.04831386
    148      1      O          -0.07452898    -0.08962353     0.04694109
    149      2      H           0.06972214     0.05181326     0.08488479
    150      2      H          -0.01209846     0.02265692    -0.03314061
    151      1      O           0.06635792     0.00144116    -0.03923513
    152      2      H          -0.07192813     0.01998117    -0.04470353
    153      2      H           0.04153509    -0.04973059    -0.02948042
    154      1      O          -0.02805035     0.16335456    -0.02376457
    155      2      H           0.02312399    -0.01084703     0.02355971
    156      2      H          -0.01000260    -0.09068097    -0.04578533
    157      1      O           0.04009776    -0.07092517     0.07704122
    158      2      H          -0.01364870    -0.00519133     0.03500172
    159      2      H          -0.00579552     0.01437833     0.05156581
    160      1      O           0.00070570    -0.07190474    -0.07326697
    161      2      H           0.02009400    -0.03509401     0.03207440
    162      2      H          -0.00249151     0.00928650     0.03541545
    163      1      O           0.03403392     0.09327848    -0.07800263
    164      2      H          -0.04707539    -0.01508241     0.02533789
    165      2      H           0.00560010    -0.02753472    -0.03674384
    166      1      O          -0.04306784     0.08634779     0.10460729
    167      2      H           0.00093731     0.02345816    -0.06763727
    168      2      H           0.01565376    -0.03763169     0.00500970
    169      1      O           0.01175699    -0.07840162    -0.05000851
    170      2      H          -0.03895628    -0.00361418    -0.06034721
    171      2      H          -0.00603336    -0.00975251     0.02427662
    172      1      O          -0.02561900     0.03258686    -0.09803331
    173      2      H           0.04010594    -0.04772646    -0.03318560
    174      2      H          -0.01132642     0.04641948     0.02497156
    175      1      O           0.03721440    -0.04399156     0.06325264
    176      2      H          -0.03669414     0.02449990     0.03743780
    177      2      H           0.01208303    -0.01603760    -0.03274185
    178      1      O          -0.03897983     0.01458407     0.08025083
    179      2      H           0.03653627     0.00963594    -0.00321047
    180      2      H           0.03164238     0.04152293    -0.00831578
    181      1      O           0.01029663     0.12646758    -0.03729883
    182      2      H           0.00277799    -0.09329267    -0.02130240
    183      2      H          -0.00035532    -0.02455707     0.02699300
    184      1      O           0.01891140     0.07705601     0.11244262
    185      2      H           0.00557861     0.02385883    -0.00754616
    186      2      H           0.00069974     0.02813585     0.01763798
    187      1      O           0.02791890    -0.05080294     0.11614250
    188      2      H           0.03675839    -0.02910462    -0.05962728
    189      2      H          -0.03600290     0.03452521     0.00501665
    190      1      O           0.02635772     0.01604976    -0.10452843
    191      2      H          -0.03785065     0.06861888     0.03756921
    192      2      H           0.00257457     0.00584015     0.02486613
 SUM OF ATOMIC FORCES           0.07799031    -0.21947917     0.71963621     0.75639267

 -------------------------------------------------------------------------------
 -                                                                             -
 -                                DBCSR STATISTICS                             -
 -                                                                             -
 -------------------------------------------------------------------------------
 COUNTER                                    TOTAL       BLAS       SMM       ACC
 flops     5 x     5 x   256            859084800       0.0%    100.0%      0.0%
 flops     5 x    13 x   256           1091916800       0.0%    100.0%      0.0%
 flops    13 x     5 x   256           1094179840       0.0%    100.0%      0.0%
 flops    13 x    13 x   256           1512163328       0.0%    100.0%      0.0%
 flops inhomo. stacks                           0       0.0%      0.0%      0.0%
 flops total                         4.557345E+09       0.0%    100.0%      0.0%
 flops max/rank                      4.557345E+09       0.0%    100.0%      0.0%
 matmuls inhomo. stacks                         0       0.0%      0.0%      0.0%
 matmuls total                             150280       0.0%    100.0%      0.0%
 number of processed stacks                  2652       0.0%    100.0%      0.0%
 average stack size                                     0.0      56.7       0.0
 marketing flops                    37.719376E+09
 -------------------------------------------------------------------------------
 # multiplications                             34
 max memory usage/rank              25.807278E+09
 # max total images/rank                        1
 # max 3D layers                                1
 # MPI messages exchanged                       0
 MPI messages size (bytes):
  total size                         0.000000E+00
  min size                           0.000000E+00
  max size                           0.000000E+00
  average size                       0.000000E+00
 MPI breakdown and total messages size (bytes):
             size <=      128                   0                        0
       128 < size <=     8192                   0                        0
      8192 < size <=    32768                   0                        0
     32768 < size <=   131072                   0                        0
    131072 < size <=  4194304                   0                        0
   4194304 < size <= 16777216                   0                        0
  16777216 < size                               0                        0
 -------------------------------------------------------------------------------

 MEMORY| Estimated peak process memory [MiB]                               24614

 -------------------------------------------------------------------------------
 -                                                                             -
 -                           R E F E R E N C E S                               -
 -                                                                             -
 -------------------------------------------------------------------------------
 
 CP2K version 7.1, the CP2K developers group (2019).
 CP2K is freely available from https://www.cp2k.org/ .

 Schuett, Ole; Messmer, Peter; Hutter, Juerg; VandeVondele, Joost. 
 Electronic Structure Calculations on Graphics Processing Units, John
 Wiley & Sons, Ltd, 173-190 (2016). 
 GPU-Accelerated Sparse Matrix-Matrix Multiplication for
 Linear Scaling Density Functional Theory.
 https://dx.doi.org/10.1002/9781118670712.ch8

 Borstnik, U; VandeVondele, J; Weber, V; Hutter, J. 
 PARALLEL COMPUTING, 40 (5-6), 47-58 (2014). 
 Sparse matrix multiplication: The distributed block-compressed sparse
 row library.
 https://dx.doi.org/10.1016/j.parco.2014.03.012

 Hutter, J; Iannuzzi, M; Schiffmann, F; VandeVondele, J. 
 WIREs Comput Mol Sci., 4 (1), 15-25 (2014). 
 CP2K: atomistic simulations of condensed matter systems.
 https://dx.doi.org/10.1002/wcms.1159

 Krack, M. 
 THEORETICAL CHEMISTRY ACCOUNTS, 114 (1-3), 145-152 (2005). 
 Pseudopotentials for H to Kr optimized for gradient-corrected
 exchange-correlation functionals.
 https://dx.doi.org/10.1007/s00214-005-0655-y

 VandeVondele, J; Krack, M; Mohamed, F; Parrinello, M; Chassaing, T;
 Hutter, J. COMPUTER PHYSICS COMMUNICATIONS, 167 (2), 103-128 (2005). 
 QUICKSTEP: Fast and accurate density functional calculations using a
 mixed Gaussian and plane waves approach.
 https://dx.doi.org/10.1016/j.cpc.2004.12.014

 Frigo, M; Johnson, SG. 
 PROCEEDINGS OF THE IEEE, 93 (2), 216-231 (2005). 
 The design and implementation of FFTW3.
 https://dx.doi.org/10.1109/JPROC.2004.840301

 Hartwigsen, C; Goedecker, S; Hutter, J. 
 PHYSICAL REVIEW B, 58 (7), 3641-3662 (1998). 
 Relativistic separable dual-space Gaussian pseudopotentials from H to Rn.
 https://dx.doi.org/10.1103/PhysRevB.58.3641

 Lippert, G; Hutter, J; Parrinello, M. 
 MOLECULAR PHYSICS, 92 (3), 477-487 (1997). 
 A hybrid Gaussian and plane wave density functional scheme.
 https://dx.doi.org/10.1080/002689797170220

 Goedecker, S; Teter, M; Hutter, J. 
 PHYSICAL REVIEW B, 54 (3), 1703-1710 (1996). 
 Separable dual-space Gaussian pseudopotentials.
 https://dx.doi.org/10.1103/PhysRevB.54.1703


 -------------------------------------------------------------------------------
 -                                                                             -
 -                                T I M I N G                                  -
 -                                                                             -
 -------------------------------------------------------------------------------
 SUBROUTINE                       CALLS  ASD         SELF TIME        TOTAL TIME
                                MAXIMUM       AVERAGE  MAXIMUM  AVERAGE  MAXIMUM
 CP2K                                 1  1.0    0.612    0.612  800.341  800.341
 qs_forces                            1  2.0    0.000    0.000  789.106  789.106
 qs_energies                          1  3.0    0.000    0.000  783.492  783.492
 scf_env_do_scf                       1  4.0    0.000    0.000  771.806  771.806
 scf_env_do_scf_inner_loop           33  5.0    0.006    0.006  771.806  771.806
 gspace_mixing                       32  6.0    4.499    4.499  299.291  299.291
 broyden_mixing                      32  7.0  266.531  266.531  266.531  266.531
 qs_scf_new_mos                      33  6.0    0.001    0.001  216.557  216.557
 eigensolver                         33  7.0    0.003    0.003  205.035  205.035
 pw_transfer                        441  9.9    0.042    0.042  152.039  152.039
 fft_wrap_pw1pw2                    373 10.9    0.005    0.005  147.909  147.909
 rebuild_ks_matrix                   34  6.9    0.000    0.000  146.242  146.242
 qs_ks_build_kohn_sham_matrix        34  7.9    0.012    0.012  146.242  146.242
 qs_ks_update_qs_env                 33  6.0    0.000    0.000  141.978  141.978
 cp_fm_syevd                         33  8.0  139.539  139.539  139.687  139.687
 fft_wrap_pw1pw2_70                 169 11.2   10.840   10.840  133.330  133.330
 qs_rho_update_rho                   34  6.0    0.000    0.000  116.795  116.795
 calculate_rho_elec                  34  7.0   42.825   42.825  116.795  116.795
 fft3d_s                            374 12.8   74.454   74.454   74.493   74.493
 density_rs2pw                       34  8.0    0.003    0.003   72.732   72.732
 cp_fm_cholesky_restore              99  8.0   65.231   65.231   65.231   65.231
 sum_up_and_integrate                34  8.9    2.312    2.312   48.203   48.203
 integrate_v_rspace                  34  9.9    3.050    3.050   45.891   45.891
 pw_scatter_s                       202 13.1   45.819   45.819   45.819   45.819
 pw_poisson_solve                    34  8.9   37.828   37.828   42.210   42.210
 potential_pw2rs                     34 10.9    0.280    0.280   38.401   38.401
 qs_vxc_create                       34  8.9    0.001    0.001   21.064   21.064
 xc_vxc_pw_create                    34  9.9    4.745    4.745   21.063   21.063
 xc_rho_set_and_dset_create          34 10.9    0.001    0.001   16.318   16.318
 -------------------------------------------------------------------------------

 The number of warnings for this run is : 0
 
 -------------------------------------------------------------------------------
  **** **** ******  **  PROGRAM ENDED AT                 2020-05-21 09:10:42.627
 ***** ** ***  *** **   PROGRAM RAN ON                                   gnode39
 **    ****   ******    PROGRAM RAN BY                               mayank.modi
 ***** **    ** ** **   PROGRAM PROCESS ID                                 14442
  **** **  *******  **  PROGRAM STOPPED IN /home/mayank.modi/ab-initio-thermodyn
                                           amics-of-water/mayank/cp2k_energy_cal
                                           culations
