 DBCSR| CPU Multiplication driver                                           XSMM
 DBCSR| Multrec recursion limit                                              512
 DBCSR| Multiplication stack size                                           1000
 DBCSR| Maximum elements for images                                    UNLIMITED
 DBCSR| Multiplicative factor virtual images                                   1
 DBCSR| Use multiplication densification                                       T
 DBCSR| Multiplication size stacks                                             3


  **** **** ******  **  PROGRAM STARTED AT               2020-05-22 04:06:02.967
 ***** ** ***  *** **   PROGRAM STARTED ON                               gnode39
 **    ****   ******    PROGRAM STARTED BY                           mayank.modi
 ***** **    ** ** **   PROGRAM PROCESS ID                                  9484
  **** **  *******  **  PROGRAM STARTED IN /home/mayank.modi/ab-initio-thermodyn
                                           amics-of-water/mayank/cp2k_energy_cal
                                           culations

 CP2K| version string:                                          CP2K version 7.1
 CP2K| source code revision number:                                  git:e635599
 CP2K| cp2kflags: omp libint fftw3 libxc xsmm spglib                            
 CP2K| is freely available from                            https://www.cp2k.org/
 CP2K| Program compiled at                          Mon Dec 23 19:23:12 CET 2019
 CP2K| Program compiled on                                                pc9404
 CP2K| Program compiled for                                Linux-x86-64-gfortran
 CP2K| Data directory path                                        /opt/cp2k/data
 CP2K| Input file name                                             ./input158.in

 GLOBAL| Force Environment number                                              1
 GLOBAL| Basis set file name                                           BASIS_SET
 GLOBAL| Potential file name                                      GTH_POTENTIALS
 GLOBAL| MM Potential file name                                     MM_POTENTIAL
 GLOBAL| Coordinate file name                                      __STD_INPUT__
 GLOBAL| Method name                                                        CP2K
 GLOBAL| Project name                                                   H2O_bulk
 GLOBAL| Preferred FFT library                                             FFTW3
 GLOBAL| Preferred diagonalization lib.                                       SL
 GLOBAL| Run type                                                   ENERGY_FORCE
 GLOBAL| All-to-all communication in single precision                          F
 GLOBAL| FFTs using library dependent lengths                                  F
 GLOBAL| Global print level                                                  LOW
 GLOBAL| MPI I/O enabled                                                       T
 GLOBAL| Total number of message passing processes                             1
 GLOBAL| Number of threads for this process                                   20
 GLOBAL| This output is from process                                           0
 GLOBAL| CPU model name                Intel(R) Xeon(R) CPU E5-2640 v4 @ 2.40GHz
 GLOBAL| CPUID                                                              1002
 GLOBAL| Compiled for CPUID                                                    0

 MEMORY| system memory details [Kb]
 MEMORY|                        rank 0           min           max       average
 MEMORY| MemTotal            131898148     131898148     131898148     131898148
 MEMORY| MemFree              68552184      68552184      68552184      68552184
 MEMORY| Buffers               3188840       3188840       3188840       3188840
 MEMORY| Cached               34547776      34547776      34547776      34547776
 MEMORY| Slab                  4011652       4011652       4011652       4011652
 MEMORY| SReclaimable          3296348       3296348       3296348       3296348
 MEMORY| MemLikelyFree       109585148     109585148     109585148     109585148


 GENERATE|  Preliminary Number of Bonds generated:                             0
 GENERATE|  Achieved consistency in connectivity generation.

 *******************************************************************************
 *******************************************************************************
 **                                                                           **
 **     #####                         ##              ##                      **
 **    ##   ##            ##          ##              ##                      **
 **   ##     ##                       ##            ######                    **
 **   ##     ##  ##   ##  ##   #####  ##  ##   ####   ##    #####    #####    **
 **   ##     ##  ##   ##  ##  ##      ## ##   ##      ##   ##   ##  ##   ##   **
 **   ##  ## ##  ##   ##  ##  ##      ####     ###    ##   ######   ######    **
 **    ##  ###   ##   ##  ##  ##      ## ##      ##   ##   ##       ##        **
 **     #######   #####   ##   #####  ##  ##  ####    ##    #####   ##        **
 **           ##                                                    ##        **
 **                                                                           **
 **                                                ... make the atoms dance   **
 **                                                                           **
 **            Copyright (C) by CP2K developers group (2000 - 2019)           **
 **                                                                           **
 *******************************************************************************


 TOTAL NUMBERS AND MAXIMUM NUMBERS

  Total number of            - Atomic kinds:                                   2
                             - Atoms:                                        192
                             - Shell sets:                                   384
                             - Shells:                                       704
                             - Primitive Cartesian functions:                960
                             - Cartesian basis functions:                   1536
                             - Spherical basis functions:                   1472

  Maximum angular momentum of- Orbital basis functions:                        2
                             - Local part of the GTH pseudopotential:          2
                             - Non-local part of the GTH pseudopotential:      0


 SCF PARAMETERS         Density guess:                                    ATOMIC
                        --------------------------------------------------------
                        max_scf:                                             300
                        max_scf_history:                                       0
                        max_diis:                                              4
                        --------------------------------------------------------
                        eps_scf:                                        1.00E-07
                        eps_scf_history:                                0.00E+00
                        eps_diis:                                       1.00E-01
                        eps_eigval:                                     1.00E-05
                        --------------------------------------------------------
                        level_shift [a.u.]:                                 0.00
                        --------------------------------------------------------
                        Mixing method:                            BROYDEN_MIXING
                                                charge density mixing in g-space
                        --------------------------------------------------------
                        No outer SCF

 Number of electrons:                                                        512
 Number of occupied orbitals:                                                256
 Number of molecular orbitals:                                               256

 Number of orbital functions:                                               1472
 Number of independent orbital functions:                                   1472

 Extrapolation method: initial_guess


 SCF WAVEFUNCTION OPTIMIZATION

  Step     Update method      Time    Convergence         Total energy    Change
  ------------------------------------------------------------------------------
     1 NoMix/Diag. 0.40E+00   11.1     0.98970180     -1087.2485457571 -1.09E+03
     2 Broy./Diag. 0.40E+00   15.9     0.29172558     -1012.5298907980  7.47E+01
     3 Broy./Diag. 0.40E+00   17.4     0.02666695     -1094.5970596905 -8.21E+01
     4 Broy./Diag. 0.40E+00   17.9     0.02691218     -1094.2850785105  3.12E-01
     5 Broy./Diag. 0.40E+00   19.6     0.00249350     -1095.2120537971 -9.27E-01
     6 Broy./Diag. 0.40E+00   20.2     0.00468467     -1095.2650876502 -5.30E-02
     7 Broy./Diag. 0.40E+00   21.7     0.00275474     -1095.4174128908 -1.52E-01
     8 Broy./Diag. 0.40E+00   22.5     0.00335340     -1095.5465652853 -1.29E-01
     9 Broy./Diag. 0.40E+00   23.6     0.00329487     -1095.6059109017 -5.93E-02
    10 Broy./Diag. 0.40E+00   25.8     0.00155208     -1095.6355303186 -2.96E-02
    11 Broy./Diag. 0.40E+00   26.1     0.00130113     -1095.6059336594  2.96E-02
    12 Broy./Diag. 0.40E+00   25.8     0.00061120     -1095.6140264972 -8.09E-03
    13 Broy./Diag. 0.40E+00   25.6     0.00060664     -1095.6314011127 -1.74E-02
    14 Broy./Diag. 0.40E+00   25.1     0.00030615     -1095.6307792703  6.22E-04
    15 Broy./Diag. 0.40E+00   25.7     0.00023608     -1095.6248925031  5.89E-03
    16 Broy./Diag. 0.40E+00   25.9     0.00018486     -1095.6254857293 -5.93E-04
    17 Broy./Diag. 0.40E+00   25.7     0.00006944     -1095.6262844655 -7.99E-04
    18 Broy./Diag. 0.40E+00   25.2     0.00004455     -1095.6260941490  1.90E-04
    19 Broy./Diag. 0.40E+00   25.8     0.00001871     -1095.6255659690  5.28E-04
    20 Broy./Diag. 0.40E+00   25.5     0.00001068     -1095.6251183089  4.48E-04
    21 Broy./Diag. 0.40E+00   26.9     0.00000913     -1095.6253821764 -2.64E-04
    22 Broy./Diag. 0.40E+00   25.2     0.00000304     -1095.6255201053 -1.38E-04
    23 Broy./Diag. 0.40E+00   24.7     0.00000523     -1095.6254318782  8.82E-05
    24 Broy./Diag. 0.40E+00   26.5     0.00000203     -1095.6253805311  5.13E-05
    25 Broy./Diag. 0.40E+00   25.1     0.00000158     -1095.6253803392  1.92E-07
    26 Broy./Diag. 0.40E+00   25.1     0.00000159     -1095.6253913574 -1.10E-05
    27 Broy./Diag. 0.40E+00   26.6     0.00000077     -1095.6253950838 -3.73E-06
    28 Broy./Diag. 0.40E+00   25.6     0.00000077     -1095.6253938047  1.28E-06
    29 Broy./Diag. 0.40E+00   25.1     0.00000033     -1095.6253903032  3.50E-06
    30 Broy./Diag. 0.40E+00   25.4     0.00000018     -1095.6253870521  3.25E-06
    31 Broy./Diag. 0.40E+00   26.0     0.00000015     -1095.6253868367  2.15E-07
    32 Broy./Diag. 0.40E+00   25.5     0.00000007     -1095.6253874069 -5.70E-07

  *** SCF run converged in    32 steps ***


  Electronic density on regular grids:       -512.0003365669       -0.0003365669
  Core density on regular grids:              511.9994472966       -0.0005527034
  Total charge density on r-space grids:       -0.0008892703
  Total charge density g-space grids:          -0.0008892703

  Overlap energy of the core charge distribution:               0.00000529449447
  Self energy of the core charge distribution:              -2838.21791979120962
  Core Hamiltonian energy:                                    821.88726760727525
  Hartree energy:                                            1185.54487233888949
  Exchange-correlation energy:                               -264.83961285637537

  Total energy:                                             -1095.62538740692617

 ENERGY| Total FORCE_EVAL ( QS ) energy (a.u.):            -1095.625387707522350


 ATOMIC FORCES in [a.u.]

 # Atom   Kind   Element          X              Y              Z
      1      1      O           0.03044199    -0.05486711    -0.08217171
      2      2      H           0.00924573     0.02482787     0.02676882
      3      2      H          -0.01148109     0.03799802    -0.04352755
      4      1      O           0.06626564    -0.10873139     0.02704931
      5      2      H          -0.06018787     0.04232482    -0.00375123
      6      2      H          -0.00453910    -0.01802420     0.01760843
      7      1      O           0.02703629    -0.01434675    -0.07513712
      8      2      H          -0.02458475    -0.05056806     0.06029677
      9      2      H          -0.02363237     0.00423517    -0.02386800
     10      1      O           0.01927145     0.08890628     0.09908279
     11      2      H           0.01689137     0.00934848     0.02297905
     12      2      H          -0.00782566    -0.04834705    -0.03454509
     13      1      O          -0.06910511    -0.06586439     0.09295441
     14      2      H           0.03759789     0.04804919     0.01940935
     15      2      H          -0.00102579     0.01564478    -0.00950068
     16      1      O          -0.04349684     0.02983421    -0.10562763
     17      2      H           0.03455680    -0.02028984    -0.00003337
     18      2      H          -0.01563044     0.03793298    -0.02340961
     19      1      O           0.09528075     0.00099285     0.12965277
     20      2      H           0.00212081     0.04930052     0.04439675
     21      2      H          -0.06870245     0.01336791    -0.01701039
     22      1      O          -0.00986850    -0.06126834    -0.01962809
     23      2      H          -0.02147050     0.00491284    -0.05762177
     24      2      H           0.02262934     0.02874741    -0.04789749
     25      1      O          -0.08611560    -0.05219424    -0.07141403
     26      2      H           0.05198865     0.04137262    -0.05651515
     27      2      H          -0.00116109     0.00389537     0.05770421
     28      1      O          -0.04977607     0.08603180     0.06329299
     29      2      H           0.02058873    -0.01189831    -0.02449207
     30      2      H           0.00832304    -0.01201193    -0.07676686
     31      1      O           0.03112663    -0.01259319     0.08009316
     32      2      H           0.00883425    -0.02318160    -0.01816586
     33      2      H          -0.05744999     0.01189727     0.00780774
     34      1      O           0.03784508    -0.05680995     0.02243097
     35      2      H          -0.01874977    -0.03986532     0.03533878
     36      2      H          -0.03199660     0.02065211     0.06230244
     37      1      O          -0.00299389     0.03973771     0.06675838
     38      2      H           0.01112291    -0.02023602     0.02949232
     39      2      H          -0.03004806    -0.02297570    -0.00075348
     40      1      O          -0.05836657    -0.09576536    -0.09219165
     41      2      H           0.03041219     0.01296870    -0.00269481
     42      2      H          -0.00185726     0.03987726     0.04829792
     43      1      O          -0.04571017     0.04123180    -0.05131285
     44      2      H           0.01485327    -0.01502457     0.02201411
     45      2      H           0.01992513    -0.02897242    -0.01639771
     46      1      O          -0.01647535    -0.02592137     0.14738430
     47      2      H          -0.06176439    -0.04078184    -0.06260616
     48      2      H           0.03053154     0.00702506     0.01709368
     49      1      O          -0.04257124     0.02293079    -0.12461233
     50      2      H           0.02392518     0.00280208    -0.04191600
     51      2      H          -0.02454464    -0.01489419     0.06560345
     52      1      O           0.01464085    -0.02828053    -0.03271593
     53      2      H          -0.01882929    -0.00136021     0.00551147
     54      2      H           0.01668440     0.00231750    -0.03487618
     55      1      O           0.05169171     0.07154748     0.10557476
     56      2      H          -0.08719379     0.03393218     0.04147312
     57      2      H           0.00944076     0.01259395    -0.03988874
     58      1      O           0.00093988     0.00381246    -0.07275404
     59      2      H          -0.02357152     0.03647244    -0.01461562
     60      2      H           0.01192176    -0.02304737     0.02360663
     61      1      O           0.03122238     0.07437901     0.03171417
     62      2      H          -0.02357218     0.02023795    -0.01019412
     63      2      H           0.02227536    -0.02215616     0.02230758
     64      1      O          -0.00089222    -0.00138610     0.06469354
     65      2      H           0.01846681    -0.03032415     0.00267243
     66      2      H          -0.03933513    -0.00731361    -0.03524877
     67      1      O          -0.04936182    -0.01345100     0.05208201
     68      2      H          -0.01070119     0.02844236     0.02939143
     69      2      H           0.02609371    -0.02567247    -0.09802256
     70      1      O           0.00552352    -0.02864308    -0.06701253
     71      2      H          -0.01989431     0.01804362    -0.01369836
     72      2      H           0.02257039    -0.01590072     0.03385714
     73      1      O           0.02048567    -0.00941987    -0.01240514
     74      2      H           0.00150245    -0.02346695     0.05909649
     75      2      H           0.00611790    -0.03822539     0.00663599
     76      1      O           0.03616400    -0.02868352    -0.09711554
     77      2      H           0.00248830    -0.00894991     0.00681635
     78      2      H           0.00144677     0.00684630    -0.01385242
     79      1      O           0.02019952     0.02850088     0.09270215
     80      2      H           0.00307449    -0.03987637     0.03554926
     81      2      H           0.01952226    -0.03404103    -0.01271089
     82      1      O          -0.05219994     0.01183821    -0.11806478
     83      2      H           0.03071358    -0.06542121    -0.02526096
     84      2      H           0.01678896     0.01978418    -0.00553857
     85      1      O           0.00072030    -0.10526127    -0.01515657
     86      2      H          -0.01709619     0.02466494     0.00254883
     87      2      H          -0.02102124     0.03693793     0.01748801
     88      1      O           0.00917052    -0.01466246     0.12913653
     89      2      H          -0.01506526    -0.03561062     0.01921370
     90      2      H           0.02783467     0.01825907     0.01745600
     91      1      O           0.04156933     0.01224654     0.03846888
     92      2      H          -0.02982126    -0.03169266    -0.00089139
     93      2      H          -0.03863252     0.00236964     0.01120222
     94      1      O          -0.05704907     0.05853691     0.08653906
     95      2      H           0.03904754    -0.03896031    -0.02606940
     96      2      H           0.00791326    -0.01851468     0.03702623
     97      1      O           0.02803971    -0.00215172    -0.06930434
     98      2      H           0.00661323     0.04284196    -0.03224541
     99      2      H           0.00419045    -0.01052083    -0.04304281
    100      1      O           0.00012399     0.11519968     0.03994805
    101      2      H          -0.02864900     0.01355614     0.07220507
    102      2      H           0.00686870    -0.05977329    -0.02891363
    103      1      O           0.01741045    -0.04858473    -0.04496584
    104      2      H          -0.00393118    -0.01410498    -0.01622695
    105      2      H          -0.00732800     0.00784873     0.02490071
    106      1      O           0.01686838     0.09244172     0.01701539
    107      2      H          -0.00516009    -0.02338589    -0.02728346
    108      2      H           0.00808132    -0.04560823    -0.03064911
    109      1      O          -0.02043405    -0.08379462    -0.10245082
    110      2      H          -0.01520087     0.00381058    -0.00413453
    111      2      H           0.00455535     0.01637807    -0.02185224
    112      1      O          -0.03085450     0.04330202     0.08939205
    113      2      H           0.02022786    -0.05738630     0.06232629
    114      2      H           0.04347544     0.02238732    -0.02423194
    115      1      O          -0.04147805     0.11536655    -0.07296358
    116      2      H           0.01783809    -0.06142165     0.01427414
    117      2      H           0.03115366     0.04230454    -0.02707229
    118      1      O          -0.01528271     0.02980410    -0.10695394
    119      2      H           0.03317456     0.01267344     0.01650303
    120      2      H           0.00797377    -0.01325841    -0.01592521
    121      1      O           0.03641635     0.07644136    -0.09484655
    122      2      H           0.00166511    -0.07049464    -0.02780597
    123      2      H          -0.00716260    -0.01830485     0.05190288
    124      1      O           0.00813004    -0.08799964    -0.02689592
    125      2      H          -0.01744364    -0.02372135     0.03403517
    126      2      H           0.01450167     0.01993177    -0.02444198
    127      1      O           0.02002344     0.04608403     0.04702898
    128      2      H           0.00466147     0.02061141    -0.00788383
    129      2      H          -0.00261306    -0.04081806     0.05381977
    130      1      O           0.04531493     0.00559153     0.09388253
    131      2      H           0.00222125     0.01099286    -0.02952864
    132      2      H          -0.01632124     0.03389477     0.00963635
    133      1      O          -0.08642333     0.02995859     0.02616419
    134      2      H           0.06277288     0.00244443    -0.05097260
    135      2      H           0.00501415     0.01714271     0.01418107
    136      1      O          -0.08134860     0.09048871     0.00519270
    137      2      H           0.00105134    -0.00606964    -0.02389502
    138      2      H           0.02496118    -0.07832103    -0.03368109
    139      1      O           0.09985878     0.10950548    -0.11082504
    140      2      H          -0.01498065    -0.06378535     0.06940727
    141      2      H          -0.05229140     0.04341205    -0.04818249
    142      1      O           0.01641889     0.13036058     0.10105242
    143      2      H          -0.03062336    -0.01932725    -0.05351751
    144      2      H           0.00653973    -0.01939723    -0.00780435
    145      1      O          -0.01910134     0.08631122     0.08269367
    146      2      H          -0.03510384    -0.00563431    -0.04703316
    147      2      H           0.07040680    -0.00414346     0.02737185
    148      1      O          -0.01367012     0.02548144     0.10897031
    149      2      H          -0.02118329    -0.02792909    -0.03968268
    150      2      H          -0.00382054    -0.04543603    -0.01790330
    151      1      O           0.02543713    -0.00409793     0.10746282
    152      2      H          -0.01294721    -0.00866277    -0.04728419
    153      2      H           0.00751359     0.02610631    -0.01493918
    154      1      O           0.02813126     0.13008280     0.08787568
    155      2      H          -0.03073139    -0.03882454     0.04882731
    156      2      H           0.01231263    -0.01668379    -0.04685623
    157      1      O           0.04393173    -0.00051198    -0.12169802
    158      2      H          -0.00238916     0.01160242    -0.01764796
    159      2      H          -0.07107262    -0.02459751     0.04774220
    160      1      O           0.03243007    -0.05960769    -0.06197892
    161      2      H          -0.00680758    -0.00315904     0.00931835
    162      2      H          -0.04536396     0.01610911     0.07315206
    163      1      O          -0.00791846     0.02173586    -0.00443993
    164      2      H           0.01839878    -0.02366671    -0.13067124
    165      2      H           0.00372067     0.05334660    -0.02294038
    166      1      O           0.02001900    -0.04279319    -0.10421638
    167      2      H          -0.01380277    -0.03621064     0.05733810
    168      2      H          -0.00161978     0.02181767     0.01486497
    169      1      O           0.00120561     0.02269249    -0.02250887
    170      2      H          -0.03855482    -0.00162489    -0.02234534
    171      2      H          -0.00682742     0.03274357    -0.05775224
    172      1      O          -0.03596810    -0.07156303    -0.08585123
    173      2      H           0.00091512     0.02861013     0.03689154
    174      2      H           0.01295969     0.03132718    -0.04411543
    175      1      O          -0.01094596    -0.01949367    -0.02848076
    176      2      H           0.03777204    -0.03397212     0.03414033
    177      2      H          -0.02448717     0.04058294    -0.09732906
    178      1      O           0.02622471    -0.12781796     0.10953324
    179      2      H          -0.05410358     0.01126800    -0.06958256
    180      2      H           0.02777761     0.04673749    -0.04201574
    181      1      O          -0.00251458    -0.08500464    -0.01923247
    182      2      H          -0.01697221     0.00792871    -0.03900326
    183      2      H           0.00643808    -0.01524719     0.05333507
    184      1      O          -0.03496092    -0.03697600     0.06293227
    185      2      H           0.01452737    -0.01087717    -0.03598606
    186      2      H          -0.00912771    -0.02504261    -0.01790373
    187      1      O           0.00093073     0.03838481     0.09073460
    188      2      H          -0.01784544    -0.03000434    -0.04827908
    189      2      H           0.00755314     0.03458003     0.03253031
    190      1      O           0.03936917     0.02277919     0.01032458
    191      2      H          -0.00033868     0.00512133    -0.03590034
    192      2      H          -0.01320780    -0.00623795     0.01943354
 SUM OF ATOMIC FORCES          -0.22311404    -0.06107086    -0.28481830     0.36692096

 -------------------------------------------------------------------------------
 -                                                                             -
 -                                DBCSR STATISTICS                             -
 -                                                                             -
 -------------------------------------------------------------------------------
 COUNTER                                    TOTAL       BLAS       SMM       ACC
 flops     5 x     5 x   256            777216000       0.0%    100.0%      0.0%
 flops    13 x     5 x   256            971942400       0.0%    100.0%      0.0%
 flops     5 x    13 x   256            980728320       0.0%    100.0%      0.0%
 flops    13 x    13 x   256           1362037248       0.0%    100.0%      0.0%
 flops inhomo. stacks                           0       0.0%      0.0%      0.0%
 flops total                         4.091924E+09       0.0%    100.0%      0.0%
 flops max/rank                      4.091924E+09       0.0%    100.0%      0.0%
 matmuls inhomo. stacks                         0       0.0%      0.0%      0.0%
 matmuls total                             135135       0.0%    100.0%      0.0%
 number of processed stacks                  2574       0.0%    100.0%      0.0%
 average stack size                                     0.0      52.5       0.0
 marketing flops                    36.609982E+09
 -------------------------------------------------------------------------------
 # multiplications                             33
 max memory usage/rank              25.806053E+09
 # max total images/rank                        1
 # max 3D layers                                1
 # MPI messages exchanged                       0
 MPI messages size (bytes):
  total size                         0.000000E+00
  min size                           0.000000E+00
  max size                           0.000000E+00
  average size                       0.000000E+00
 MPI breakdown and total messages size (bytes):
             size <=      128                   0                        0
       128 < size <=     8192                   0                        0
      8192 < size <=    32768                   0                        0
     32768 < size <=   131072                   0                        0
    131072 < size <=  4194304                   0                        0
   4194304 < size <= 16777216                   0                        0
  16777216 < size                               0                        0
 -------------------------------------------------------------------------------

 MEMORY| Estimated peak process memory [MiB]                               24613

 -------------------------------------------------------------------------------
 -                                                                             -
 -                           R E F E R E N C E S                               -
 -                                                                             -
 -------------------------------------------------------------------------------
 
 CP2K version 7.1, the CP2K developers group (2019).
 CP2K is freely available from https://www.cp2k.org/ .

 Schuett, Ole; Messmer, Peter; Hutter, Juerg; VandeVondele, Joost. 
 Electronic Structure Calculations on Graphics Processing Units, John
 Wiley & Sons, Ltd, 173-190 (2016). 
 GPU-Accelerated Sparse Matrix-Matrix Multiplication for
 Linear Scaling Density Functional Theory.
 https://dx.doi.org/10.1002/9781118670712.ch8

 Borstnik, U; VandeVondele, J; Weber, V; Hutter, J. 
 PARALLEL COMPUTING, 40 (5-6), 47-58 (2014). 
 Sparse matrix multiplication: The distributed block-compressed sparse
 row library.
 https://dx.doi.org/10.1016/j.parco.2014.03.012

 Hutter, J; Iannuzzi, M; Schiffmann, F; VandeVondele, J. 
 WIREs Comput Mol Sci., 4 (1), 15-25 (2014). 
 CP2K: atomistic simulations of condensed matter systems.
 https://dx.doi.org/10.1002/wcms.1159

 Krack, M. 
 THEORETICAL CHEMISTRY ACCOUNTS, 114 (1-3), 145-152 (2005). 
 Pseudopotentials for H to Kr optimized for gradient-corrected
 exchange-correlation functionals.
 https://dx.doi.org/10.1007/s00214-005-0655-y

 VandeVondele, J; Krack, M; Mohamed, F; Parrinello, M; Chassaing, T;
 Hutter, J. COMPUTER PHYSICS COMMUNICATIONS, 167 (2), 103-128 (2005). 
 QUICKSTEP: Fast and accurate density functional calculations using a
 mixed Gaussian and plane waves approach.
 https://dx.doi.org/10.1016/j.cpc.2004.12.014

 Frigo, M; Johnson, SG. 
 PROCEEDINGS OF THE IEEE, 93 (2), 216-231 (2005). 
 The design and implementation of FFTW3.
 https://dx.doi.org/10.1109/JPROC.2004.840301

 Hartwigsen, C; Goedecker, S; Hutter, J. 
 PHYSICAL REVIEW B, 58 (7), 3641-3662 (1998). 
 Relativistic separable dual-space Gaussian pseudopotentials from H to Rn.
 https://dx.doi.org/10.1103/PhysRevB.58.3641

 Lippert, G; Hutter, J; Parrinello, M. 
 MOLECULAR PHYSICS, 92 (3), 477-487 (1997). 
 A hybrid Gaussian and plane wave density functional scheme.
 https://dx.doi.org/10.1080/002689797170220

 Goedecker, S; Teter, M; Hutter, J. 
 PHYSICAL REVIEW B, 54 (3), 1703-1710 (1996). 
 Separable dual-space Gaussian pseudopotentials.
 https://dx.doi.org/10.1103/PhysRevB.54.1703


 -------------------------------------------------------------------------------
 -                                                                             -
 -                                T I M I N G                                  -
 -                                                                             -
 -------------------------------------------------------------------------------
 SUBROUTINE                       CALLS  ASD         SELF TIME        TOTAL TIME
                                MAXIMUM       AVERAGE  MAXIMUM  AVERAGE  MAXIMUM
 CP2K                                 1  1.0    0.752    0.752  791.995  791.995
 qs_forces                            1  2.0    0.000    0.000  780.494  780.494
 qs_energies                          1  3.0    0.000    0.000  775.822  775.822
 scf_env_do_scf                       1  4.0    0.000    0.000  763.657  763.657
 scf_env_do_scf_inner_loop           32  5.0    0.005    0.005  763.657  763.657
 gspace_mixing                       31  6.0    4.457    4.457  289.284  289.284
 broyden_mixing                      31  7.0  256.251  256.251  256.252  256.252
 qs_scf_new_mos                      32  6.0    0.001    0.001  210.029  210.029
 eigensolver                         32  7.0    0.004    0.004  202.429  202.429
 pw_transfer                        428  9.9    0.044    0.044  160.265  160.265
 fft_wrap_pw1pw2                    362 10.9    0.007    0.007  156.088  156.088
 rebuild_ks_matrix                   33  6.9    0.000    0.000  150.047  150.047
 qs_ks_build_kohn_sham_matrix        33  7.9    0.013    0.013  150.047  150.047
 qs_ks_update_qs_env                 32  6.0    0.000    0.000  145.566  145.566
 fft_wrap_pw1pw2_70                 164 11.2   11.935   11.935  141.564  141.564
 cp_fm_syevd                         32  8.0  137.673  137.673  137.803  137.803
 qs_rho_update_rho                   33  6.0    0.000    0.000  121.880  121.880
 calculate_rho_elec                  33  7.0   44.649   44.649  121.880  121.880
 fft3d_s                            363 12.8   78.512   78.512   78.522   78.522
 density_rs2pw                       33  8.0    0.006    0.006   76.050   76.050
 cp_fm_cholesky_restore              96  8.0   64.500   64.500   64.500   64.500
 sum_up_and_integrate                33  8.9    2.381    2.381   49.529   49.529
 integrate_v_rspace                  33  9.9    2.721    2.721   47.148   47.148
 pw_scatter_s                       196 13.1   46.888   46.888   46.888   46.888
 pw_poisson_solve                    33  8.9   37.929   37.929   42.386   42.386
 potential_pw2rs                     33 10.9    0.327    0.327   41.918   41.918
 qs_vxc_create                       33  8.9    0.001    0.001   21.458   21.458
 xc_vxc_pw_create                    33  9.9    4.751    4.751   21.457   21.457
 pw_gather_s                        166 12.6   17.020   17.020   17.020   17.020
 xc_rho_set_and_dset_create          33 10.9    0.002    0.002   16.706   16.706
 -------------------------------------------------------------------------------

 The number of warnings for this run is : 0
 
 -------------------------------------------------------------------------------
  **** **** ******  **  PROGRAM ENDED AT                 2020-05-22 04:19:15.081
 ***** ** ***  *** **   PROGRAM RAN ON                                   gnode39
 **    ****   ******    PROGRAM RAN BY                               mayank.modi
 ***** **    ** ** **   PROGRAM PROCESS ID                                  9484
  **** **  *******  **  PROGRAM STOPPED IN /home/mayank.modi/ab-initio-thermodyn
                                           amics-of-water/mayank/cp2k_energy_cal
                                           culations
