 DBCSR| CPU Multiplication driver                                           XSMM
 DBCSR| Multrec recursion limit                                              512
 DBCSR| Multiplication stack size                                           1000
 DBCSR| Maximum elements for images                                    UNLIMITED
 DBCSR| Multiplicative factor virtual images                                   1
 DBCSR| Use multiplication densification                                       T
 DBCSR| Multiplication size stacks                                             3


  **** **** ******  **  PROGRAM STARTED AT               2020-05-21 11:07:37.845
 ***** ** ***  *** **   PROGRAM STARTED ON                               gnode39
 **    ****   ******    PROGRAM STARTED BY                           mayank.modi
 ***** **    ** ** **   PROGRAM PROCESS ID                                 16146
  **** **  *******  **  PROGRAM STARTED IN /home/mayank.modi/ab-initio-thermodyn
                                           amics-of-water/mayank/cp2k_energy_cal
                                           culations

 CP2K| version string:                                          CP2K version 7.1
 CP2K| source code revision number:                                  git:e635599
 CP2K| cp2kflags: omp libint fftw3 libxc xsmm spglib                            
 CP2K| is freely available from                            https://www.cp2k.org/
 CP2K| Program compiled at                          Mon Dec 23 19:23:12 CET 2019
 CP2K| Program compiled on                                                pc9404
 CP2K| Program compiled for                                Linux-x86-64-gfortran
 CP2K| Data directory path                                        /opt/cp2k/data
 CP2K| Input file name                                              ./input83.in

 GLOBAL| Force Environment number                                              1
 GLOBAL| Basis set file name                                           BASIS_SET
 GLOBAL| Potential file name                                      GTH_POTENTIALS
 GLOBAL| MM Potential file name                                     MM_POTENTIAL
 GLOBAL| Coordinate file name                                      __STD_INPUT__
 GLOBAL| Method name                                                        CP2K
 GLOBAL| Project name                                                   H2O_bulk
 GLOBAL| Preferred FFT library                                             FFTW3
 GLOBAL| Preferred diagonalization lib.                                       SL
 GLOBAL| Run type                                                   ENERGY_FORCE
 GLOBAL| All-to-all communication in single precision                          F
 GLOBAL| FFTs using library dependent lengths                                  F
 GLOBAL| Global print level                                                  LOW
 GLOBAL| MPI I/O enabled                                                       T
 GLOBAL| Total number of message passing processes                             1
 GLOBAL| Number of threads for this process                                   20
 GLOBAL| This output is from process                                           0
 GLOBAL| CPU model name                Intel(R) Xeon(R) CPU E5-2640 v4 @ 2.40GHz
 GLOBAL| CPUID                                                              1002
 GLOBAL| Compiled for CPUID                                                    0

 MEMORY| system memory details [Kb]
 MEMORY|                        rank 0           min           max       average
 MEMORY| MemTotal            131898148     131898148     131898148     131898148
 MEMORY| MemFree              88692356      88692356      88692356      88692356
 MEMORY| Buffers               3187120       3187120       3187120       3187120
 MEMORY| Cached               34125376      34125376      34125376      34125376
 MEMORY| Slab                  3930008       3930008       3930008       3930008
 MEMORY| SReclaimable          3268396       3268396       3268396       3268396
 MEMORY| MemLikelyFree       129273248     129273248     129273248     129273248


 GENERATE|  Preliminary Number of Bonds generated:                             0
 GENERATE|  Achieved consistency in connectivity generation.

 *******************************************************************************
 *******************************************************************************
 **                                                                           **
 **     #####                         ##              ##                      **
 **    ##   ##            ##          ##              ##                      **
 **   ##     ##                       ##            ######                    **
 **   ##     ##  ##   ##  ##   #####  ##  ##   ####   ##    #####    #####    **
 **   ##     ##  ##   ##  ##  ##      ## ##   ##      ##   ##   ##  ##   ##   **
 **   ##  ## ##  ##   ##  ##  ##      ####     ###    ##   ######   ######    **
 **    ##  ###   ##   ##  ##  ##      ## ##      ##   ##   ##       ##        **
 **     #######   #####   ##   #####  ##  ##  ####    ##    #####   ##        **
 **           ##                                                    ##        **
 **                                                                           **
 **                                                ... make the atoms dance   **
 **                                                                           **
 **            Copyright (C) by CP2K developers group (2000 - 2019)           **
 **                                                                           **
 *******************************************************************************


 TOTAL NUMBERS AND MAXIMUM NUMBERS

  Total number of            - Atomic kinds:                                   2
                             - Atoms:                                        192
                             - Shell sets:                                   384
                             - Shells:                                       704
                             - Primitive Cartesian functions:                960
                             - Cartesian basis functions:                   1536
                             - Spherical basis functions:                   1472

  Maximum angular momentum of- Orbital basis functions:                        2
                             - Local part of the GTH pseudopotential:          2
                             - Non-local part of the GTH pseudopotential:      0


 SCF PARAMETERS         Density guess:                                    ATOMIC
                        --------------------------------------------------------
                        max_scf:                                             300
                        max_scf_history:                                       0
                        max_diis:                                              4
                        --------------------------------------------------------
                        eps_scf:                                        1.00E-07
                        eps_scf_history:                                0.00E+00
                        eps_diis:                                       1.00E-01
                        eps_eigval:                                     1.00E-05
                        --------------------------------------------------------
                        level_shift [a.u.]:                                 0.00
                        --------------------------------------------------------
                        Mixing method:                            BROYDEN_MIXING
                                                charge density mixing in g-space
                        --------------------------------------------------------
                        No outer SCF

 Number of electrons:                                                        512
 Number of occupied orbitals:                                                256
 Number of molecular orbitals:                                               256

 Number of orbital functions:                                               1472
 Number of independent orbital functions:                                   1472

 Extrapolation method: initial_guess


 SCF WAVEFUNCTION OPTIMIZATION

  Step     Update method      Time    Convergence         Total energy    Change
  ------------------------------------------------------------------------------
     1 NoMix/Diag. 0.40E+00   10.2     1.00728404     -1087.2191280016 -1.09E+03
     2 Broy./Diag. 0.40E+00   15.6     0.29740894     -1013.3251499372  7.39E+01
     3 Broy./Diag. 0.40E+00   16.1     0.02954167     -1094.9398947501 -8.16E+01
     4 Broy./Diag. 0.40E+00   17.8     0.02721897     -1094.3671180611  5.73E-01
     5 Broy./Diag. 0.40E+00   18.9     0.00254214     -1095.2604783824 -8.93E-01
     6 Broy./Diag. 0.40E+00   18.6     0.00397864     -1095.2885012743 -2.80E-02
     7 Broy./Diag. 0.40E+00   18.7     0.00215730     -1095.4339361260 -1.45E-01
     8 Broy./Diag. 0.40E+00   19.1     0.00289813     -1095.5548676792 -1.21E-01
     9 Broy./Diag. 0.40E+00   20.3     0.00301639     -1095.6177556815 -6.29E-02
    10 Broy./Diag. 0.40E+00   21.4     0.00141484     -1095.6507476144 -3.30E-02
    11 Broy./Diag. 0.40E+00   21.6     0.00104729     -1095.6152182855  3.55E-02
    12 Broy./Diag. 0.40E+00   21.6     0.00043400     -1095.6251516836 -9.93E-03
    13 Broy./Diag. 0.40E+00   24.4     0.00047542     -1095.6454199833 -2.03E-02
    14 Broy./Diag. 0.40E+00   25.2     0.00023195     -1095.6469775564 -1.56E-03
    15 Broy./Diag. 0.40E+00   23.8     0.00026604     -1095.6410140162  5.96E-03
    16 Broy./Diag. 0.40E+00   23.1     0.00016441     -1095.6421693781 -1.16E-03
    17 Broy./Diag. 0.40E+00   24.0     0.00005805     -1095.6432671201 -1.10E-03
    18 Broy./Diag. 0.40E+00   26.6     0.00003750     -1095.6430197264  2.47E-04
    19 Broy./Diag. 0.40E+00   25.2     0.00001847     -1095.6427413611  2.78E-04
    20 Broy./Diag. 0.40E+00   25.7     0.00001234     -1095.6423845404  3.57E-04
    21 Broy./Diag. 0.40E+00   24.4     0.00001048     -1095.6426805551 -2.96E-04
    22 Broy./Diag. 0.40E+00   25.9     0.00000541     -1095.6428914014 -2.11E-04
    23 Broy./Diag. 0.40E+00   24.4     0.00000677     -1095.6428898464  1.55E-06
    24 Broy./Diag. 0.40E+00   23.1     0.00000194     -1095.6428268596  6.30E-05
    25 Broy./Diag. 0.40E+00   23.4     0.00000231     -1095.6427749865  5.19E-05
    26 Broy./Diag. 0.40E+00   24.3     0.00000120     -1095.6427715680  3.42E-06
    27 Broy./Diag. 0.40E+00   24.4     0.00000051     -1095.6427721631 -5.95E-07
    28 Broy./Diag. 0.40E+00   25.4     0.00000057     -1095.6427637531  8.41E-06
    29 Broy./Diag. 0.40E+00   24.0     0.00000028     -1095.6427567477  7.01E-06
    30 Broy./Diag. 0.40E+00   25.5     0.00000025     -1095.6427536940  3.05E-06
    31 Broy./Diag. 0.40E+00   23.6     0.00000029     -1095.6427574260 -3.73E-06
    32 Broy./Diag. 0.40E+00   22.4     0.00000011     -1095.6427590030 -1.58E-06
    33 Broy./Diag. 0.40E+00   22.0     0.00000008     -1095.6427583436  6.59E-07

  *** SCF run converged in    33 steps ***


  Electronic density on regular grids:       -512.0002877881       -0.0002877881
  Core density on regular grids:              512.0003329144        0.0003329144
  Total charge density on r-space grids:        0.0000451263
  Total charge density g-space grids:           0.0000451263

  Overlap energy of the core charge distribution:               0.00000556799774
  Self energy of the core charge distribution:              -2838.21791979120962
  Core Hamiltonian energy:                                    821.23410303293156
  Hartree energy:                                            1186.01463118947891
  Exchange-correlation energy:                               -264.67357834275339

  Total energy:                                             -1095.64275834355453

 ENERGY| Total FORCE_EVAL ( QS ) energy (a.u.):            -1095.642759023746748


 ATOMIC FORCES in [a.u.]

 # Atom   Kind   Element          X              Y              Z
      1      1      O           0.02498025    -0.02959012    -0.10690059
      2      2      H          -0.01701848    -0.03131008     0.03227422
      3      2      H          -0.01561748     0.05234460    -0.04164401
      4      1      O           0.01025506    -0.03071124     0.12625002
      5      2      H           0.01430337    -0.01848306     0.02131899
      6      2      H           0.00683548    -0.05158419    -0.02435727
      7      1      O           0.04141082    -0.00907318    -0.02107296
      8      2      H          -0.02485741    -0.07757000    -0.00901996
      9      2      H          -0.00279062    -0.02353972    -0.00515920
     10      1      O          -0.06416323    -0.02097056     0.01952485
     11      2      H           0.05095498     0.04458764     0.08917618
     12      2      H           0.00291277    -0.03766002     0.01154702
     13      1      O           0.08707273    -0.04507268     0.06965224
     14      2      H          -0.01555950    -0.00627735     0.02578088
     15      2      H          -0.05675256     0.03335578    -0.03146948
     16      1      O          -0.00656065    -0.00503206     0.05026473
     17      2      H          -0.00333853    -0.06822556     0.04317408
     18      2      H           0.00306790     0.01978717     0.00442770
     19      1      O          -0.02773453    -0.04861703     0.00400798
     20      2      H           0.01822922    -0.02203252     0.01812169
     21      2      H           0.03713996    -0.03302069     0.02366632
     22      1      O          -0.09023280    -0.12159929     0.05785870
     23      2      H           0.07745365     0.00625405    -0.01842169
     24      2      H          -0.00059230     0.02150007    -0.01838304
     25      1      O          -0.00146987     0.10627947     0.04021801
     26      2      H          -0.01351277    -0.02723727     0.04566936
     27      2      H           0.01338408    -0.00373307    -0.03613340
     28      1      O          -0.04349158     0.07851445    -0.06520527
     29      2      H          -0.01645299    -0.02164484    -0.03300260
     30      2      H          -0.00334238    -0.03972425     0.03566888
     31      1      O           0.01352444     0.12524257     0.10871731
     32      2      H           0.00416993     0.01340072    -0.02580803
     33      2      H          -0.02112801    -0.07669932     0.03823595
     34      1      O           0.06410607     0.07729492    -0.02339833
     35      2      H          -0.00915926     0.01869326     0.03640269
     36      2      H          -0.03481010     0.01572136     0.01451240
     37      1      O           0.02802369     0.11660181     0.01682123
     38      2      H           0.01976442    -0.04598193    -0.03028687
     39      2      H          -0.06078514    -0.00833111    -0.00723770
     40      1      O          -0.08973074     0.08248937     0.00905434
     41      2      H           0.02171176    -0.02790921     0.04525096
     42      2      H           0.04310486     0.00403978    -0.08366297
     43      1      O          -0.02776331     0.09863863    -0.12103270
     44      2      H           0.01058828     0.01519861     0.02850208
     45      2      H           0.02530076    -0.04670872     0.02657828
     46      1      O           0.08390799    -0.07006761     0.00238798
     47      2      H           0.00311369     0.19817287     0.05152807
     48      2      H          -0.04610402    -0.05679788     0.01230120
     49      1      O          -0.00913479     0.01157923     0.04124816
     50      2      H          -0.00438807    -0.05508310    -0.00415664
     51      2      H          -0.02560002    -0.00519224    -0.03529200
     52      1      O           0.00955046     0.05025751     0.15166467
     53      2      H           0.00570696     0.04048028    -0.04096222
     54      2      H          -0.00985967     0.01772558    -0.06423913
     55      1      O           0.03445068     0.01904650     0.14224200
     56      2      H          -0.02226224     0.00693180    -0.01683166
     57      2      H          -0.04296176    -0.00451913     0.00430057
     58      1      O           0.00618245    -0.07281153    -0.02297503
     59      2      H          -0.02084692     0.02504658    -0.00455461
     60      2      H           0.00646574     0.01383894    -0.02758219
     61      1      O          -0.01775459     0.03180642     0.09774983
     62      2      H          -0.00565490     0.00265540    -0.03815817
     63      2      H           0.04542205    -0.00308479     0.00872205
     64      1      O          -0.01646839     0.01604612    -0.05109250
     65      2      H           0.03115589     0.02846221    -0.03509600
     66      2      H           0.00828221    -0.01792488    -0.04484227
     67      1      O          -0.01075500     0.04707524     0.08406013
     68      2      H           0.00768634     0.01054872    -0.01887534
     69      2      H           0.02392251     0.01843245    -0.02938104
     70      1      O          -0.02069458    -0.01683244    -0.07637520
     71      2      H          -0.03319685     0.06123190    -0.01349558
     72      2      H           0.01879989     0.00787079    -0.03082299
     73      1      O           0.04161643    -0.01426157    -0.12206964
     74      2      H           0.00036268    -0.06551109     0.03487612
     75      2      H          -0.01615856    -0.01699435     0.01285113
     76      1      O           0.02955167     0.10078975     0.12913938
     77      2      H          -0.00285552    -0.03575945     0.01409276
     78      2      H          -0.00422998     0.02058743     0.02630273
     79      1      O          -0.02627060    -0.04220729     0.08878040
     80      2      H           0.00963245    -0.01187967     0.02319235
     81      2      H           0.00876532     0.00585609    -0.07231985
     82      1      O           0.07096207     0.00432430    -0.00045903
     83      2      H          -0.04039469    -0.01934871    -0.01147842
     84      2      H          -0.00022631     0.01018615     0.02200818
     85      1      O          -0.07751158    -0.07687146    -0.09884624
     86      2      H           0.04210569     0.00320670    -0.05511522
     87      2      H          -0.01116162    -0.00426928     0.03657905
     88      1      O           0.01134555    -0.02568425    -0.07710600
     89      2      H           0.00708392     0.01657290    -0.02317894
     90      2      H           0.02439492    -0.00849533    -0.02583238
     91      1      O           0.01859853    -0.06994637     0.08476289
     92      2      H           0.00130418     0.02387216    -0.01570075
     93      2      H          -0.02588827    -0.00226020     0.00098005
     94      1      O           0.01618850     0.08765831     0.04361514
     95      2      H           0.01613287    -0.00176901     0.01626287
     96      2      H          -0.00061118    -0.00276716     0.05681056
     97      1      O          -0.05463596     0.04377113    -0.08881653
     98      2      H           0.03312269     0.05878486     0.05249886
     99      2      H           0.00253214     0.02330429    -0.02015089
    100      1      O           0.03838520    -0.05427769    -0.00199949
    101      2      H          -0.07281061     0.00945973     0.02570059
    102      2      H          -0.01009266    -0.03580964    -0.00331397
    103      1      O           0.00416109    -0.09681920     0.15614434
    104      2      H           0.01282429    -0.00126492    -0.00684035
    105      2      H          -0.04656773     0.02010812    -0.06992289
    106      1      O          -0.05368398     0.01055164    -0.01602282
    107      2      H           0.04138166     0.02602498    -0.00911849
    108      2      H           0.01364559    -0.08158141     0.05895551
    109      1      O          -0.01219100     0.00283758    -0.04476357
    110      2      H          -0.00469908    -0.02002163     0.03201524
    111      2      H           0.02161568     0.00094031     0.02352028
    112      1      O          -0.03145892    -0.03961762    -0.06413063
    113      2      H           0.01534673     0.00063065     0.03147062
    114      2      H           0.01595808    -0.02816392     0.02719225
    115      1      O          -0.00716358     0.01968108    -0.14152829
    116      2      H           0.02483854     0.00707873     0.03563130
    117      2      H          -0.03346169    -0.01388147     0.06736714
    118      1      O          -0.08546474    -0.03685235    -0.02569006
    119      2      H           0.05027088    -0.02233067     0.03003831
    120      2      H           0.01478638    -0.03159041     0.00096502
    121      1      O           0.03102832    -0.03109926    -0.02416162
    122      2      H           0.00225101     0.03785120    -0.03858429
    123      2      H          -0.03765540     0.02232292     0.01083657
    124      1      O          -0.02001757     0.09801209    -0.04028565
    125      2      H          -0.04462310     0.01259480     0.00965220
    126      2      H           0.01834501    -0.06174731    -0.00179596
    127      1      O           0.00212314     0.08277874    -0.11552892
    128      2      H           0.01420356    -0.02413467     0.01787084
    129      2      H          -0.01384119    -0.05036948     0.01502192
    130      1      O          -0.00804403     0.03135138    -0.05114211
    131      2      H          -0.01068401    -0.01748796    -0.00631639
    132      2      H           0.01254427    -0.03856427    -0.01017101
    133      1      O          -0.06589960    -0.08441310     0.08118223
    134      2      H           0.06871925     0.06562889    -0.00586751
    135      2      H          -0.01737084    -0.00405486    -0.03367907
    136      1      O          -0.05313440    -0.03703383     0.03942825
    137      2      H           0.01467381    -0.00140874    -0.00471567
    138      2      H           0.01019087     0.01107676    -0.02495959
    139      1      O           0.00513437     0.04390559    -0.05031207
    140      2      H          -0.00012175     0.00993351     0.01148462
    141      2      H          -0.01197249    -0.08485490    -0.03837939
    142      1      O           0.06337089     0.01532677     0.07763478
    143      2      H          -0.09884168    -0.01403760     0.07074111
    144      2      H           0.02655883    -0.00105015    -0.05572820
    145      1      O           0.02679914    -0.06055128     0.11563280
    146      2      H           0.00979775     0.01517936    -0.05544325
    147      2      H          -0.01802278    -0.02521313     0.00702969
    148      1      O          -0.00307759    -0.04513400    -0.10367600
    149      2      H           0.00347292     0.02112005    -0.01897953
    150      2      H          -0.02663389    -0.02337231    -0.02944790
    151      1      O          -0.01753883    -0.06727181    -0.10049735
    152      2      H          -0.00520058    -0.01863342     0.01716044
    153      2      H          -0.02387384     0.01567288     0.03667700
    154      1      O           0.00948660    -0.08645426    -0.07092680
    155      2      H          -0.01400525    -0.01335376     0.03982833
    156      2      H          -0.02256938     0.03247210    -0.04217825
    157      1      O           0.01394236     0.02335565    -0.05298900
    158      2      H           0.01982430    -0.02909147     0.04224614
    159      2      H          -0.01830961    -0.00157148    -0.00137070
    160      1      O          -0.01060306     0.00283029    -0.00893255
    161      2      H          -0.00885369    -0.00002122     0.01986242
    162      2      H           0.00649846    -0.03018959    -0.06101752
    163      1      O           0.08837813     0.11395180     0.13019365
    164      2      H          -0.02220082    -0.04278499     0.03753682
    165      2      H          -0.03197985    -0.04815644    -0.05391358
    166      1      O          -0.00898155    -0.05967672    -0.05233525
    167      2      H           0.03295830     0.03307354     0.01253697
    168      2      H          -0.00659802    -0.03413898    -0.01608314
    169      1      O           0.02007586     0.00081584     0.05332581
    170      2      H          -0.00929856     0.02231577    -0.04456877
    171      2      H          -0.00317377     0.04577131     0.01169242
    172      1      O          -0.00972565    -0.00611413    -0.05312517
    173      2      H          -0.00503273     0.00809660    -0.02235538
    174      2      H          -0.00955691     0.01258477    -0.03281570
    175      1      O          -0.02675888     0.02151325    -0.09186516
    176      2      H           0.01743206     0.00029976    -0.03514111
    177      2      H           0.00151878     0.03339187     0.01611234
    178      1      O           0.05615289     0.01695562    -0.08560209
    179      2      H          -0.05845338    -0.07944952    -0.04541391
    180      2      H           0.00791586    -0.01519855     0.01485663
    181      1      O          -0.05424266     0.01787095     0.02789614
    182      2      H           0.01080858     0.03119231    -0.01893391
    183      2      H           0.01753279    -0.05838645     0.04036773
    184      1      O           0.03432836     0.04810103     0.10581027
    185      2      H           0.00923834     0.01846787     0.02614893
    186      2      H           0.00622871     0.02289104     0.03422332
    187      1      O           0.00374736    -0.01179800    -0.09649635
    188      2      H          -0.01323207    -0.00376159    -0.03459436
    189      2      H           0.01539999     0.00964055    -0.05300629
    190      1      O          -0.01190193    -0.07320178    -0.08649813
    191      2      H          -0.01216662     0.01199475     0.00036247
    192      2      H           0.00493513     0.02563653     0.03702058
 SUM OF ATOMIC FORCES          -0.20881114    -0.35531193    -0.19015943     0.45388244

 -------------------------------------------------------------------------------
 -                                                                             -
 -                                DBCSR STATISTICS                             -
 -                                                                             -
 -------------------------------------------------------------------------------
 COUNTER                                    TOTAL       BLAS       SMM       ACC
 flops     5 x     5 x   256            875622400       0.0%    100.0%      0.0%
 flops    13 x     5 x   256           1103232000       0.0%    100.0%      0.0%
 flops     5 x    13 x   256           1115678720       0.0%    100.0%      0.0%
 flops    13 x    13 x   256           1535698944       0.0%    100.0%      0.0%
 flops inhomo. stacks                           0       0.0%      0.0%      0.0%
 flops total                         4.630232E+09       0.0%    100.0%      0.0%
 flops max/rank                      4.630232E+09       0.0%    100.0%      0.0%
 matmuls inhomo. stacks                         0       0.0%      0.0%      0.0%
 matmuls total                             152830       0.0%    100.0%      0.0%
 number of processed stacks                  2652       0.0%    100.0%      0.0%
 average stack size                                     0.0      57.6       0.0
 marketing flops                    37.719376E+09
 -------------------------------------------------------------------------------
 # multiplications                             34
 max memory usage/rank              25.807409E+09
 # max total images/rank                        1
 # max 3D layers                                1
 # MPI messages exchanged                       0
 MPI messages size (bytes):
  total size                         0.000000E+00
  min size                           0.000000E+00
  max size                           0.000000E+00
  average size                       0.000000E+00
 MPI breakdown and total messages size (bytes):
             size <=      128                   0                        0
       128 < size <=     8192                   0                        0
      8192 < size <=    32768                   0                        0
     32768 < size <=   131072                   0                        0
    131072 < size <=  4194304                   0                        0
   4194304 < size <= 16777216                   0                        0
  16777216 < size                               0                        0
 -------------------------------------------------------------------------------

 MEMORY| Estimated peak process memory [MiB]                               24614

 -------------------------------------------------------------------------------
 -                                                                             -
 -                           R E F E R E N C E S                               -
 -                                                                             -
 -------------------------------------------------------------------------------
 
 CP2K version 7.1, the CP2K developers group (2019).
 CP2K is freely available from https://www.cp2k.org/ .

 Schuett, Ole; Messmer, Peter; Hutter, Juerg; VandeVondele, Joost. 
 Electronic Structure Calculations on Graphics Processing Units, John
 Wiley & Sons, Ltd, 173-190 (2016). 
 GPU-Accelerated Sparse Matrix-Matrix Multiplication for
 Linear Scaling Density Functional Theory.
 https://dx.doi.org/10.1002/9781118670712.ch8

 Borstnik, U; VandeVondele, J; Weber, V; Hutter, J. 
 PARALLEL COMPUTING, 40 (5-6), 47-58 (2014). 
 Sparse matrix multiplication: The distributed block-compressed sparse
 row library.
 https://dx.doi.org/10.1016/j.parco.2014.03.012

 Hutter, J; Iannuzzi, M; Schiffmann, F; VandeVondele, J. 
 WIREs Comput Mol Sci., 4 (1), 15-25 (2014). 
 CP2K: atomistic simulations of condensed matter systems.
 https://dx.doi.org/10.1002/wcms.1159

 Krack, M. 
 THEORETICAL CHEMISTRY ACCOUNTS, 114 (1-3), 145-152 (2005). 
 Pseudopotentials for H to Kr optimized for gradient-corrected
 exchange-correlation functionals.
 https://dx.doi.org/10.1007/s00214-005-0655-y

 VandeVondele, J; Krack, M; Mohamed, F; Parrinello, M; Chassaing, T;
 Hutter, J. COMPUTER PHYSICS COMMUNICATIONS, 167 (2), 103-128 (2005). 
 QUICKSTEP: Fast and accurate density functional calculations using a
 mixed Gaussian and plane waves approach.
 https://dx.doi.org/10.1016/j.cpc.2004.12.014

 Frigo, M; Johnson, SG. 
 PROCEEDINGS OF THE IEEE, 93 (2), 216-231 (2005). 
 The design and implementation of FFTW3.
 https://dx.doi.org/10.1109/JPROC.2004.840301

 Hartwigsen, C; Goedecker, S; Hutter, J. 
 PHYSICAL REVIEW B, 58 (7), 3641-3662 (1998). 
 Relativistic separable dual-space Gaussian pseudopotentials from H to Rn.
 https://dx.doi.org/10.1103/PhysRevB.58.3641

 Lippert, G; Hutter, J; Parrinello, M. 
 MOLECULAR PHYSICS, 92 (3), 477-487 (1997). 
 A hybrid Gaussian and plane wave density functional scheme.
 https://dx.doi.org/10.1080/002689797170220

 Goedecker, S; Teter, M; Hutter, J. 
 PHYSICAL REVIEW B, 54 (3), 1703-1710 (1996). 
 Separable dual-space Gaussian pseudopotentials.
 https://dx.doi.org/10.1103/PhysRevB.54.1703


 -------------------------------------------------------------------------------
 -                                                                             -
 -                                T I M I N G                                  -
 -                                                                             -
 -------------------------------------------------------------------------------
 SUBROUTINE                       CALLS  ASD         SELF TIME        TOTAL TIME
                                MAXIMUM       AVERAGE  MAXIMUM  AVERAGE  MAXIMUM
 CP2K                                 1  1.0    0.660    0.660  761.029  761.029
 qs_forces                            1  2.0    0.000    0.000  749.593  749.593
 qs_energies                          1  3.0    0.000    0.000  745.625  745.625
 scf_env_do_scf                       1  4.0    0.000    0.000  734.124  734.124
 scf_env_do_scf_inner_loop           33  5.0    0.005    0.005  734.124  734.124
 gspace_mixing                       32  6.0    4.501    4.501  293.118  293.118
 broyden_mixing                      32  7.0  262.081  262.081  262.081  262.081
 qs_scf_new_mos                      33  6.0    0.001    0.001  209.407  209.407
 eigensolver                         33  7.0    0.003    0.003  206.155  206.155
 cp_fm_syevd                         33  8.0  140.433  140.433  140.569  140.569
 pw_transfer                        441  9.9    0.040    0.040  136.704  136.704
 fft_wrap_pw1pw2                    373 10.9    0.005    0.005  133.362  133.362
 rebuild_ks_matrix                   34  6.9    0.000    0.000  131.048  131.048
 qs_ks_build_kohn_sham_matrix        34  7.9    0.008    0.008  131.048  131.048
 qs_ks_update_qs_env                 33  6.0    0.000    0.000  127.248  127.248
 fft_wrap_pw1pw2_70                 169 11.2   10.347   10.347  123.260  123.260
 qs_rho_update_rho                   34  6.0    0.000    0.000  107.238  107.238
 calculate_rho_elec                  34  7.0   40.863   40.863  107.238  107.238
 density_rs2pw                       34  8.0    0.003    0.003   65.489   65.489
 cp_fm_cholesky_restore              99  8.0   65.450   65.450   65.450   65.450
 fft3d_s                            374 12.8   65.140   65.140   65.160   65.160
 pw_scatter_s                       202 13.1   45.174   45.174   45.174   45.174
 pw_poisson_solve                    34  8.9   38.028   38.028   41.637   41.637
 sum_up_and_integrate                34  8.9    2.115    2.115   36.996   36.996
 integrate_v_rspace                  34  9.9    2.284    2.284   34.881   34.881
 potential_pw2rs                     34 10.9    0.284    0.284   32.572   32.572
 qs_vxc_create                       34  8.9    0.001    0.001   18.966   18.966
 xc_vxc_pw_create                    34  9.9    4.769    4.769   18.965   18.965
 -------------------------------------------------------------------------------

 The number of warnings for this run is : 0
 
 -------------------------------------------------------------------------------
  **** **** ******  **  PROGRAM ENDED AT                 2020-05-21 11:20:18.996
 ***** ** ***  *** **   PROGRAM RAN ON                                   gnode39
 **    ****   ******    PROGRAM RAN BY                               mayank.modi
 ***** **    ** ** **   PROGRAM PROCESS ID                                 16146
  **** **  *******  **  PROGRAM STOPPED IN /home/mayank.modi/ab-initio-thermodyn
                                           amics-of-water/mayank/cp2k_energy_cal
                                           culations
