 DBCSR| CPU Multiplication driver                                           XSMM
 DBCSR| Multrec recursion limit                                              512
 DBCSR| Multiplication stack size                                           1000
 DBCSR| Maximum elements for images                                    UNLIMITED
 DBCSR| Multiplicative factor virtual images                                   1
 DBCSR| Use multiplication densification                                       T
 DBCSR| Multiplication size stacks                                             3


  **** **** ******  **  PROGRAM STARTED AT               2020-05-20 20:51:42.809
 ***** ** ***  *** **   PROGRAM STARTED ON                               gnode39
 **    ****   ******    PROGRAM STARTED BY                           mayank.modi
 ***** **    ** ** **   PROGRAM PROCESS ID                                 18401
  **** **  *******  **  PROGRAM STARTED IN /home/mayank.modi/ab-initio-thermodyn
                                           amics-of-water/mayank/cp2k_energy_cal
                                           culations

 CP2K| version string:                                          CP2K version 7.1
 CP2K| source code revision number:                                  git:e635599
 CP2K| cp2kflags: omp libint fftw3 libxc xsmm spglib                            
 CP2K| is freely available from                            https://www.cp2k.org/
 CP2K| Program compiled at                          Mon Dec 23 19:23:12 CET 2019
 CP2K| Program compiled on                                                pc9404
 CP2K| Program compiled for                                Linux-x86-64-gfortran
 CP2K| Data directory path                                        /opt/cp2k/data
 CP2K| Input file name                                              ./input18.in

 GLOBAL| Force Environment number                                              1
 GLOBAL| Basis set file name                                           BASIS_SET
 GLOBAL| Potential file name                                      GTH_POTENTIALS
 GLOBAL| MM Potential file name                                     MM_POTENTIAL
 GLOBAL| Coordinate file name                                      __STD_INPUT__
 GLOBAL| Method name                                                        CP2K
 GLOBAL| Project name                                                   H2O_bulk
 GLOBAL| Preferred FFT library                                             FFTW3
 GLOBAL| Preferred diagonalization lib.                                       SL
 GLOBAL| Run type                                                   ENERGY_FORCE
 GLOBAL| All-to-all communication in single precision                          F
 GLOBAL| FFTs using library dependent lengths                                  F
 GLOBAL| Global print level                                                  LOW
 GLOBAL| MPI I/O enabled                                                       T
 GLOBAL| Total number of message passing processes                             1
 GLOBAL| Number of threads for this process                                   20
 GLOBAL| This output is from process                                           0
 GLOBAL| CPU model name                Intel(R) Xeon(R) CPU E5-2640 v4 @ 2.40GHz
 GLOBAL| CPUID                                                              1002
 GLOBAL| Compiled for CPUID                                                    0

 MEMORY| system memory details [Kb]
 MEMORY|                        rank 0           min           max       average
 MEMORY| MemTotal            131898148     131898148     131898148     131898148
 MEMORY| MemFree              94780920      94780920      94780920      94780920
 MEMORY| Buffers               3186720       3186720       3186720       3186720
 MEMORY| Cached               28701092      28701092      28701092      28701092
 MEMORY| Slab                  3896808       3896808       3896808       3896808
 MEMORY| SReclaimable          3234024       3234024       3234024       3234024
 MEMORY| MemLikelyFree       129902756     129902756     129902756     129902756


 GENERATE|  Preliminary Number of Bonds generated:                             0
 GENERATE|  Achieved consistency in connectivity generation.

 *******************************************************************************
 *******************************************************************************
 **                                                                           **
 **     #####                         ##              ##                      **
 **    ##   ##            ##          ##              ##                      **
 **   ##     ##                       ##            ######                    **
 **   ##     ##  ##   ##  ##   #####  ##  ##   ####   ##    #####    #####    **
 **   ##     ##  ##   ##  ##  ##      ## ##   ##      ##   ##   ##  ##   ##   **
 **   ##  ## ##  ##   ##  ##  ##      ####     ###    ##   ######   ######    **
 **    ##  ###   ##   ##  ##  ##      ## ##      ##   ##   ##       ##        **
 **     #######   #####   ##   #####  ##  ##  ####    ##    #####   ##        **
 **           ##                                                    ##        **
 **                                                                           **
 **                                                ... make the atoms dance   **
 **                                                                           **
 **            Copyright (C) by CP2K developers group (2000 - 2019)           **
 **                                                                           **
 *******************************************************************************


 TOTAL NUMBERS AND MAXIMUM NUMBERS

  Total number of            - Atomic kinds:                                   2
                             - Atoms:                                        192
                             - Shell sets:                                   384
                             - Shells:                                       704
                             - Primitive Cartesian functions:                960
                             - Cartesian basis functions:                   1536
                             - Spherical basis functions:                   1472

  Maximum angular momentum of- Orbital basis functions:                        2
                             - Local part of the GTH pseudopotential:          2
                             - Non-local part of the GTH pseudopotential:      0


 SCF PARAMETERS         Density guess:                                    ATOMIC
                        --------------------------------------------------------
                        max_scf:                                             300
                        max_scf_history:                                       0
                        max_diis:                                              4
                        --------------------------------------------------------
                        eps_scf:                                        1.00E-07
                        eps_scf_history:                                0.00E+00
                        eps_diis:                                       1.00E-01
                        eps_eigval:                                     1.00E-05
                        --------------------------------------------------------
                        level_shift [a.u.]:                                 0.00
                        --------------------------------------------------------
                        Mixing method:                            BROYDEN_MIXING
                                                charge density mixing in g-space
                        --------------------------------------------------------
                        No outer SCF

 Number of electrons:                                                        512
 Number of occupied orbitals:                                                256
 Number of molecular orbitals:                                               256

 Number of orbital functions:                                               1472
 Number of independent orbital functions:                                   1472

 Extrapolation method: initial_guess


 SCF WAVEFUNCTION OPTIMIZATION

  Step     Update method      Time    Convergence         Total energy    Change
  ------------------------------------------------------------------------------
     1 NoMix/Diag. 0.40E+00   11.8     0.98898179     -1087.4307860302 -1.09E+03
     2 Broy./Diag. 0.40E+00   16.9     0.29114819     -1013.6128243607  7.38E+01
     3 Broy./Diag. 0.40E+00   19.4     0.02897281     -1094.7827939318 -8.12E+01
     4 Broy./Diag. 0.40E+00   19.7     0.02621320     -1094.4565801058  3.26E-01
     5 Broy./Diag. 0.40E+00   20.7     0.00260232     -1095.3638779282 -9.07E-01
     6 Broy./Diag. 0.40E+00   21.4     0.00416356     -1095.3842955561 -2.04E-02
     7 Broy./Diag. 0.40E+00   21.9     0.00231772     -1095.5227927713 -1.38E-01
     8 Broy./Diag. 0.40E+00   22.4     0.00363931     -1095.6311135086 -1.08E-01
     9 Broy./Diag. 0.40E+00   24.5     0.00361420     -1095.7105815620 -7.95E-02
    10 Broy./Diag. 0.40E+00   26.7     0.00193690     -1095.7314384024 -2.09E-02
    11 Broy./Diag. 0.40E+00   26.7     0.00179722     -1095.7050547771  2.64E-02
    12 Broy./Diag. 0.40E+00   25.6     0.00080942     -1095.7107426282 -5.69E-03
    13 Broy./Diag. 0.40E+00   25.8     0.00075665     -1095.7299850716 -1.92E-02
    14 Broy./Diag. 0.40E+00   26.9     0.00029813     -1095.7312256231 -1.24E-03
    15 Broy./Diag. 0.40E+00   26.1     0.00024899     -1095.7239757686  7.25E-03
    16 Broy./Diag. 0.40E+00   26.7     0.00011326     -1095.7240717644 -9.60E-05
    17 Broy./Diag. 0.40E+00   25.1     0.00005176     -1095.7249250764 -8.53E-04
    18 Broy./Diag. 0.40E+00   27.0     0.00004309     -1095.7249404278 -1.54E-05
    19 Broy./Diag. 0.40E+00   26.1     0.00002247     -1095.7249779005 -3.75E-05
    20 Broy./Diag. 0.40E+00   25.7     0.00001663     -1095.7245160711  4.62E-04
    21 Broy./Diag. 0.40E+00   26.2     0.00001501     -1095.7248042546 -2.88E-04
    22 Broy./Diag. 0.40E+00   25.6     0.00000589     -1095.7248730981 -6.88E-05
    23 Broy./Diag. 0.40E+00   26.5     0.00000710     -1095.7247207437  1.52E-04
    24 Broy./Diag. 0.40E+00   25.7     0.00000237     -1095.7246546017  6.61E-05
    25 Broy./Diag. 0.40E+00   26.1     0.00000305     -1095.7246527847  1.82E-06
    26 Broy./Diag. 0.40E+00   25.9     0.00000166     -1095.7246998406 -4.71E-05
    27 Broy./Diag. 0.40E+00   25.9     0.00000102     -1095.7247117505 -1.19E-05
    28 Broy./Diag. 0.40E+00   25.5     0.00000084     -1095.7247074047  4.35E-06
    29 Broy./Diag. 0.40E+00   25.5     0.00000026     -1095.7247026525  4.75E-06
    30 Broy./Diag. 0.40E+00   27.0     0.00000025     -1095.7247012819  1.37E-06
    31 Broy./Diag. 0.40E+00   26.1     0.00000013     -1095.7247000836  1.20E-06
    32 Broy./Diag. 0.40E+00   25.6     0.00000006     -1095.7246996508  4.33E-07

  *** SCF run converged in    32 steps ***


  Electronic density on regular grids:       -511.9999087599        0.0000912401
  Core density on regular grids:              511.9993170921       -0.0006829079
  Total charge density on r-space grids:       -0.0005916679
  Total charge density g-space grids:          -0.0005916679

  Overlap energy of the core charge distribution:               0.00000511920027
  Self energy of the core charge distribution:              -2838.21791979120962
  Core Hamiltonian energy:                                    821.51356471523866
  Hartree energy:                                            1185.77023954315951
  Exchange-correlation energy:                               -264.79058923714450

  Total energy:                                             -1095.72469965075584

 ENERGY| Total FORCE_EVAL ( QS ) energy (a.u.):            -1095.724699619625653


 ATOMIC FORCES in [a.u.]

 # Atom   Kind   Element          X              Y              Z
      1      1      O          -0.01179551    -0.08142147     0.01199831
      2      2      H           0.01568341    -0.02466425     0.03974546
      3      2      H           0.02590532    -0.03180346     0.01627713
      4      1      O           0.01937871     0.04186366     0.00382643
      5      2      H          -0.00569903     0.00802379    -0.00272303
      6      2      H          -0.02853957    -0.03942712    -0.04002650
      7      1      O          -0.01818576     0.06021616    -0.09848242
      8      2      H           0.02387659     0.02181215     0.03528802
      9      2      H          -0.00722603     0.03284172     0.03183523
     10      1      O          -0.07520509    -0.10627711    -0.08900644
     11      2      H           0.06215161     0.04753872     0.12840266
     12      2      H           0.04198665     0.03276579    -0.07143781
     13      1      O          -0.05289280    -0.07315178    -0.00486144
     14      2      H           0.04058649     0.06890772     0.03383236
     15      2      H          -0.00058165    -0.06633676     0.07114795
     16      1      O          -0.02166001    -0.00931359    -0.04148470
     17      2      H           0.02404524     0.01045417    -0.01889243
     18      2      H           0.00310140     0.02271568    -0.03988530
     19      1      O           0.00809945     0.11721059    -0.00881828
     20      2      H          -0.02506990    -0.03320164     0.01138479
     21      2      H           0.03215432    -0.02593688     0.01441282
     22      1      O          -0.00162245    -0.15562932     0.05997236
     23      2      H          -0.00257999     0.05661246    -0.01374455
     24      2      H           0.00271220     0.03079009    -0.02243130
     25      1      O           0.02114141    -0.02194775    -0.09995961
     26      2      H           0.02100685    -0.00714923     0.00859638
     27      2      H          -0.01015271     0.01838479     0.04644621
     28      1      O           0.04255153    -0.02066036    -0.04173599
     29      2      H          -0.01603762     0.03931219    -0.03163336
     30      2      H           0.01836963     0.01562286     0.02104658
     31      1      O           0.03223352    -0.00515862     0.01686352
     32      2      H          -0.01916524    -0.01445191     0.01250139
     33      2      H           0.01499533     0.06466423     0.04840986
     34      1      O           0.06189969    -0.02768227     0.06888334
     35      2      H          -0.01661817    -0.01832789     0.02313001
     36      2      H          -0.03172787    -0.02125557     0.07118765
     37      1      O           0.01450762     0.03229819     0.02063781
     38      2      H           0.00125558     0.01282245    -0.00307342
     39      2      H          -0.01432208    -0.01478110     0.03525768
     40      1      O           0.02024318    -0.06635383     0.01454456
     41      2      H          -0.00963096    -0.02453085    -0.00305917
     42      2      H           0.02310542    -0.03128905     0.03654152
     43      1      O           0.01649154     0.04292558     0.02557374
     44      2      H           0.01308719    -0.03090918    -0.02876213
     45      2      H           0.00376663     0.00188789     0.00670571
     46      1      O          -0.08498922    -0.14147118     0.06900565
     47      2      H          -0.01200935    -0.02050303     0.02123935
     48      2      H           0.05590732     0.05750486     0.05276463
     49      1      O          -0.01303162    -0.02742202    -0.01774118
     50      2      H           0.02377961    -0.01431056    -0.04144849
     51      2      H           0.01902708    -0.01438193    -0.07114684
     52      1      O          -0.03620377     0.01070399    -0.00697743
     53      2      H           0.00625075     0.01444328    -0.04458257
     54      2      H           0.04462582     0.04456617     0.00397003
     55      1      O          -0.01937979     0.04300942     0.11058794
     56      2      H          -0.00409781     0.02018432    -0.02164063
     57      2      H          -0.01192180    -0.00444711    -0.02990377
     58      1      O           0.03388498     0.05779336    -0.07643729
     59      2      H          -0.02282925     0.01842986     0.11568395
     60      2      H          -0.01277801    -0.02403207    -0.02161903
     61      1      O           0.02230196    -0.06245029     0.01188088
     62      2      H          -0.01412655     0.00811438    -0.02599628
     63      2      H          -0.03246470    -0.04270127     0.01721123
     64      1      O          -0.02137608     0.05955420    -0.09164183
     65      2      H           0.01767717    -0.04021443     0.02343400
     66      2      H          -0.00681029    -0.00296344    -0.02484010
     67      1      O          -0.00036223     0.05492348    -0.03828406
     68      2      H           0.01031223     0.03114710    -0.00345445
     69      2      H          -0.00936004    -0.01404196    -0.03803571
     70      1      O           0.01411171    -0.09458652     0.09616798
     71      2      H          -0.00662636    -0.02142431    -0.01282060
     72      2      H           0.01153569    -0.00568948     0.04582380
     73      1      O           0.02103068     0.05180491     0.09112115
     74      2      H           0.01234345    -0.00495668     0.03752782
     75      2      H           0.01215486    -0.03378149    -0.01533382
     76      1      O           0.01458863     0.07504157     0.10419431
     77      2      H          -0.01630580    -0.03377303    -0.03581214
     78      2      H           0.01578857     0.01446419    -0.03826360
     79      1      O          -0.00469459    -0.07378964    -0.00299634
     80      2      H          -0.04700992     0.01010346    -0.01016603
     81      2      H           0.01870189    -0.02312367    -0.05449942
     82      1      O          -0.04441296     0.05479502     0.06561325
     83      2      H          -0.02782909    -0.06083704    -0.05697083
     84      2      H           0.04879958    -0.01865158    -0.00815440
     85      1      O          -0.05126046     0.05442418    -0.01737056
     86      2      H           0.08370832     0.01787783    -0.01753350
     87      2      H          -0.02335158    -0.01642474     0.00163859
     88      1      O          -0.04109654    -0.05201251    -0.03257365
     89      2      H           0.02712687    -0.01621803     0.01526295
     90      2      H          -0.01185620     0.03387028    -0.05772350
     91      1      O           0.05865566    -0.07657976     0.12290627
     92      2      H          -0.03256099     0.00731090     0.03305508
     93      2      H          -0.00634885    -0.03975285    -0.00921556
     94      1      O          -0.01159047     0.09644914    -0.06190277
     95      2      H           0.03570816    -0.02709882     0.03968589
     96      2      H          -0.02506978     0.00955856    -0.00982795
     97      1      O          -0.06166708     0.02918527    -0.01394684
     98      2      H           0.01534991     0.04790112     0.00801150
     99      2      H           0.04808301     0.01477643     0.05119628
    100      1      O           0.02099558     0.05817222    -0.11708652
    101      2      H           0.02049608     0.02238677    -0.00205098
    102      2      H          -0.01356259    -0.02882611    -0.02896454
    103      1      O           0.05589686     0.01575423    -0.09273725
    104      2      H          -0.00872960    -0.00089659     0.02551377
    105      2      H          -0.00325555     0.03293448    -0.01333960
    106      1      O          -0.03477593    -0.05163296     0.16734411
    107      2      H           0.01875233     0.00712082    -0.04466698
    108      2      H           0.01325500    -0.06604285     0.03362684
    109      1      O          -0.05778428    -0.01596033     0.13945889
    110      2      H           0.05123838     0.04550986     0.00805809
    111      2      H           0.00124097    -0.06980041    -0.03081790
    112      1      O           0.02004070    -0.03426831     0.07546168
    113      2      H          -0.00927476    -0.00321262     0.01593270
    114      2      H           0.01347159     0.02373731    -0.02858976
    115      1      O           0.06080639    -0.01160254    -0.07647994
    116      2      H          -0.01575592     0.05599347    -0.00359547
    117      2      H          -0.00618500     0.03700266     0.08788884
    118      1      O          -0.04907810    -0.08077473    -0.14412102
    119      2      H           0.01389734     0.01472585     0.01759743
    120      2      H           0.00764044     0.03286133    -0.00887465
    121      1      O          -0.00236610    -0.02887191     0.07510847
    122      2      H          -0.00003019     0.00184325    -0.03428644
    123      2      H           0.00519126     0.02320323    -0.03451776
    124      1      O           0.02361111     0.08618401     0.06110909
    125      2      H           0.00087099     0.02749383     0.00775863
    126      2      H           0.02906885    -0.03827871    -0.00715103
    127      1      O           0.01740350    -0.08616635    -0.09078871
    128      2      H           0.00380025     0.05145710    -0.02907138
    129      2      H           0.00565883    -0.03790209     0.04342858
    130      1      O           0.04204898     0.02299760     0.01977646
    131      2      H          -0.00886330    -0.00672116     0.01900920
    132      2      H          -0.01383049     0.02320069     0.01678385
    133      1      O           0.03301457    -0.05866745     0.12866469
    134      2      H           0.00054846     0.00734094    -0.00398209
    135      2      H          -0.01515993    -0.00936669     0.01397615
    136      1      O           0.01423494    -0.05259828     0.11437621
    137      2      H           0.03583357    -0.00446736     0.03154385
    138      2      H          -0.01007186     0.00990594     0.02416150
    139      1      O          -0.00337623    -0.07885264    -0.07745543
    140      2      H          -0.02531589     0.02266385    -0.02326585
    141      2      H           0.00133090    -0.03154765     0.00962459
    142      1      O          -0.05708043     0.07888364     0.07372040
    143      2      H           0.09450393     0.01113054    -0.02835474
    144      2      H           0.00347813    -0.00192297    -0.01062577
    145      1      O          -0.03485824     0.10124908     0.05097589
    146      2      H           0.03584445    -0.01578599    -0.02341356
    147      2      H           0.00437550    -0.00947700     0.01336352
    148      1      O          -0.07242915    -0.04283364    -0.02793091
    149      2      H           0.03550083     0.08580136    -0.03108998
    150      2      H           0.02118913    -0.05278943     0.02816087
    151      1      O          -0.00384533     0.09977009    -0.00924571
    152      2      H          -0.01460740    -0.05572480    -0.09731105
    153      2      H          -0.03321416     0.00357154    -0.00644681
    154      1      O          -0.02642935    -0.07608688    -0.06624559
    155      2      H           0.02677209     0.01331453    -0.05904032
    156      2      H          -0.01654937    -0.02013026     0.02344001
    157      1      O          -0.06396288    -0.03788302     0.06902139
    158      2      H           0.03610334    -0.00444243    -0.01807773
    159      2      H          -0.01789778     0.03189915    -0.01147780
    160      1      O           0.03869252    -0.03269027     0.07872933
    161      2      H           0.01482305    -0.00310415    -0.01741963
    162      2      H          -0.00299928     0.05251560    -0.04024174
    163      1      O          -0.05501527     0.08401617     0.03096262
    164      2      H           0.03244908    -0.04336791    -0.00788902
    165      2      H           0.01226124     0.00932512     0.01311795
    166      1      O          -0.04602244     0.06264173    -0.05516867
    167      2      H          -0.00334531    -0.00422025     0.02349157
    168      2      H           0.03114267    -0.04623525    -0.02672014
    169      1      O          -0.01668306     0.01172364     0.09202141
    170      2      H          -0.00037163    -0.01795718    -0.03010698
    171      2      H           0.04227979     0.03240399     0.01931348
    172      1      O          -0.01958638    -0.01879543     0.03409437
    173      2      H          -0.00335325    -0.05900200    -0.02922816
    174      2      H           0.01830965     0.03461186     0.01160193
    175      1      O          -0.02418417    -0.00864656     0.11949608
    176      2      H          -0.02124706     0.00846204    -0.02336672
    177      2      H           0.00815382     0.01506758    -0.03552406
    178      1      O          -0.03712716    -0.08280536    -0.09187369
    179      2      H           0.01221486     0.00307374     0.02610496
    180      2      H           0.06506362    -0.00906903     0.03723598
    181      1      O           0.00630180    -0.01093698    -0.05172836
    182      2      H           0.02847319    -0.03357956     0.09417678
    183      2      H           0.00815721    -0.03715179    -0.02854637
    184      1      O           0.10634315     0.02715875    -0.09212140
    185      2      H          -0.02992801    -0.05032036    -0.06960782
    186      2      H          -0.05628244     0.08999048     0.00876440
    187      1      O           0.02774944     0.10203224     0.16112702
    188      2      H          -0.00995008    -0.00761098    -0.07278259
    189      2      H           0.01077145    -0.02340171     0.02779234
    190      1      O           0.03929562    -0.13632233    -0.11853125
    191      2      H          -0.01894573     0.10478032     0.03744156
    192      2      H           0.01110717     0.02061675    -0.01850110
 SUM OF ATOMIC FORCES           0.51203033    -0.27391411     0.50344945     0.76854756

 -------------------------------------------------------------------------------
 -                                                                             -
 -                                DBCSR STATISTICS                             -
 -                                                                             -
 -------------------------------------------------------------------------------
 COUNTER                                    TOTAL       BLAS       SMM       ACC
 flops     5 x     5 x   256            939840000       0.0%    100.0%      0.0%
 flops     5 x    13 x   256           1194885120       0.0%    100.0%      0.0%
 flops    13 x     5 x   256           1197081600       0.0%    100.0%      0.0%
 flops    13 x    13 x   256           1647579648       0.0%    100.0%      0.0%
 flops inhomo. stacks                           0       0.0%      0.0%      0.0%
 flops total                         4.979386E+09       0.0%    100.0%      0.0%
 flops max/rank                      4.979386E+09       0.0%    100.0%      0.0%
 matmuls inhomo. stacks                         0       0.0%      0.0%      0.0%
 matmuls total                             164340       0.0%    100.0%      0.0%
 number of processed stacks                  2574       0.0%    100.0%      0.0%
 average stack size                                     0.0      63.8       0.0
 marketing flops                    36.609982E+09
 -------------------------------------------------------------------------------
 # multiplications                             33
 max memory usage/rank              25.809531E+09
 # max total images/rank                        1
 # max 3D layers                                1
 # MPI messages exchanged                       0
 MPI messages size (bytes):
  total size                         0.000000E+00
  min size                           0.000000E+00
  max size                           0.000000E+00
  average size                       0.000000E+00
 MPI breakdown and total messages size (bytes):
             size <=      128                   0                        0
       128 < size <=     8192                   0                        0
      8192 < size <=    32768                   0                        0
     32768 < size <=   131072                   0                        0
    131072 < size <=  4194304                   0                        0
   4194304 < size <= 16777216                   0                        0
  16777216 < size                               0                        0
 -------------------------------------------------------------------------------

 MEMORY| Estimated peak process memory [MiB]                               24616

 -------------------------------------------------------------------------------
 -                                                                             -
 -                           R E F E R E N C E S                               -
 -                                                                             -
 -------------------------------------------------------------------------------
 
 CP2K version 7.1, the CP2K developers group (2019).
 CP2K is freely available from https://www.cp2k.org/ .

 Schuett, Ole; Messmer, Peter; Hutter, Juerg; VandeVondele, Joost. 
 Electronic Structure Calculations on Graphics Processing Units, John
 Wiley & Sons, Ltd, 173-190 (2016). 
 GPU-Accelerated Sparse Matrix-Matrix Multiplication for
 Linear Scaling Density Functional Theory.
 https://dx.doi.org/10.1002/9781118670712.ch8

 Borstnik, U; VandeVondele, J; Weber, V; Hutter, J. 
 PARALLEL COMPUTING, 40 (5-6), 47-58 (2014). 
 Sparse matrix multiplication: The distributed block-compressed sparse
 row library.
 https://dx.doi.org/10.1016/j.parco.2014.03.012

 Hutter, J; Iannuzzi, M; Schiffmann, F; VandeVondele, J. 
 WIREs Comput Mol Sci., 4 (1), 15-25 (2014). 
 CP2K: atomistic simulations of condensed matter systems.
 https://dx.doi.org/10.1002/wcms.1159

 Krack, M. 
 THEORETICAL CHEMISTRY ACCOUNTS, 114 (1-3), 145-152 (2005). 
 Pseudopotentials for H to Kr optimized for gradient-corrected
 exchange-correlation functionals.
 https://dx.doi.org/10.1007/s00214-005-0655-y

 VandeVondele, J; Krack, M; Mohamed, F; Parrinello, M; Chassaing, T;
 Hutter, J. COMPUTER PHYSICS COMMUNICATIONS, 167 (2), 103-128 (2005). 
 QUICKSTEP: Fast and accurate density functional calculations using a
 mixed Gaussian and plane waves approach.
 https://dx.doi.org/10.1016/j.cpc.2004.12.014

 Frigo, M; Johnson, SG. 
 PROCEEDINGS OF THE IEEE, 93 (2), 216-231 (2005). 
 The design and implementation of FFTW3.
 https://dx.doi.org/10.1109/JPROC.2004.840301

 Hartwigsen, C; Goedecker, S; Hutter, J. 
 PHYSICAL REVIEW B, 58 (7), 3641-3662 (1998). 
 Relativistic separable dual-space Gaussian pseudopotentials from H to Rn.
 https://dx.doi.org/10.1103/PhysRevB.58.3641

 Lippert, G; Hutter, J; Parrinello, M. 
 MOLECULAR PHYSICS, 92 (3), 477-487 (1997). 
 A hybrid Gaussian and plane wave density functional scheme.
 https://dx.doi.org/10.1080/002689797170220

 Goedecker, S; Teter, M; Hutter, J. 
 PHYSICAL REVIEW B, 54 (3), 1703-1710 (1996). 
 Separable dual-space Gaussian pseudopotentials.
 https://dx.doi.org/10.1103/PhysRevB.54.1703


 -------------------------------------------------------------------------------
 -                                                                             -
 -                                T I M I N G                                  -
 -                                                                             -
 -------------------------------------------------------------------------------
 SUBROUTINE                       CALLS  ASD         SELF TIME        TOTAL TIME
                                MAXIMUM       AVERAGE  MAXIMUM  AVERAGE  MAXIMUM
 CP2K                                 1  1.0    0.600    0.600  815.713  815.713
 qs_forces                            1  2.0    0.000    0.000  804.956  804.956
 qs_energies                          1  3.0    0.000    0.000  795.658  795.658
 scf_env_do_scf                       1  4.0    0.000    0.000  782.521  782.521
 scf_env_do_scf_inner_loop           32  5.0    0.005    0.005  782.521  782.521
 gspace_mixing                       31  6.0    4.339    4.339  292.348  292.348
 broyden_mixing                      31  7.0  260.429  260.429  260.430  260.430
 qs_scf_new_mos                      32  6.0    0.001    0.001  221.085  221.085
 eigensolver                         32  7.0    0.004    0.004  204.799  204.799
 pw_transfer                        428  9.9    0.054    0.054  163.104  163.104
 fft_wrap_pw1pw2                    362 10.9    0.006    0.006  159.694  159.694
 rebuild_ks_matrix                   33  6.9    0.000    0.000  155.234  155.234
 qs_ks_build_kohn_sham_matrix        33  7.9    0.014    0.014  155.234  155.234
 qs_ks_update_qs_env                 32  6.0    0.000    0.000  150.447  150.447
 fft_wrap_pw1pw2_70                 164 11.2   10.310   10.310  144.444  144.444
 cp_fm_syevd                         32  8.0  138.653  138.653  138.790  138.790
 qs_rho_update_rho                   33  6.0    0.000    0.000  121.863  121.863
 calculate_rho_elec                  33  7.0   43.323   43.323  121.863  121.863
 fft3d_s                            363 12.8   84.186   84.186   84.212   84.212
 density_rs2pw                       33  8.0    0.003    0.003   77.335   77.335
 cp_fm_cholesky_restore              96  8.0   65.888   65.888   65.888   65.888
 sum_up_and_integrate                33  8.9    2.032    2.032   56.488   56.488
 integrate_v_rspace                  33  9.9    5.157    5.157   54.457   54.457
 pw_scatter_s                       196 13.1   45.581   45.581   45.581   45.581
 potential_pw2rs                     33 10.9    0.260    0.260   42.898   42.898
 pw_poisson_solve                    33  8.9   36.632   36.632   40.289   40.289
 qs_vxc_create                       33  8.9    0.001    0.001   22.271   22.271
 xc_vxc_pw_create                    33  9.9    4.841    4.841   22.270   22.270
 pw_gather_s                        166 12.6   17.823   17.823   17.823   17.823
 xc_rho_set_and_dset_create          33 10.9    0.001    0.001   17.429   17.429
 -------------------------------------------------------------------------------

 The number of warnings for this run is : 0
 
 -------------------------------------------------------------------------------
  **** **** ******  **  PROGRAM ENDED AT                 2020-05-20 21:05:18.644
 ***** ** ***  *** **   PROGRAM RAN ON                                   gnode39
 **    ****   ******    PROGRAM RAN BY                               mayank.modi
 ***** **    ** ** **   PROGRAM PROCESS ID                                 18401
  **** **  *******  **  PROGRAM STOPPED IN /home/mayank.modi/ab-initio-thermodyn
                                           amics-of-water/mayank/cp2k_energy_cal
                                           culations
