 DBCSR| CPU Multiplication driver                                           XSMM
 DBCSR| Multrec recursion limit                                              512
 DBCSR| Multiplication stack size                                           1000
 DBCSR| Maximum elements for images                                    UNLIMITED
 DBCSR| Multiplicative factor virtual images                                   1
 DBCSR| Use multiplication densification                                       T
 DBCSR| Multiplication size stacks                                             3


  **** **** ******  **  PROGRAM STARTED AT               2020-05-22 10:51:33.154
 ***** ** ***  *** **   PROGRAM STARTED ON                               gnode39
 **    ****   ******    PROGRAM STARTED BY                           mayank.modi
 ***** **    ** ** **   PROGRAM PROCESS ID                                 31839
  **** **  *******  **  PROGRAM STARTED IN /home/mayank.modi/ab-initio-thermodyn
                                           amics-of-water/mayank/cp2k_energy_cal
                                           culations

 CP2K| version string:                                          CP2K version 7.1
 CP2K| source code revision number:                                  git:e635599
 CP2K| cp2kflags: omp libint fftw3 libxc xsmm spglib                            
 CP2K| is freely available from                            https://www.cp2k.org/
 CP2K| Program compiled at                          Mon Dec 23 19:23:12 CET 2019
 CP2K| Program compiled on                                                pc9404
 CP2K| Program compiled for                                Linux-x86-64-gfortran
 CP2K| Data directory path                                        /opt/cp2k/data
 CP2K| Input file name                                             ./input188.in

 GLOBAL| Force Environment number                                              1
 GLOBAL| Basis set file name                                           BASIS_SET
 GLOBAL| Potential file name                                      GTH_POTENTIALS
 GLOBAL| MM Potential file name                                     MM_POTENTIAL
 GLOBAL| Coordinate file name                                      __STD_INPUT__
 GLOBAL| Method name                                                        CP2K
 GLOBAL| Project name                                                   H2O_bulk
 GLOBAL| Preferred FFT library                                             FFTW3
 GLOBAL| Preferred diagonalization lib.                                       SL
 GLOBAL| Run type                                                   ENERGY_FORCE
 GLOBAL| All-to-all communication in single precision                          F
 GLOBAL| FFTs using library dependent lengths                                  F
 GLOBAL| Global print level                                                  LOW
 GLOBAL| MPI I/O enabled                                                       T
 GLOBAL| Total number of message passing processes                             1
 GLOBAL| Number of threads for this process                                   20
 GLOBAL| This output is from process                                           0
 GLOBAL| CPU model name                Intel(R) Xeon(R) CPU E5-2640 v4 @ 2.40GHz
 GLOBAL| CPUID                                                              1002
 GLOBAL| Compiled for CPUID                                                    0

 MEMORY| system memory details [Kb]
 MEMORY|                        rank 0           min           max       average
 MEMORY| MemTotal            131898148     131898148     131898148     131898148
 MEMORY| MemFree              63737460      63737460      63737460      63737460
 MEMORY| Buffers               3188984       3188984       3188984       3188984
 MEMORY| Cached               35659788      35659788      35659788      35659788
 MEMORY| Slab                  4015440       4015440       4015440       4015440
 MEMORY| SReclaimable          3299452       3299452       3299452       3299452
 MEMORY| MemLikelyFree       105885684     105885684     105885684     105885684


 GENERATE|  Preliminary Number of Bonds generated:                             0
 GENERATE|  Achieved consistency in connectivity generation.

 *******************************************************************************
 *******************************************************************************
 **                                                                           **
 **     #####                         ##              ##                      **
 **    ##   ##            ##          ##              ##                      **
 **   ##     ##                       ##            ######                    **
 **   ##     ##  ##   ##  ##   #####  ##  ##   ####   ##    #####    #####    **
 **   ##     ##  ##   ##  ##  ##      ## ##   ##      ##   ##   ##  ##   ##   **
 **   ##  ## ##  ##   ##  ##  ##      ####     ###    ##   ######   ######    **
 **    ##  ###   ##   ##  ##  ##      ## ##      ##   ##   ##       ##        **
 **     #######   #####   ##   #####  ##  ##  ####    ##    #####   ##        **
 **           ##                                                    ##        **
 **                                                                           **
 **                                                ... make the atoms dance   **
 **                                                                           **
 **            Copyright (C) by CP2K developers group (2000 - 2019)           **
 **                                                                           **
 *******************************************************************************


 TOTAL NUMBERS AND MAXIMUM NUMBERS

  Total number of            - Atomic kinds:                                   2
                             - Atoms:                                        192
                             - Shell sets:                                   384
                             - Shells:                                       704
                             - Primitive Cartesian functions:                960
                             - Cartesian basis functions:                   1536
                             - Spherical basis functions:                   1472

  Maximum angular momentum of- Orbital basis functions:                        2
                             - Local part of the GTH pseudopotential:          2
                             - Non-local part of the GTH pseudopotential:      0


 SCF PARAMETERS         Density guess:                                    ATOMIC
                        --------------------------------------------------------
                        max_scf:                                             300
                        max_scf_history:                                       0
                        max_diis:                                              4
                        --------------------------------------------------------
                        eps_scf:                                        1.00E-07
                        eps_scf_history:                                0.00E+00
                        eps_diis:                                       1.00E-01
                        eps_eigval:                                     1.00E-05
                        --------------------------------------------------------
                        level_shift [a.u.]:                                 0.00
                        --------------------------------------------------------
                        Mixing method:                            BROYDEN_MIXING
                                                charge density mixing in g-space
                        --------------------------------------------------------
                        No outer SCF

 Number of electrons:                                                        512
 Number of occupied orbitals:                                                256
 Number of molecular orbitals:                                               256

 Number of orbital functions:                                               1472
 Number of independent orbital functions:                                   1472

 Extrapolation method: initial_guess


 SCF WAVEFUNCTION OPTIMIZATION

  Step     Update method      Time    Convergence         Total energy    Change
  ------------------------------------------------------------------------------
     1 NoMix/Diag. 0.40E+00   11.3     0.99287508     -1087.1622048595 -1.09E+03
     2 Broy./Diag. 0.40E+00   17.4     0.30189729     -1013.3816044919  7.38E+01
     3 Broy./Diag. 0.40E+00   19.2     0.02662559     -1095.0599147924 -8.17E+01
     4 Broy./Diag. 0.40E+00   19.3     0.02540796     -1094.3410130908  7.19E-01
     5 Broy./Diag. 0.40E+00   20.1     0.00244533     -1095.2517284718 -9.11E-01
     6 Broy./Diag. 0.40E+00   22.0     0.00438137     -1095.2846497484 -3.29E-02
     7 Broy./Diag. 0.40E+00   23.4     0.00237286     -1095.4386438098 -1.54E-01
     8 Broy./Diag. 0.40E+00   25.3     0.00334348     -1095.5588687593 -1.20E-01
     9 Broy./Diag. 0.40E+00   27.9     0.00305774     -1095.6261478496 -6.73E-02
    10 Broy./Diag. 0.40E+00   28.7     0.00158409     -1095.6574896319 -3.13E-02
    11 Broy./Diag. 0.40E+00   27.8     0.00146342     -1095.6233166575  3.42E-02
    12 Broy./Diag. 0.40E+00   29.3     0.00061316     -1095.6317430449 -8.43E-03
    13 Broy./Diag. 0.40E+00   28.2     0.00056922     -1095.6510660420 -1.93E-02
    14 Broy./Diag. 0.40E+00   29.1     0.00024164     -1095.6498003766  1.27E-03
    15 Broy./Diag. 0.40E+00   28.4     0.00022710     -1095.6431222974  6.68E-03
    16 Broy./Diag. 0.40E+00   28.4     0.00014210     -1095.6429420988  1.80E-04
    17 Broy./Diag. 0.40E+00   29.3     0.00006348     -1095.6440420961 -1.10E-03
    18 Broy./Diag. 0.40E+00   29.3     0.00004699     -1095.6444258535 -3.84E-04
    19 Broy./Diag. 0.40E+00   28.1     0.00001657     -1095.6440270018  3.99E-04
    20 Broy./Diag. 0.40E+00   29.0     0.00001112     -1095.6434832483  5.44E-04
    21 Broy./Diag. 0.40E+00   29.9     0.00000695     -1095.6436398583 -1.57E-04
    22 Broy./Diag. 0.40E+00   28.1     0.00000306     -1095.6437727235 -1.33E-04
    23 Broy./Diag. 0.40E+00   28.6     0.00000508     -1095.6437707001  2.02E-06
    24 Broy./Diag. 0.40E+00   28.2     0.00000196     -1095.6436594414  1.11E-04
    25 Broy./Diag. 0.40E+00   29.4     0.00000209     -1095.6436054695  5.40E-05
    26 Broy./Diag. 0.40E+00   28.0     0.00000128     -1095.6436157856 -1.03E-05
    27 Broy./Diag. 0.40E+00   28.5     0.00000072     -1095.6436249320 -9.15E-06
    28 Broy./Diag. 0.40E+00   28.3     0.00000067     -1095.6436168401  8.09E-06
    29 Broy./Diag. 0.40E+00   27.6     0.00000036     -1095.6436122833  4.56E-06
    30 Broy./Diag. 0.40E+00   28.7     0.00000021     -1095.6436127043 -4.21E-07
    31 Broy./Diag. 0.40E+00   29.9     0.00000014     -1095.6436134104 -7.06E-07
    32 Broy./Diag. 0.40E+00   27.8     0.00000007     -1095.6436141505 -7.40E-07

  *** SCF run converged in    32 steps ***


  Electronic density on regular grids:       -512.0005820740       -0.0005820740
  Core density on regular grids:              512.0001288985        0.0001288985
  Total charge density on r-space grids:       -0.0004531754
  Total charge density g-space grids:          -0.0004531754

  Overlap energy of the core charge distribution:               0.00000446973143
  Self energy of the core charge distribution:              -2838.21791979120962
  Core Hamiltonian energy:                                    820.86010841882774
  Hartree energy:                                            1186.27347418150634
  Exchange-correlation energy:                               -264.55928142930998

  Total energy:                                             -1095.64361415045437

 ENERGY| Total FORCE_EVAL ( QS ) energy (a.u.):            -1095.643613710259160


 ATOMIC FORCES in [a.u.]

 # Atom   Kind   Element          X              Y              Z
      1      1      O           0.02813901    -0.03571721    -0.09026015
      2      2      H          -0.02034592     0.02137151    -0.03715365
      3      2      H           0.01548009    -0.00848898    -0.00450124
      4      1      O           0.03576262     0.01152192    -0.01694704
      5      2      H          -0.00148022     0.04087775    -0.03139806
      6      2      H          -0.01483104    -0.05125444     0.03513003
      7      1      O          -0.01587167    -0.03726860    -0.06019062
      8      2      H           0.01652486    -0.02291161     0.01790431
      9      2      H          -0.01707522    -0.03707816     0.00254596
     10      1      O           0.04583742     0.07725844     0.08617548
     11      2      H           0.01416310     0.02356810    -0.01926863
     12      2      H          -0.02084968    -0.00542814    -0.02562142
     13      1      O          -0.03587540    -0.08621991     0.04755598
     14      2      H          -0.00499286     0.00689310     0.00870048
     15      2      H          -0.01006523     0.00806960     0.03556345
     16      1      O          -0.02669439     0.02954109    -0.00706909
     17      2      H           0.00493907     0.05105790     0.00408960
     18      2      H           0.04393378    -0.02696099    -0.01365253
     19      1      O           0.03057261     0.05707167    -0.00474599
     20      2      H          -0.00283815    -0.00073351     0.01058593
     21      2      H          -0.00902921     0.01530774     0.03719985
     22      1      O          -0.01973491     0.00990795     0.10969016
     23      2      H           0.04315844     0.05969626    -0.05226175
     24      2      H          -0.00219800    -0.05354315    -0.06075106
     25      1      O          -0.00709278     0.02590150    -0.09851531
     26      2      H           0.00690729     0.02529421     0.03360784
     27      2      H          -0.01473884     0.00785540    -0.01965621
     28      1      O          -0.05699908     0.04281646     0.07051514
     29      2      H           0.03144217     0.06104643     0.00362895
     30      2      H           0.00989729    -0.00774406     0.00815900
     31      1      O          -0.06167147    -0.00526644     0.10342666
     32      2      H           0.05823901    -0.00133418    -0.06961208
     33      2      H          -0.01328323    -0.02592858     0.01744446
     34      1      O           0.02692388    -0.08135091    -0.02266671
     35      2      H          -0.00321359     0.04851899     0.05357996
     36      2      H           0.01369249    -0.02595953     0.02820590
     37      1      O          -0.02134796     0.06575037     0.02396555
     38      2      H           0.01346422    -0.02855138     0.05789249
     39      2      H          -0.01742783    -0.01086867     0.02960594
     40      1      O          -0.04794200    -0.07158913     0.05834720
     41      2      H           0.00449751    -0.03102408    -0.02461368
     42      2      H           0.02258521     0.09328792     0.03367686
     43      1      O          -0.04883146     0.02800589    -0.06969943
     44      2      H           0.01422243    -0.01213886     0.04396836
     45      2      H           0.01724997    -0.01371910    -0.02373341
     46      1      O          -0.00448531     0.06753836     0.11608563
     47      2      H          -0.00858373     0.00508628    -0.00195864
     48      2      H           0.03318708    -0.00009493    -0.03568117
     49      1      O          -0.02211623     0.09593577     0.08123109
     50      2      H           0.02048652    -0.03093542    -0.01373184
     51      2      H           0.01388801    -0.02582569    -0.01846744
     52      1      O          -0.01107301    -0.07470316     0.13349292
     53      2      H           0.05850481     0.02908494    -0.02399578
     54      2      H          -0.02159435    -0.01245254    -0.04270839
     55      1      O           0.00225276    -0.00641049     0.12085984
     56      2      H          -0.01804781    -0.01623973     0.03170962
     57      2      H           0.00603535    -0.03695447    -0.01265503
     58      1      O           0.05568957     0.02831025    -0.02044729
     59      2      H          -0.00166868     0.01165561    -0.03847054
     60      2      H          -0.02960896    -0.03427084    -0.06251871
     61      1      O          -0.01175099    -0.08649813    -0.05304502
     62      2      H          -0.00262822     0.00226671    -0.02347917
     63      2      H           0.02147349    -0.01660931    -0.03151041
     64      1      O           0.03778619     0.03233053    -0.01516177
     65      2      H          -0.00857686    -0.03143199    -0.02954487
     66      2      H          -0.02511250    -0.02473083     0.01095600
     67      1      O          -0.01204657     0.06910782     0.03308381
     68      2      H           0.01165921     0.01931490    -0.02764648
     69      2      H           0.00715355     0.01805453     0.03206321
     70      1      O           0.02981649    -0.11490803     0.12106312
     71      2      H          -0.02423829    -0.01575158     0.00277336
     72      2      H          -0.01203925     0.01953057     0.03315582
     73      1      O           0.05403117     0.10018813    -0.08623901
     74      2      H          -0.01127478    -0.02362176     0.01467658
     75      2      H          -0.01367521    -0.04025175    -0.06287359
     76      1      O           0.02858573    -0.00413638     0.05099776
     77      2      H           0.00320950     0.03085264    -0.03761148
     78      2      H          -0.04610675     0.00403905     0.00129930
     79      1      O           0.03519232    -0.02717614     0.13220429
     80      2      H           0.00098998     0.01899486    -0.07877062
     81      2      H           0.01125616    -0.01899385    -0.03080131
     82      1      O           0.00303688     0.04957192    -0.11054570
     83      2      H          -0.01543967    -0.00740094    -0.02037077
     84      2      H           0.00042362     0.00795483     0.02429204
     85      1      O          -0.04587646    -0.09228500    -0.00786869
     86      2      H           0.01056005    -0.00524287    -0.02330807
     87      2      H           0.00869342    -0.01230753    -0.00808128
     88      1      O          -0.01859600    -0.05023433    -0.01169188
     89      2      H          -0.00863531    -0.02636706     0.01369554
     90      2      H          -0.00283356    -0.01645569     0.02037976
     91      1      O           0.01634024     0.04700318    -0.12224625
     92      2      H           0.01215163     0.00878686     0.10003692
     93      2      H          -0.02388422     0.01831523    -0.04138843
     94      1      O          -0.03429415    -0.07284274    -0.10130147
     95      2      H           0.01392328    -0.02942265    -0.00484003
     96      2      H           0.03601240     0.05363848    -0.01005288
     97      1      O           0.05110784    -0.10640985    -0.12225554
     98      2      H          -0.02791868     0.05268483    -0.00555128
     99      2      H           0.00495208     0.02639807    -0.04635174
    100      1      O           0.06841662    -0.02997331    -0.08951946
    101      2      H           0.00842007     0.01000653     0.03774746
    102      2      H          -0.06056273     0.00803830    -0.00741198
    103      1      O           0.02063889    -0.02137787     0.04314672
    104      2      H           0.02823471    -0.01249161    -0.09347730
    105      2      H          -0.03521633    -0.05370251    -0.02886565
    106      1      O           0.07388930    -0.05035793     0.00214876
    107      2      H          -0.01220220     0.01067628     0.03709744
    108      2      H          -0.03853453    -0.02212533    -0.10371493
    109      1      O           0.00239513    -0.00339661    -0.08586552
    110      2      H           0.01251329    -0.00639759    -0.00770228
    111      2      H          -0.00355244    -0.00758601    -0.00537395
    112      1      O          -0.06506657    -0.05985284     0.06616773
    113      2      H           0.01428211    -0.03180836    -0.01353681
    114      2      H           0.03159161     0.03486943    -0.01703408
    115      1      O           0.03764423    -0.05071348     0.02486723
    116      2      H          -0.01822782    -0.03425314    -0.05670795
    117      2      H           0.01102269    -0.02660354    -0.01204860
    118      1      O           0.00197598     0.00553150    -0.12413017
    119      2      H           0.00105113    -0.00510632     0.01711004
    120      2      H          -0.01013571     0.03593953    -0.00849654
    121      1      O          -0.00602772     0.00557241     0.02144439
    122      2      H          -0.01520990    -0.01489042     0.01369069
    123      2      H          -0.00746387     0.01603898     0.00269372
    124      1      O          -0.01650672    -0.04364463     0.03851003
    125      2      H           0.00685318     0.02045099    -0.02237207
    126      2      H           0.00978718     0.02708073     0.04598651
    127      1      O           0.01079848    -0.00867618     0.10241402
    128      2      H           0.03943093     0.00593023    -0.02307289
    129      2      H          -0.02308006    -0.07378542    -0.04850784
    130      1      O           0.02252314    -0.04719851     0.01756200
    131      2      H          -0.01819429     0.01667943    -0.00808350
    132      2      H           0.01070615    -0.01935793     0.04760282
    133      1      O          -0.04479309     0.07078275    -0.07502526
    134      2      H           0.02606505    -0.01702417    -0.03313008
    135      2      H           0.00374067    -0.05260770    -0.02085970
    136      1      O          -0.05131808     0.04911592     0.11494068
    137      2      H          -0.01401555    -0.02404386     0.03597283
    138      2      H           0.03329240    -0.04297584     0.03633094
    139      1      O           0.05048629    -0.06907770    -0.08522145
    140      2      H          -0.02937305    -0.01263520     0.00041521
    141      2      H          -0.02387520     0.02289117    -0.04301728
    142      1      O           0.01449237    -0.02904472    -0.01052779
    143      2      H          -0.03448981    -0.00035056    -0.06943324
    144      2      H           0.01955332     0.00799704    -0.02019545
    145      1      O           0.02999028    -0.05257319    -0.05719029
    146      2      H          -0.01070239     0.00154049    -0.03121757
    147      2      H           0.02187561     0.01402046     0.02524575
    148      1      O           0.03363758     0.07699363     0.10480235
    149      2      H           0.01168840    -0.00186413     0.01849421
    150      2      H          -0.03019203     0.00303746    -0.04152087
    151      1      O           0.04460521    -0.02902987    -0.10794527
    152      2      H          -0.02024459    -0.04633669     0.00241780
    153      2      H           0.00815197     0.00140056    -0.03601612
    154      1      O           0.06536219    -0.08879173    -0.00929858
    155      2      H          -0.03259164     0.04348404     0.06581704
    156      2      H          -0.00808487     0.01605489    -0.02834628
    157      1      O           0.03402204    -0.01971311     0.00923237
    158      2      H          -0.00139004     0.02212762    -0.02912075
    159      2      H          -0.03562043    -0.01254680    -0.02972153
    160      1      O          -0.00661030    -0.06393787    -0.11428536
    161      2      H           0.02495131     0.04277555    -0.03501090
    162      2      H          -0.01214345    -0.04614608    -0.01259076
    163      1      O          -0.04912476     0.05252926     0.22650125
    164      2      H          -0.00200120    -0.03510590     0.03392161
    165      2      H           0.08153153    -0.02004639    -0.11589940
    166      1      O          -0.05541819    -0.06076754    -0.03927436
    167      2      H           0.02278338     0.00216216     0.01127316
    168      2      H           0.01618879    -0.01173304     0.04215567
    169      1      O           0.08117354    -0.05487575     0.01798218
    170      2      H          -0.05011243    -0.03226118    -0.03380748
    171      2      H           0.00711349     0.02384976    -0.00482808
    172      1      O          -0.01073467    -0.02080615     0.09684773
    173      2      H           0.02314223     0.00303165    -0.05401938
    174      2      H          -0.00977566    -0.04837451    -0.03563109
    175      1      O          -0.02757909    -0.10181003    -0.12082371
    176      2      H           0.00957505     0.01869652     0.02631097
    177      2      H           0.00311267     0.02966352     0.02769953
    178      1      O           0.00540315     0.05281241     0.00277713
    179      2      H           0.01570422     0.04170113    -0.01034732
    180      2      H          -0.04865532    -0.01353894     0.01603846
    181      1      O          -0.01353680    -0.06809252     0.04892183
    182      2      H           0.04389824    -0.00217136    -0.03181294
    183      2      H           0.00859037     0.02946286    -0.03311637
    184      1      O          -0.01528939     0.03231746     0.01532874
    185      2      H          -0.01356469    -0.03975314     0.00617310
    186      2      H           0.00665193    -0.01683731     0.03350472
    187      1      O          -0.00099660     0.01908718     0.02739249
    188      2      H           0.00142136    -0.00915839     0.04024050
    189      2      H           0.00514362    -0.06684351     0.02379959
    190      1      O           0.01128633     0.00994998    -0.05338301
    191      2      H          -0.04576437     0.07627573    -0.04850868
    192      2      H           0.01159708    -0.00857535     0.03010602
 SUM OF ATOMIC FORCES           0.28992397    -0.99695492    -0.66848297     1.23484594

 -------------------------------------------------------------------------------
 -                                                                             -
 -                                DBCSR STATISTICS                             -
 -                                                                             -
 -------------------------------------------------------------------------------
 COUNTER                                    TOTAL       BLAS       SMM       ACC
 flops     5 x     5 x   256            715123200       0.0%    100.0%      0.0%
 flops     5 x    13 x   256            887377920       0.0%    100.0%      0.0%
 flops    13 x     5 x   256            887377920       0.0%    100.0%      0.0%
 flops    13 x    13 x   256           1242109440       0.0%    100.0%      0.0%
 flops inhomo. stacks                           0       0.0%      0.0%      0.0%
 flops total                         3.731988E+09       0.0%    100.0%      0.0%
 flops max/rank                      3.731988E+09       0.0%    100.0%      0.0%
 matmuls inhomo. stacks                         0       0.0%      0.0%      0.0%
 matmuls total                             123552       0.0%    100.0%      0.0%
 number of processed stacks                  2574       0.0%    100.0%      0.0%
 average stack size                                     0.0      48.0       0.0
 marketing flops                    36.609982E+09
 -------------------------------------------------------------------------------
 # multiplications                             33
 max memory usage/rank              25.804993E+09
 # max total images/rank                        1
 # max 3D layers                                1
 # MPI messages exchanged                       0
 MPI messages size (bytes):
  total size                         0.000000E+00
  min size                           0.000000E+00
  max size                           0.000000E+00
  average size                       0.000000E+00
 MPI breakdown and total messages size (bytes):
             size <=      128                   0                        0
       128 < size <=     8192                   0                        0
      8192 < size <=    32768                   0                        0
     32768 < size <=   131072                   0                        0
    131072 < size <=  4194304                   0                        0
   4194304 < size <= 16777216                   0                        0
  16777216 < size                               0                        0
 -------------------------------------------------------------------------------

 MEMORY| Estimated peak process memory [MiB]                               24611

 -------------------------------------------------------------------------------
 -                                                                             -
 -                           R E F E R E N C E S                               -
 -                                                                             -
 -------------------------------------------------------------------------------
 
 CP2K version 7.1, the CP2K developers group (2019).
 CP2K is freely available from https://www.cp2k.org/ .

 Schuett, Ole; Messmer, Peter; Hutter, Juerg; VandeVondele, Joost. 
 Electronic Structure Calculations on Graphics Processing Units, John
 Wiley & Sons, Ltd, 173-190 (2016). 
 GPU-Accelerated Sparse Matrix-Matrix Multiplication for
 Linear Scaling Density Functional Theory.
 https://dx.doi.org/10.1002/9781118670712.ch8

 Borstnik, U; VandeVondele, J; Weber, V; Hutter, J. 
 PARALLEL COMPUTING, 40 (5-6), 47-58 (2014). 
 Sparse matrix multiplication: The distributed block-compressed sparse
 row library.
 https://dx.doi.org/10.1016/j.parco.2014.03.012

 Hutter, J; Iannuzzi, M; Schiffmann, F; VandeVondele, J. 
 WIREs Comput Mol Sci., 4 (1), 15-25 (2014). 
 CP2K: atomistic simulations of condensed matter systems.
 https://dx.doi.org/10.1002/wcms.1159

 Krack, M. 
 THEORETICAL CHEMISTRY ACCOUNTS, 114 (1-3), 145-152 (2005). 
 Pseudopotentials for H to Kr optimized for gradient-corrected
 exchange-correlation functionals.
 https://dx.doi.org/10.1007/s00214-005-0655-y

 VandeVondele, J; Krack, M; Mohamed, F; Parrinello, M; Chassaing, T;
 Hutter, J. COMPUTER PHYSICS COMMUNICATIONS, 167 (2), 103-128 (2005). 
 QUICKSTEP: Fast and accurate density functional calculations using a
 mixed Gaussian and plane waves approach.
 https://dx.doi.org/10.1016/j.cpc.2004.12.014

 Frigo, M; Johnson, SG. 
 PROCEEDINGS OF THE IEEE, 93 (2), 216-231 (2005). 
 The design and implementation of FFTW3.
 https://dx.doi.org/10.1109/JPROC.2004.840301

 Hartwigsen, C; Goedecker, S; Hutter, J. 
 PHYSICAL REVIEW B, 58 (7), 3641-3662 (1998). 
 Relativistic separable dual-space Gaussian pseudopotentials from H to Rn.
 https://dx.doi.org/10.1103/PhysRevB.58.3641

 Lippert, G; Hutter, J; Parrinello, M. 
 MOLECULAR PHYSICS, 92 (3), 477-487 (1997). 
 A hybrid Gaussian and plane wave density functional scheme.
 https://dx.doi.org/10.1080/002689797170220

 Goedecker, S; Teter, M; Hutter, J. 
 PHYSICAL REVIEW B, 54 (3), 1703-1710 (1996). 
 Separable dual-space Gaussian pseudopotentials.
 https://dx.doi.org/10.1103/PhysRevB.54.1703


 -------------------------------------------------------------------------------
 -                                                                             -
 -                                T I M I N G                                  -
 -                                                                             -
 -------------------------------------------------------------------------------
 SUBROUTINE                       CALLS  ASD         SELF TIME        TOTAL TIME
                                MAXIMUM       AVERAGE  MAXIMUM  AVERAGE  MAXIMUM
 CP2K                                 1  1.0    0.750    0.750  877.453  877.453
 qs_forces                            1  2.0    0.000    0.000  865.443  865.443
 qs_energies                          1  3.0    0.000    0.000  860.553  860.553
 scf_env_do_scf                       1  4.0    0.000    0.000  848.400  848.400
 scf_env_do_scf_inner_loop           32  5.0    0.005    0.005  848.400  848.400
 gspace_mixing                       31  6.0    4.504    4.504  354.117  354.117
 broyden_mixing                      31  7.0  316.429  316.429  316.430  316.430
 qs_scf_new_mos                      32  6.0    0.001    0.001  211.467  211.467
 eigensolver                         32  7.0    0.003    0.003  205.047  205.047
 pw_transfer                        428  9.9    0.042    0.042  181.966  181.966
 fft_wrap_pw1pw2                    362 10.9    0.006    0.006  177.662  177.662
 rebuild_ks_matrix                   33  6.9    0.000    0.000  165.996  165.996
 qs_ks_build_kohn_sham_matrix        33  7.9    0.012    0.012  165.996  165.996
 fft_wrap_pw1pw2_70                 164 11.2   13.869   13.869  161.641  161.641
 qs_ks_update_qs_env                 32  6.0    0.000    0.000  161.271  161.271
 cp_fm_syevd                         32  8.0  139.386  139.386  139.540  139.540
 qs_rho_update_rho                   33  6.0    0.000    0.000  124.645  124.645
 calculate_rho_elec                  33  7.0   39.804   39.804  124.644  124.644
 fft3d_s                            363 12.8   91.070   91.070   91.079   91.079
 density_rs2pw                       33  8.0    0.003    0.003   83.827   83.827
 cp_fm_cholesky_restore              96  8.0   65.377   65.377   65.377   65.377
 pw_scatter_s                       196 13.1   53.913   53.913   53.913   53.913
 sum_up_and_integrate                33  8.9    2.174    2.174   53.628   53.628
 integrate_v_rspace                  33  9.9    2.670    2.670   51.454   51.454
 pw_poisson_solve                    33  8.9   43.593   43.593   48.174   48.174
 potential_pw2rs                     33 10.9    0.307    0.307   46.322   46.322
 qs_vxc_create                       33  8.9    0.001    0.001   21.881   21.881
 xc_vxc_pw_create                    33  9.9    4.878    4.878   21.880   21.880
 -------------------------------------------------------------------------------

 The number of warnings for this run is : 0
 
 -------------------------------------------------------------------------------
  **** **** ******  **  PROGRAM ENDED AT                 2020-05-22 11:06:10.823
 ***** ** ***  *** **   PROGRAM RAN ON                                   gnode39
 **    ****   ******    PROGRAM RAN BY                               mayank.modi
 ***** **    ** ** **   PROGRAM PROCESS ID                                 31839
  **** **  *******  **  PROGRAM STOPPED IN /home/mayank.modi/ab-initio-thermodyn
                                           amics-of-water/mayank/cp2k_energy_cal
                                           culations
