 DBCSR| CPU Multiplication driver                                           XSMM
 DBCSR| Multrec recursion limit                                              512
 DBCSR| Multiplication stack size                                           1000
 DBCSR| Maximum elements for images                                    UNLIMITED
 DBCSR| Multiplicative factor virtual images                                   1
 DBCSR| Use multiplication densification                                       T
 DBCSR| Multiplication size stacks                                             3


  **** **** ******  **  PROGRAM STARTED AT               2020-05-21 10:28:14.518
 ***** ** ***  *** **   PROGRAM STARTED ON                               gnode39
 **    ****   ******    PROGRAM STARTED BY                           mayank.modi
 ***** **    ** ** **   PROGRAM PROCESS ID                                 15609
  **** **  *******  **  PROGRAM STARTED IN /home/mayank.modi/ab-initio-thermodyn
                                           amics-of-water/mayank/cp2k_energy_cal
                                           culations

 CP2K| version string:                                          CP2K version 7.1
 CP2K| source code revision number:                                  git:e635599
 CP2K| cp2kflags: omp libint fftw3 libxc xsmm spglib                            
 CP2K| is freely available from                            https://www.cp2k.org/
 CP2K| Program compiled at                          Mon Dec 23 19:23:12 CET 2019
 CP2K| Program compiled on                                                pc9404
 CP2K| Program compiled for                                Linux-x86-64-gfortran
 CP2K| Data directory path                                        /opt/cp2k/data
 CP2K| Input file name                                              ./input80.in

 GLOBAL| Force Environment number                                              1
 GLOBAL| Basis set file name                                           BASIS_SET
 GLOBAL| Potential file name                                      GTH_POTENTIALS
 GLOBAL| MM Potential file name                                     MM_POTENTIAL
 GLOBAL| Coordinate file name                                      __STD_INPUT__
 GLOBAL| Method name                                                        CP2K
 GLOBAL| Project name                                                   H2O_bulk
 GLOBAL| Preferred FFT library                                             FFTW3
 GLOBAL| Preferred diagonalization lib.                                       SL
 GLOBAL| Run type                                                   ENERGY_FORCE
 GLOBAL| All-to-all communication in single precision                          F
 GLOBAL| FFTs using library dependent lengths                                  F
 GLOBAL| Global print level                                                  LOW
 GLOBAL| MPI I/O enabled                                                       T
 GLOBAL| Total number of message passing processes                             1
 GLOBAL| Number of threads for this process                                   20
 GLOBAL| This output is from process                                           0
 GLOBAL| CPU model name                Intel(R) Xeon(R) CPU E5-2640 v4 @ 2.40GHz
 GLOBAL| CPUID                                                              1002
 GLOBAL| Compiled for CPUID                                                    0

 MEMORY| system memory details [Kb]
 MEMORY|                        rank 0           min           max       average
 MEMORY| MemTotal            131898148     131898148     131898148     131898148
 MEMORY| MemFree              88689908      88689908      88689908      88689908
 MEMORY| Buffers               3187120       3187120       3187120       3187120
 MEMORY| Cached               34125220      34125220      34125220      34125220
 MEMORY| Slab                  3930004       3930004       3930004       3930004
 MEMORY| SReclaimable          3268508       3268508       3268508       3268508
 MEMORY| MemLikelyFree       129270756     129270756     129270756     129270756


 GENERATE|  Preliminary Number of Bonds generated:                             0
 GENERATE|  Achieved consistency in connectivity generation.

 *******************************************************************************
 *******************************************************************************
 **                                                                           **
 **     #####                         ##              ##                      **
 **    ##   ##            ##          ##              ##                      **
 **   ##     ##                       ##            ######                    **
 **   ##     ##  ##   ##  ##   #####  ##  ##   ####   ##    #####    #####    **
 **   ##     ##  ##   ##  ##  ##      ## ##   ##      ##   ##   ##  ##   ##   **
 **   ##  ## ##  ##   ##  ##  ##      ####     ###    ##   ######   ######    **
 **    ##  ###   ##   ##  ##  ##      ## ##      ##   ##   ##       ##        **
 **     #######   #####   ##   #####  ##  ##  ####    ##    #####   ##        **
 **           ##                                                    ##        **
 **                                                                           **
 **                                                ... make the atoms dance   **
 **                                                                           **
 **            Copyright (C) by CP2K developers group (2000 - 2019)           **
 **                                                                           **
 *******************************************************************************


 TOTAL NUMBERS AND MAXIMUM NUMBERS

  Total number of            - Atomic kinds:                                   2
                             - Atoms:                                        192
                             - Shell sets:                                   384
                             - Shells:                                       704
                             - Primitive Cartesian functions:                960
                             - Cartesian basis functions:                   1536
                             - Spherical basis functions:                   1472

  Maximum angular momentum of- Orbital basis functions:                        2
                             - Local part of the GTH pseudopotential:          2
                             - Non-local part of the GTH pseudopotential:      0


 SCF PARAMETERS         Density guess:                                    ATOMIC
                        --------------------------------------------------------
                        max_scf:                                             300
                        max_scf_history:                                       0
                        max_diis:                                              4
                        --------------------------------------------------------
                        eps_scf:                                        1.00E-07
                        eps_scf_history:                                0.00E+00
                        eps_diis:                                       1.00E-01
                        eps_eigval:                                     1.00E-05
                        --------------------------------------------------------
                        level_shift [a.u.]:                                 0.00
                        --------------------------------------------------------
                        Mixing method:                            BROYDEN_MIXING
                                                charge density mixing in g-space
                        --------------------------------------------------------
                        No outer SCF

 Number of electrons:                                                        512
 Number of occupied orbitals:                                                256
 Number of molecular orbitals:                                               256

 Number of orbital functions:                                               1472
 Number of independent orbital functions:                                   1472

 Extrapolation method: initial_guess


 SCF WAVEFUNCTION OPTIMIZATION

  Step     Update method      Time    Convergence         Total energy    Change
  ------------------------------------------------------------------------------
     1 NoMix/Diag. 0.40E+00   10.8     1.01024701     -1087.3982794693 -1.09E+03
     2 Broy./Diag. 0.40E+00   16.9     0.29508216     -1013.1619836215  7.42E+01
     3 Broy./Diag. 0.40E+00   17.4     0.02785979     -1094.4669679744 -8.13E+01
     4 Broy./Diag. 0.40E+00   17.9     0.02787515     -1094.2709198035  1.96E-01
     5 Broy./Diag. 0.40E+00   19.2     0.00247106     -1095.1903206359 -9.19E-01
     6 Broy./Diag. 0.40E+00   20.4     0.00394946     -1095.2168552835 -2.65E-02
     7 Broy./Diag. 0.40E+00   21.6     0.00262660     -1095.3797438125 -1.63E-01
     8 Broy./Diag. 0.40E+00   22.3     0.00454625     -1095.5099965344 -1.30E-01
     9 Broy./Diag. 0.40E+00   24.7     0.00390009     -1095.5911812908 -8.12E-02
    10 Broy./Diag. 0.40E+00   24.9     0.00165060     -1095.6224072783 -3.12E-02
    11 Broy./Diag. 0.40E+00   24.6     0.00120190     -1095.5928481591  2.96E-02
    12 Broy./Diag. 0.40E+00   25.0     0.00056444     -1095.6014690224 -8.62E-03
    13 Broy./Diag. 0.40E+00   24.6     0.00049992     -1095.6217266157 -2.03E-02
    14 Broy./Diag. 0.40E+00   24.8     0.00019876     -1095.6246250813 -2.90E-03
    15 Broy./Diag. 0.40E+00   25.1     0.00024861     -1095.6175341499  7.09E-03
    16 Broy./Diag. 0.40E+00   24.8     0.00016038     -1095.6174228727  1.11E-04
    17 Broy./Diag. 0.40E+00   23.9     0.00005518     -1095.6185950150 -1.17E-03
    18 Broy./Diag. 0.40E+00   24.6     0.00003838     -1095.6190158608 -4.21E-04
    19 Broy./Diag. 0.40E+00   24.4     0.00001198     -1095.6187902203  2.26E-04
    20 Broy./Diag. 0.40E+00   24.4     0.00001487     -1095.6181923626  5.98E-04
    21 Broy./Diag. 0.40E+00   25.0     0.00000897     -1095.6183251007 -1.33E-04
    22 Broy./Diag. 0.40E+00   24.1     0.00000528     -1095.6185461625 -2.21E-04
    23 Broy./Diag. 0.40E+00   24.3     0.00000499     -1095.6186293660 -8.32E-05
    24 Broy./Diag. 0.40E+00   25.0     0.00000191     -1095.6185789326  5.04E-05
    25 Broy./Diag. 0.40E+00   24.8     0.00000240     -1095.6185308734  4.81E-05
    26 Broy./Diag. 0.40E+00   24.4     0.00000121     -1095.6185313874 -5.14E-07
    27 Broy./Diag. 0.40E+00   25.6     0.00000086     -1095.6185389618 -7.57E-06
    28 Broy./Diag. 0.40E+00   24.5     0.00000076     -1095.6185433472 -4.39E-06
    29 Broy./Diag. 0.40E+00   25.2     0.00000036     -1095.6185357726  7.57E-06
    30 Broy./Diag. 0.40E+00   24.5     0.00000031     -1095.6185316605  4.11E-06
    31 Broy./Diag. 0.40E+00   24.8     0.00000019     -1095.6185292022  2.46E-06
    32 Broy./Diag. 0.40E+00   24.2     0.00000008     -1095.6185303421 -1.14E-06

  *** SCF run converged in    32 steps ***


  Electronic density on regular grids:       -511.9997836383        0.0002163617
  Core density on regular grids:              512.0004801989        0.0004801989
  Total charge density on r-space grids:        0.0006965606
  Total charge density g-space grids:           0.0006965606

  Overlap energy of the core charge distribution:               0.00000495626760
  Self energy of the core charge distribution:              -2838.21791979120962
  Core Hamiltonian energy:                                    821.84421368417543
  Hartree energy:                                            1185.63325473634336
  Exchange-correlation energy:                               -264.87808392770410

  Total energy:                                             -1095.61853034212709

 ENERGY| Total FORCE_EVAL ( QS ) energy (a.u.):            -1095.618530558424027


 ATOMIC FORCES in [a.u.]

 # Atom   Kind   Element          X              Y              Z
      1      1      O           0.03685276    -0.01273544    -0.12007124
      2      2      H          -0.02775013    -0.00506391     0.07809407
      3      2      H          -0.00473556     0.04816011     0.03349617
      4      1      O          -0.03442185     0.01317835     0.10340969
      5      2      H           0.00084584    -0.02505200    -0.02411778
      6      2      H           0.04317320    -0.03856099    -0.02341833
      7      1      O           0.01129477    -0.04090211     0.15113906
      8      2      H          -0.00878499    -0.02732620    -0.00646066
      9      2      H          -0.01080612     0.03966199    -0.08552166
     10      1      O          -0.02020236     0.07202179     0.12239969
     11      2      H          -0.00617914    -0.02412190    -0.01419296
     12      2      H           0.04239405    -0.06343044    -0.07344788
     13      1      O           0.04970558    -0.10859945    -0.03678255
     14      2      H           0.04459744     0.05762133    -0.00167569
     15      2      H          -0.07518421     0.02264430    -0.01331081
     16      1      O          -0.01146699    -0.01230436    -0.05076197
     17      2      H           0.03081483    -0.02469426     0.04149565
     18      2      H          -0.00930092    -0.01338129     0.00556992
     19      1      O           0.02878074     0.07947087     0.06773367
     20      2      H          -0.03205711    -0.00425934     0.01831687
     21      2      H           0.01621423     0.00046085    -0.04334596
     22      1      O           0.02259505     0.03099826     0.03728850
     23      2      H          -0.00366755     0.00788206     0.01688145
     24      2      H          -0.02541472     0.00011471    -0.00659445
     25      1      O          -0.03532519    -0.03807237     0.10290075
     26      2      H           0.01096974    -0.02269755     0.02985964
     27      2      H           0.01490376    -0.02601748    -0.04165678
     28      1      O          -0.07512368     0.06853945     0.00698760
     29      2      H           0.01059596    -0.01701547     0.02563279
     30      2      H           0.02507262     0.00301202    -0.04634958
     31      1      O           0.02680702     0.03198636     0.00716146
     32      2      H          -0.00586303    -0.01962840    -0.03215074
     33      2      H          -0.05335897    -0.03634699     0.01626755
     34      1      O          -0.00672044     0.00687524    -0.05898721
     35      2      H           0.00066831     0.01118003     0.02551992
     36      2      H          -0.02492036     0.01123573    -0.03701114
     37      1      O          -0.05902579    -0.02065637    -0.13738087
     38      2      H           0.04117085    -0.07004901     0.04228569
     39      2      H          -0.00282481     0.02825471    -0.01435636
     40      1      O          -0.04602707     0.07745554    -0.00911489
     41      2      H           0.03872108     0.00380090     0.03974763
     42      2      H           0.00211904     0.02733396    -0.05590463
     43      1      O          -0.02565206     0.04180904     0.03583318
     44      2      H          -0.01204970     0.02987537    -0.00760228
     45      2      H           0.01394158     0.00683066    -0.00176014
     46      1      O          -0.03761141     0.10515073    -0.00008676
     47      2      H           0.00825100    -0.06655935     0.00519697
     48      2      H           0.00504499    -0.01698731     0.06288687
     49      1      O           0.01561925    -0.05077238    -0.01681206
     50      2      H           0.01358261    -0.00462895    -0.03970619
     51      2      H           0.01122303    -0.04249240    -0.06259645
     52      1      O          -0.02263305     0.00253836     0.12452118
     53      2      H           0.02231827    -0.03745391     0.01872024
     54      2      H          -0.01497035     0.01228035    -0.01147376
     55      1      O          -0.02177493    -0.05012785    -0.07815244
     56      2      H           0.01116139    -0.02019722     0.02214425
     57      2      H          -0.00901840    -0.04027523     0.02248778
     58      1      O           0.00964392    -0.02842242    -0.10268794
     59      2      H          -0.02411587     0.02889895    -0.02791712
     60      2      H          -0.01324983    -0.00157727     0.01108947
     61      1      O          -0.01778200    -0.06657482    -0.01374594
     62      2      H          -0.00584994     0.01319281    -0.01795099
     63      2      H           0.02791314    -0.02095158     0.00631629
     64      1      O           0.02708217    -0.06802989     0.12636325
     65      2      H           0.02526114    -0.01510232     0.01430344
     66      2      H          -0.04411832     0.02073676    -0.03198350
     67      1      O          -0.01241655    -0.00841255    -0.12257558
     68      2      H          -0.00185072     0.02191067     0.06038276
     69      2      H           0.02214737     0.00702161    -0.04485658
     70      1      O           0.01784366     0.00229209     0.06089451
     71      2      H          -0.01239345     0.04782837    -0.03088310
     72      2      H           0.01547702     0.04496139     0.01179310
     73      1      O          -0.02108786     0.13230409    -0.04140347
     74      2      H           0.00348278    -0.04781007     0.03774263
     75      2      H          -0.00844679    -0.04955117    -0.07907829
     76      1      O           0.03329063     0.06229337     0.00077612
     77      2      H           0.02071354    -0.05136630    -0.02902441
     78      2      H          -0.03793101     0.01762528    -0.03687461
     79      1      O          -0.04123194    -0.09366858    -0.02119502
     80      2      H          -0.00927906     0.01797213    -0.02213582
     81      2      H          -0.00701378     0.00804011    -0.00825140
     82      1      O           0.07062683     0.07578686     0.12259483
     83      2      H          -0.03271861     0.00498790    -0.02014299
     84      2      H          -0.02484751     0.03401295     0.00099515
     85      1      O          -0.03937745    -0.13281970     0.08916539
     86      2      H           0.03041406    -0.01762493    -0.00346009
     87      2      H          -0.00122524     0.09096608     0.01427122
     88      1      O          -0.03382300    -0.00555452    -0.03812303
     89      2      H           0.01652747    -0.05319529    -0.01004886
     90      2      H           0.03315606     0.01101817    -0.00019949
     91      1      O           0.01718127     0.09117388    -0.08350966
     92      2      H          -0.01042547     0.02589370     0.05917213
     93      2      H          -0.03091108     0.00549785    -0.00861596
     94      1      O          -0.03045943    -0.07226740    -0.01046661
     95      2      H           0.03215699    -0.01003572    -0.03841193
     96      2      H           0.02105572     0.02884312     0.06749462
     97      1      O          -0.04837350    -0.09209842    -0.08926056
     98      2      H           0.03382112     0.03094958    -0.00742403
     99      2      H           0.00078325     0.02131462     0.00802279
    100      1      O          -0.03296039    -0.01409348     0.06179422
    101      2      H           0.01044783    -0.03766694    -0.00095635
    102      2      H           0.00935844    -0.03113607     0.05998327
    103      1      O          -0.05882977     0.05982716     0.17122342
    104      2      H           0.01667888     0.05035480    -0.03820445
    105      2      H           0.02503770    -0.05124373    -0.01293445
    106      1      O          -0.01835175     0.05856366    -0.06067328
    107      2      H           0.03423292     0.02246779    -0.06619804
    108      2      H           0.01724872    -0.05409132     0.04112258
    109      1      O          -0.05079146    -0.04325791     0.05927378
    110      2      H           0.00381265    -0.02776962     0.01201093
    111      2      H           0.02459949    -0.00093893    -0.00293117
    112      1      O          -0.03250388    -0.07436482    -0.09402336
    113      2      H          -0.00604045    -0.00361178    -0.01189493
    114      2      H           0.06047753    -0.03313806    -0.00584770
    115      1      O          -0.00394534     0.08786223     0.05167178
    116      2      H          -0.00751600     0.03050895    -0.00840111
    117      2      H           0.00339877    -0.01938968     0.05082145
    118      1      O          -0.07395052    -0.03975870    -0.08445081
    119      2      H           0.02996967     0.02736416    -0.01653744
    120      2      H           0.02065682    -0.00970211     0.00637167
    121      1      O          -0.02502738     0.05340726    -0.04671637
    122      2      H           0.00961833    -0.05224449     0.01174295
    123      2      H          -0.01646168    -0.01325522    -0.00881841
    124      1      O           0.03002169     0.04930392     0.06164587
    125      2      H          -0.01037831     0.01780198     0.00121202
    126      2      H           0.01333454    -0.00091874     0.04356635
    127      1      O           0.01130231    -0.02966542    -0.01808505
    128      2      H           0.02106929    -0.02394622     0.07893527
    129      2      H          -0.02403198    -0.01305619    -0.00360620
    130      1      O          -0.03749955     0.08651217     0.09027573
    131      2      H          -0.01847291    -0.04910077    -0.00959251
    132      2      H           0.02142471    -0.00054835     0.01631785
    133      1      O          -0.04659751    -0.09989922    -0.03389114
    134      2      H           0.04810353     0.02644277    -0.03945090
    135      2      H          -0.00824459    -0.02161513    -0.01565861
    136      1      O          -0.01774642    -0.03857865     0.00664601
    137      2      H          -0.02515725     0.00155086     0.02715677
    138      2      H          -0.00808646    -0.01254515     0.01417220
    139      1      O           0.04038764    -0.05899839     0.01968669
    140      2      H          -0.01224933    -0.00843840     0.03394867
    141      2      H           0.00103622    -0.02879495    -0.01450454
    142      1      O           0.03103157    -0.03832448     0.04805933
    143      2      H          -0.00925661    -0.04788835     0.03773574
    144      2      H           0.01071103    -0.02992805    -0.02998655
    145      1      O          -0.06397579    -0.13179839     0.05570897
    146      2      H           0.01645330    -0.02291677    -0.03897410
    147      2      H           0.01551546     0.03424312     0.01191079
    148      1      O          -0.01284691     0.07795341    -0.05932878
    149      2      H           0.05335289    -0.03609596    -0.04298321
    150      2      H          -0.02658067     0.00951440    -0.05896982
    151      1      O          -0.03079720    -0.07298709     0.00813929
    152      2      H          -0.00857294    -0.09403589    -0.01468485
    153      2      H          -0.02432298     0.07122943    -0.00706480
    154      1      O           0.00279709     0.07491065    -0.09641033
    155      2      H           0.01840010     0.00647968    -0.04967267
    156      2      H          -0.04160635    -0.08538327    -0.00164893
    157      1      O          -0.07529274    -0.05977353    -0.04783653
    158      2      H           0.05299173     0.00207857     0.04057069
    159      2      H           0.00883334    -0.02907975    -0.01508478
    160      1      O           0.02456618     0.01561838     0.13580798
    161      2      H          -0.00386105     0.03264615    -0.02849992
    162      2      H           0.01706059     0.03359753    -0.06181832
    163      1      O           0.01778747    -0.00942032    -0.04663343
    164      2      H          -0.02017566     0.01129173     0.03723187
    165      2      H          -0.01701020     0.04214912    -0.01072577
    166      1      O          -0.06830176    -0.02712216     0.05684210
    167      2      H           0.03346863     0.01741187    -0.04067973
    168      2      H           0.01070811     0.02028485     0.00911661
    169      1      O           0.06935137     0.01348056     0.05259171
    170      2      H          -0.07695944     0.04531677    -0.06679888
    171      2      H           0.00378402     0.00104821     0.03380705
    172      1      O          -0.01031617    -0.01020553    -0.01856688
    173      2      H           0.02583518     0.00693745     0.03500613
    174      2      H          -0.01547586     0.03154917    -0.03496297
    175      1      O          -0.03276195    -0.03737352     0.11126958
    176      2      H          -0.03205295     0.05138839     0.03812561
    177      2      H           0.03930125     0.00174127    -0.01074896
    178      1      O           0.02880775    -0.07806200     0.00281642
    179      2      H          -0.02034889     0.00223271    -0.03047603
    180      2      H          -0.01183586     0.02500872     0.01359126
    181      1      O          -0.01579497     0.10324018    -0.13500725
    182      2      H          -0.01460706    -0.01540481    -0.00644354
    183      2      H           0.05606257    -0.04598689    -0.01711769
    184      1      O           0.00214835     0.05753320    -0.13733156
    185      2      H           0.00992491    -0.06593506     0.01983792
    186      2      H          -0.03886322    -0.00130304    -0.00916089
    187      1      O          -0.00502111    -0.07691552     0.17706627
    188      2      H           0.01832496    -0.06544693    -0.01205020
    189      2      H           0.00581388     0.08490615    -0.02334594
    190      1      O           0.02925203    -0.04881544     0.01764428
    191      2      H          -0.02601372     0.00102381    -0.01764870
    192      2      H           0.02403886    -0.01221269     0.09894956
 SUM OF ATOMIC FORCES          -0.33273684    -0.71697815     0.06169455     0.79282891

 -------------------------------------------------------------------------------
 -                                                                             -
 -                                DBCSR STATISTICS                             -
 -                                                                             -
 -------------------------------------------------------------------------------
 COUNTER                                    TOTAL       BLAS       SMM       ACC
 flops     5 x     5 x   256            849024000       0.0%    100.0%      0.0%
 flops     5 x    13 x   256           1070784000       0.0%    100.0%      0.0%
 flops    13 x     5 x   256           1078471680       0.0%    100.0%      0.0%
 flops    13 x    13 x   256           1504808448       0.0%    100.0%      0.0%
 flops inhomo. stacks                           0       0.0%      0.0%      0.0%
 flops total                         4.503088E+09       0.0%    100.0%      0.0%
 flops max/rank                      4.503088E+09       0.0%    100.0%      0.0%
 matmuls inhomo. stacks                         0       0.0%      0.0%      0.0%
 matmuls total                             148302       0.0%    100.0%      0.0%
 number of processed stacks                  2574       0.0%    100.0%      0.0%
 average stack size                                     0.0      57.6       0.0
 marketing flops                    36.609982E+09
 -------------------------------------------------------------------------------
 # multiplications                             33
 max memory usage/rank              25.807450E+09
 # max total images/rank                        1
 # max 3D layers                                1
 # MPI messages exchanged                       0
 MPI messages size (bytes):
  total size                         0.000000E+00
  min size                           0.000000E+00
  max size                           0.000000E+00
  average size                       0.000000E+00
 MPI breakdown and total messages size (bytes):
             size <=      128                   0                        0
       128 < size <=     8192                   0                        0
      8192 < size <=    32768                   0                        0
     32768 < size <=   131072                   0                        0
    131072 < size <=  4194304                   0                        0
   4194304 < size <= 16777216                   0                        0
  16777216 < size                               0                        0
 -------------------------------------------------------------------------------

 MEMORY| Estimated peak process memory [MiB]                               24614

 -------------------------------------------------------------------------------
 -                                                                             -
 -                           R E F E R E N C E S                               -
 -                                                                             -
 -------------------------------------------------------------------------------
 
 CP2K version 7.1, the CP2K developers group (2019).
 CP2K is freely available from https://www.cp2k.org/ .

 Schuett, Ole; Messmer, Peter; Hutter, Juerg; VandeVondele, Joost. 
 Electronic Structure Calculations on Graphics Processing Units, John
 Wiley & Sons, Ltd, 173-190 (2016). 
 GPU-Accelerated Sparse Matrix-Matrix Multiplication for
 Linear Scaling Density Functional Theory.
 https://dx.doi.org/10.1002/9781118670712.ch8

 Borstnik, U; VandeVondele, J; Weber, V; Hutter, J. 
 PARALLEL COMPUTING, 40 (5-6), 47-58 (2014). 
 Sparse matrix multiplication: The distributed block-compressed sparse
 row library.
 https://dx.doi.org/10.1016/j.parco.2014.03.012

 Hutter, J; Iannuzzi, M; Schiffmann, F; VandeVondele, J. 
 WIREs Comput Mol Sci., 4 (1), 15-25 (2014). 
 CP2K: atomistic simulations of condensed matter systems.
 https://dx.doi.org/10.1002/wcms.1159

 Krack, M. 
 THEORETICAL CHEMISTRY ACCOUNTS, 114 (1-3), 145-152 (2005). 
 Pseudopotentials for H to Kr optimized for gradient-corrected
 exchange-correlation functionals.
 https://dx.doi.org/10.1007/s00214-005-0655-y

 VandeVondele, J; Krack, M; Mohamed, F; Parrinello, M; Chassaing, T;
 Hutter, J. COMPUTER PHYSICS COMMUNICATIONS, 167 (2), 103-128 (2005). 
 QUICKSTEP: Fast and accurate density functional calculations using a
 mixed Gaussian and plane waves approach.
 https://dx.doi.org/10.1016/j.cpc.2004.12.014

 Frigo, M; Johnson, SG. 
 PROCEEDINGS OF THE IEEE, 93 (2), 216-231 (2005). 
 The design and implementation of FFTW3.
 https://dx.doi.org/10.1109/JPROC.2004.840301

 Hartwigsen, C; Goedecker, S; Hutter, J. 
 PHYSICAL REVIEW B, 58 (7), 3641-3662 (1998). 
 Relativistic separable dual-space Gaussian pseudopotentials from H to Rn.
 https://dx.doi.org/10.1103/PhysRevB.58.3641

 Lippert, G; Hutter, J; Parrinello, M. 
 MOLECULAR PHYSICS, 92 (3), 477-487 (1997). 
 A hybrid Gaussian and plane wave density functional scheme.
 https://dx.doi.org/10.1080/002689797170220

 Goedecker, S; Teter, M; Hutter, J. 
 PHYSICAL REVIEW B, 54 (3), 1703-1710 (1996). 
 Separable dual-space Gaussian pseudopotentials.
 https://dx.doi.org/10.1103/PhysRevB.54.1703


 -------------------------------------------------------------------------------
 -                                                                             -
 -                                T I M I N G                                  -
 -                                                                             -
 -------------------------------------------------------------------------------
 SUBROUTINE                       CALLS  ASD         SELF TIME        TOTAL TIME
                                MAXIMUM       AVERAGE  MAXIMUM  AVERAGE  MAXIMUM
 CP2K                                 1  1.0    0.630    0.630  769.644  769.644
 qs_forces                            1  2.0    0.000    0.000  758.712  758.712
 qs_energies                          1  3.0    0.000    0.000  754.595  754.595
 scf_env_do_scf                       1  4.0    0.000    0.000  742.491  742.491
 scf_env_do_scf_inner_loop           32  5.0    0.005    0.005  742.491  742.491
 gspace_mixing                       31  6.0    4.329    4.329  286.638  286.638
 broyden_mixing                      31  7.0  255.280  255.280  255.281  255.281
 qs_scf_new_mos                      32  6.0    0.001    0.001  208.552  208.552
 eigensolver                         32  7.0    0.004    0.004  197.663  197.663
 pw_transfer                        428  9.9    0.040    0.040  147.657  147.657
 fft_wrap_pw1pw2                    362 10.9    0.005    0.005  143.204  143.204
 rebuild_ks_matrix                   33  6.9    0.000    0.000  141.186  141.186
 qs_ks_build_kohn_sham_matrix        33  7.9    0.013    0.013  141.186  141.186
 qs_ks_update_qs_env                 32  6.0    0.000    0.000  137.274  137.274
 cp_fm_syevd                         32  8.0  134.189  134.189  134.342  134.342
 fft_wrap_pw1pw2_70                 164 11.2   10.356   10.356  129.259  129.259
 qs_rho_update_rho                   33  6.0    0.000    0.000  112.734  112.734
 calculate_rho_elec                  33  7.0   41.194   41.194  112.734  112.734
 fft3d_s                            363 12.8   71.859   71.859   71.882   71.882
 density_rs2pw                       33  8.0    0.003    0.003   70.328   70.328
 cp_fm_cholesky_restore              96  8.0   63.209   63.209   63.209   63.209
 sum_up_and_integrate                33  8.9    2.161    2.161   46.375   46.375
 integrate_v_rspace                  33  9.9    2.771    2.771   44.214   44.214
 pw_scatter_s                       196 13.1   44.057   44.057   44.057   44.057
 pw_poisson_solve                    33  8.9   35.605   35.605   40.318   40.318
 potential_pw2rs                     33 10.9    0.269    0.269   38.270   38.270
 qs_vxc_create                       33  8.9    0.001    0.001   20.379   20.379
 xc_vxc_pw_create                    33  9.9    4.598    4.598   20.378   20.378
 xc_rho_set_and_dset_create          33 10.9    0.001    0.001   15.780   15.780
 -------------------------------------------------------------------------------

 The number of warnings for this run is : 0
 
 -------------------------------------------------------------------------------
  **** **** ******  **  PROGRAM ENDED AT                 2020-05-21 10:41:04.309
 ***** ** ***  *** **   PROGRAM RAN ON                                   gnode39
 **    ****   ******    PROGRAM RAN BY                               mayank.modi
 ***** **    ** ** **   PROGRAM PROCESS ID                                 15609
  **** **  *******  **  PROGRAM STOPPED IN /home/mayank.modi/ab-initio-thermodyn
                                           amics-of-water/mayank/cp2k_energy_cal
                                           culations
