 DBCSR| CPU Multiplication driver                                           XSMM
 DBCSR| Multrec recursion limit                                              512
 DBCSR| Multiplication stack size                                           1000
 DBCSR| Maximum elements for images                                    UNLIMITED
 DBCSR| Multiplicative factor virtual images                                   1
 DBCSR| Use multiplication densification                                       T
 DBCSR| Multiplication size stacks                                             3


  **** **** ******  **  PROGRAM STARTED AT               2020-05-21 07:38:57.586
 ***** ** ***  *** **   PROGRAM STARTED ON                               gnode39
 **    ****   ******    PROGRAM STARTED BY                           mayank.modi
 ***** **    ** ** **   PROGRAM PROCESS ID                                 38541
  **** **  *******  **  PROGRAM STARTED IN /home/mayank.modi/ab-initio-thermodyn
                                           amics-of-water/mayank/cp2k_energy_cal
                                           culations

 CP2K| version string:                                          CP2K version 7.1
 CP2K| source code revision number:                                  git:e635599
 CP2K| cp2kflags: omp libint fftw3 libxc xsmm spglib                            
 CP2K| is freely available from                            https://www.cp2k.org/
 CP2K| Program compiled at                          Mon Dec 23 19:23:12 CET 2019
 CP2K| Program compiled on                                                pc9404
 CP2K| Program compiled for                                Linux-x86-64-gfortran
 CP2K| Data directory path                                        /opt/cp2k/data
 CP2K| Input file name                                              ./input67.in

 GLOBAL| Force Environment number                                              1
 GLOBAL| Basis set file name                                           BASIS_SET
 GLOBAL| Potential file name                                      GTH_POTENTIALS
 GLOBAL| MM Potential file name                                     MM_POTENTIAL
 GLOBAL| Coordinate file name                                      __STD_INPUT__
 GLOBAL| Method name                                                        CP2K
 GLOBAL| Project name                                                   H2O_bulk
 GLOBAL| Preferred FFT library                                             FFTW3
 GLOBAL| Preferred diagonalization lib.                                       SL
 GLOBAL| Run type                                                   ENERGY_FORCE
 GLOBAL| All-to-all communication in single precision                          F
 GLOBAL| FFTs using library dependent lengths                                  F
 GLOBAL| Global print level                                                  LOW
 GLOBAL| MPI I/O enabled                                                       T
 GLOBAL| Total number of message passing processes                             1
 GLOBAL| Number of threads for this process                                   20
 GLOBAL| This output is from process                                           0
 GLOBAL| CPU model name                Intel(R) Xeon(R) CPU E5-2640 v4 @ 2.40GHz
 GLOBAL| CPUID                                                              1002
 GLOBAL| Compiled for CPUID                                                    0

 MEMORY| system memory details [Kb]
 MEMORY|                        rank 0           min           max       average
 MEMORY| MemTotal            131898148     131898148     131898148     131898148
 MEMORY| MemFree              88672000      88672000      88672000      88672000
 MEMORY| Buffers               3187112       3187112       3187112       3187112
 MEMORY| Cached               34124588      34124588      34124588      34124588
 MEMORY| Slab                  3931152       3931152       3931152       3931152
 MEMORY| SReclaimable          3268596       3268596       3268596       3268596
 MEMORY| MemLikelyFree       129252296     129252296     129252296     129252296


 GENERATE|  Preliminary Number of Bonds generated:                             0
 GENERATE|  Achieved consistency in connectivity generation.

 *******************************************************************************
 *******************************************************************************
 **                                                                           **
 **     #####                         ##              ##                      **
 **    ##   ##            ##          ##              ##                      **
 **   ##     ##                       ##            ######                    **
 **   ##     ##  ##   ##  ##   #####  ##  ##   ####   ##    #####    #####    **
 **   ##     ##  ##   ##  ##  ##      ## ##   ##      ##   ##   ##  ##   ##   **
 **   ##  ## ##  ##   ##  ##  ##      ####     ###    ##   ######   ######    **
 **    ##  ###   ##   ##  ##  ##      ## ##      ##   ##   ##       ##        **
 **     #######   #####   ##   #####  ##  ##  ####    ##    #####   ##        **
 **           ##                                                    ##        **
 **                                                                           **
 **                                                ... make the atoms dance   **
 **                                                                           **
 **            Copyright (C) by CP2K developers group (2000 - 2019)           **
 **                                                                           **
 *******************************************************************************


 TOTAL NUMBERS AND MAXIMUM NUMBERS

  Total number of            - Atomic kinds:                                   2
                             - Atoms:                                        192
                             - Shell sets:                                   384
                             - Shells:                                       704
                             - Primitive Cartesian functions:                960
                             - Cartesian basis functions:                   1536
                             - Spherical basis functions:                   1472

  Maximum angular momentum of- Orbital basis functions:                        2
                             - Local part of the GTH pseudopotential:          2
                             - Non-local part of the GTH pseudopotential:      0


 SCF PARAMETERS         Density guess:                                    ATOMIC
                        --------------------------------------------------------
                        max_scf:                                             300
                        max_scf_history:                                       0
                        max_diis:                                              4
                        --------------------------------------------------------
                        eps_scf:                                        1.00E-07
                        eps_scf_history:                                0.00E+00
                        eps_diis:                                       1.00E-01
                        eps_eigval:                                     1.00E-05
                        --------------------------------------------------------
                        level_shift [a.u.]:                                 0.00
                        --------------------------------------------------------
                        Mixing method:                            BROYDEN_MIXING
                                                charge density mixing in g-space
                        --------------------------------------------------------
                        No outer SCF

 Number of electrons:                                                        512
 Number of occupied orbitals:                                                256
 Number of molecular orbitals:                                               256

 Number of orbital functions:                                               1472
 Number of independent orbital functions:                                   1472

 Extrapolation method: initial_guess


 SCF WAVEFUNCTION OPTIMIZATION

  Step     Update method      Time    Convergence         Total energy    Change
  ------------------------------------------------------------------------------
     1 NoMix/Diag. 0.40E+00   10.6     0.99179882     -1087.5209179258 -1.09E+03
     2 Broy./Diag. 0.40E+00   16.5     0.29175496     -1013.5039878019  7.40E+01
     3 Broy./Diag. 0.40E+00   17.7     0.02673595     -1094.7642718395 -8.13E+01
     4 Broy./Diag. 0.40E+00   18.0     0.02638847     -1094.4597249114  3.05E-01
     5 Broy./Diag. 0.40E+00   18.7     0.00259855     -1095.3639912960 -9.04E-01
     6 Broy./Diag. 0.40E+00   19.8     0.00460262     -1095.3876629718 -2.37E-02
     7 Broy./Diag. 0.40E+00   21.6     0.00278417     -1095.5431813569 -1.56E-01
     8 Broy./Diag. 0.40E+00   22.2     0.00385849     -1095.6646219786 -1.21E-01
     9 Broy./Diag. 0.40E+00   23.0     0.00372456     -1095.7412627208 -7.66E-02
    10 Broy./Diag. 0.40E+00   24.4     0.00170532     -1095.7679400215 -2.67E-02
    11 Broy./Diag. 0.40E+00   24.7     0.00117555     -1095.7413503183  2.66E-02
    12 Broy./Diag. 0.40E+00   24.3     0.00059246     -1095.7485195639 -7.17E-03
    13 Broy./Diag. 0.40E+00   25.6     0.00050102     -1095.7675306913 -1.90E-02
    14 Broy./Diag. 0.40E+00   25.0     0.00020331     -1095.7693632778 -1.83E-03
    15 Broy./Diag. 0.40E+00   25.0     0.00023510     -1095.7625993140  6.76E-03
    16 Broy./Diag. 0.40E+00   25.2     0.00014434     -1095.7628914207 -2.92E-04
    17 Broy./Diag. 0.40E+00   24.8     0.00006460     -1095.7638637456 -9.72E-04
    18 Broy./Diag. 0.40E+00   24.9     0.00004089     -1095.7639073430 -4.36E-05
    19 Broy./Diag. 0.40E+00   25.5     0.00001647     -1095.7638268695  8.05E-05
    20 Broy./Diag. 0.40E+00   24.1     0.00001259     -1095.7633063674  5.21E-04
    21 Broy./Diag. 0.40E+00   24.1     0.00000922     -1095.7635326404 -2.26E-04
    22 Broy./Diag. 0.40E+00   24.4     0.00000473     -1095.7636490225 -1.16E-04
    23 Broy./Diag. 0.40E+00   25.6     0.00000551     -1095.7636095449  3.95E-05
    24 Broy./Diag. 0.40E+00   25.0     0.00000169     -1095.7635305533  7.90E-05
    25 Broy./Diag. 0.40E+00   24.9     0.00000248     -1095.7634934493  3.71E-05
    26 Broy./Diag. 0.40E+00   24.8     0.00000110     -1095.7635120543 -1.86E-05
    27 Broy./Diag. 0.40E+00   25.7     0.00000081     -1095.7635287939 -1.67E-05
    28 Broy./Diag. 0.40E+00   26.0     0.00000069     -1095.7635284134  3.81E-07
    29 Broy./Diag. 0.40E+00   25.9     0.00000030     -1095.7635239836  4.43E-06
    30 Broy./Diag. 0.40E+00   24.5     0.00000019     -1095.7635243257 -3.42E-07
    31 Broy./Diag. 0.40E+00   25.2     0.00000021     -1095.7635268645 -2.54E-06
    32 Broy./Diag. 0.40E+00   25.0     0.00000008     -1095.7635284287 -1.56E-06

  *** SCF run converged in    32 steps ***


  Electronic density on regular grids:       -512.0007831403       -0.0007831403
  Core density on regular grids:              511.9996822127       -0.0003177873
  Total charge density on r-space grids:       -0.0011009277
  Total charge density g-space grids:          -0.0011009277

  Overlap energy of the core charge distribution:               0.00000491116059
  Self energy of the core charge distribution:              -2838.21791979120962
  Core Hamiltonian energy:                                    821.65163675994563
  Hartree energy:                                            1185.61844244350641
  Exchange-correlation energy:                               -264.81569275209307

  Total energy:                                             -1095.76352842869028

 ENERGY| Total FORCE_EVAL ( QS ) energy (a.u.):            -1095.763530031050095


 ATOMIC FORCES in [a.u.]

 # Atom   Kind   Element          X              Y              Z
      1      1      O           0.01809190     0.01207884     0.09865997
      2      2      H           0.02660155    -0.02341985    -0.04325141
      3      2      H          -0.00919165     0.03415300    -0.00418483
      4      1      O           0.05825750    -0.07857580     0.11106913
      5      2      H          -0.04642346     0.01740812    -0.03818628
      6      2      H           0.00223032    -0.02934503    -0.01214992
      7      1      O          -0.02374052     0.05523645    -0.03696275
      8      2      H          -0.01320639    -0.01783107    -0.00096846
      9      2      H           0.01071186     0.03244117    -0.00911928
     10      1      O          -0.06637885     0.06782189    -0.04154249
     11      2      H           0.02041062    -0.00263699    -0.04633267
     12      2      H           0.03835691    -0.01092759    -0.03694125
     13      1      O           0.00801470     0.07799755     0.08867408
     14      2      H          -0.00764700    -0.03437734    -0.03736318
     15      2      H           0.01347023    -0.04750530     0.00094669
     16      1      O           0.03598523    -0.04901037    -0.00334622
     17      2      H          -0.00956681    -0.03811000     0.00976067
     18      2      H           0.00813243     0.02285930     0.09238457
     19      1      O          -0.01382656     0.01242995     0.07034527
     20      2      H          -0.00994161     0.00229949     0.00732846
     21      2      H           0.00163638     0.02513074     0.00039524
     22      1      O          -0.03593514    -0.04832019     0.03424095
     23      2      H           0.03964844     0.01414953    -0.01380301
     24      2      H          -0.01478158    -0.01585717     0.09014525
     25      1      O          -0.01104257    -0.08002988     0.06438222
     26      2      H           0.02601398    -0.03395972     0.04502113
     27      2      H           0.02517749    -0.01936342     0.02122681
     28      1      O           0.02413421    -0.02978220     0.04300544
     29      2      H           0.01580484     0.01790944     0.04346311
     30      2      H           0.00273873     0.03300609    -0.04212158
     31      1      O          -0.01060317     0.03538095     0.01699775
     32      2      H          -0.01339823    -0.02130025    -0.03543022
     33      2      H           0.03815421     0.00292999    -0.05769225
     34      1      O           0.06181389     0.02079690    -0.02582949
     35      2      H          -0.00070911    -0.02192374    -0.01333826
     36      2      H          -0.03454156    -0.00960084    -0.01676021
     37      1      O          -0.01691094     0.00424744     0.07758173
     38      2      H           0.01400005     0.02347954    -0.00147663
     39      2      H          -0.01695235    -0.00546601     0.00338235
     40      1      O          -0.00744892     0.02878629     0.01488766
     41      2      H          -0.01647364    -0.05985425    -0.00229592
     42      2      H           0.03494366     0.03883447     0.00598855
     43      1      O          -0.03002251     0.07653572     0.00009756
     44      2      H           0.00130152    -0.02564972     0.06560251
     45      2      H           0.01178519    -0.01319556    -0.01449293
     46      1      O          -0.05817947    -0.06619009     0.12930076
     47      2      H           0.01919162     0.00543225    -0.02891528
     48      2      H           0.02603916     0.01096067    -0.04084672
     49      1      O           0.00977156    -0.04200660    -0.09950128
     50      2      H          -0.03675581    -0.02943900    -0.03410510
     51      2      H           0.00013265    -0.00780913    -0.02898873
     52      1      O           0.01783989    -0.04882338     0.13507727
     53      2      H          -0.03375795    -0.05270321     0.00766630
     54      2      H           0.02182018     0.00521846     0.00128879
     55      1      O           0.05262107    -0.04974800    -0.08337376
     56      2      H          -0.00977604     0.01185847    -0.03916181
     57      2      H          -0.05517670     0.01642244    -0.02231807
     58      1      O           0.08586377    -0.05900256     0.14178711
     59      2      H          -0.03360175     0.03910796    -0.01250965
     60      2      H          -0.02794278    -0.04974926    -0.08642017
     61      1      O          -0.01353816     0.07057088     0.05257905
     62      2      H           0.00356484    -0.03264418     0.01453901
     63      2      H           0.01948253    -0.00137282     0.03809480
     64      1      O           0.03976323     0.02251387     0.15267038
     65      2      H          -0.00054744     0.00874786     0.01306873
     66      2      H          -0.04732513    -0.04246893    -0.06473326
     67      1      O          -0.02806220     0.06686042    -0.15552154
     68      2      H          -0.02428235     0.02818037     0.00958942
     69      2      H           0.00961278     0.02153914     0.02814909
     70      1      O           0.01977694     0.03579427     0.14953980
     71      2      H          -0.03140128    -0.01624648    -0.06137954
     72      2      H           0.03001262     0.05199179    -0.04508101
     73      1      O           0.00332787    -0.01691178     0.03999417
     74      2      H           0.02363229    -0.01548997     0.04110191
     75      2      H          -0.00343671    -0.03272735    -0.09933189
     76      1      O           0.04698164     0.15704492    -0.04460520
     77      2      H          -0.01461987    -0.07779983    -0.02451385
     78      2      H          -0.02575949     0.03721196    -0.00936487
     79      1      O          -0.00302490    -0.06803993     0.05313302
     80      2      H           0.01146277    -0.01218555     0.02200083
     81      2      H          -0.00817488     0.04251301    -0.08314683
     82      1      O          -0.05048364     0.10442503     0.03725701
     83      2      H           0.02434986    -0.01913744     0.02071392
     84      2      H           0.01315234     0.01718382     0.00452027
     85      1      O          -0.06026358     0.04110975    -0.02914121
     86      2      H           0.02292251     0.02896274     0.01697121
     87      2      H          -0.00161837     0.01731664     0.00641185
     88      1      O          -0.02065730    -0.05375986    -0.02346633
     89      2      H           0.00481757    -0.00221063    -0.02383645
     90      2      H           0.00466252     0.03311869    -0.04686623
     91      1      O           0.00148812     0.05801201    -0.05939712
     92      2      H           0.00753531     0.04062919     0.04596131
     93      2      H          -0.02387455     0.00750000     0.03446529
     94      1      O          -0.03459213     0.04082782    -0.02952005
     95      2      H           0.05613270    -0.03448788    -0.01654614
     96      2      H          -0.01104309     0.02114692     0.01607523
     97      1      O          -0.02005741    -0.00405508     0.12381623
     98      2      H           0.00361179     0.01981722    -0.04196267
     99      2      H           0.00576298     0.00327681    -0.01497052
    100      1      O           0.02493616    -0.00388272     0.04963690
    101      2      H           0.00619240    -0.02389196     0.03941078
    102      2      H          -0.03166570     0.02840098     0.01296327
    103      1      O          -0.08786624    -0.04752270     0.08755707
    104      2      H           0.06390284    -0.03267951    -0.05512505
    105      2      H          -0.01630618     0.04477536    -0.03531604
    106      1      O          -0.05917660    -0.06097077     0.03588430
    107      2      H           0.01514581    -0.01735216    -0.05735411
    108      2      H           0.02034657    -0.05036335     0.04152566
    109      1      O          -0.03940008     0.00062120    -0.10049948
    110      2      H           0.01907157     0.01775379     0.01076166
    111      2      H           0.01284746    -0.01465683     0.01032368
    112      1      O          -0.11568222    -0.01076082     0.10858845
    113      2      H          -0.00216454     0.00419018     0.01582998
    114      2      H           0.09027096     0.01869498     0.00249247
    115      1      O           0.02611087     0.10464165    -0.05716759
    116      2      H           0.00628624    -0.03797662    -0.00368941
    117      2      H           0.00462225     0.00780382    -0.01181401
    118      1      O          -0.02474513    -0.02970039     0.06302274
    119      2      H           0.00742060    -0.02617183     0.04926485
    120      2      H          -0.00472125     0.01006395    -0.05063538
    121      1      O           0.03968885    -0.05705353    -0.09919002
    122      2      H           0.01433664    -0.04061689     0.04697514
    123      2      H          -0.00374323     0.01960510     0.02841054
    124      1      O           0.02040374     0.08498667    -0.01962900
    125      2      H          -0.02535139     0.02866083     0.03589763
    126      2      H           0.02423764    -0.02320951     0.00188624
    127      1      O           0.03386620     0.01481978     0.07206916
    128      2      H          -0.00804189     0.05665624     0.02124127
    129      2      H           0.00021516    -0.00965110     0.03497641
    130      1      O          -0.05314493     0.04681800    -0.05223730
    131      2      H          -0.01219617    -0.05007321    -0.00362664
    132      2      H           0.01094621     0.02085390     0.00055575
    133      1      O          -0.02888278    -0.03679210     0.02614796
    134      2      H           0.03145558    -0.00721860     0.02959980
    135      2      H           0.00431964    -0.02273602    -0.00079340
    136      1      O          -0.06458533     0.15244511     0.07592783
    137      2      H           0.02104271     0.01727887    -0.00448160
    138      2      H           0.05640104    -0.10742143    -0.07874184
    139      1      O           0.07603588    -0.01489095    -0.10350296
    140      2      H          -0.03668018     0.00407884     0.00443676
    141      2      H          -0.00607585    -0.00225047     0.00929013
    142      1      O          -0.02227738     0.05902095     0.02350757
    143      2      H           0.04727445     0.01333476     0.04227262
    144      2      H          -0.00501997    -0.00692217    -0.04353242
    145      1      O          -0.04013583    -0.06067519    -0.02756059
    146      2      H           0.03426613    -0.04445503    -0.06756567
    147      2      H           0.02536714    -0.00747076     0.06696381
    148      1      O           0.03226884    -0.03861990    -0.07741576
    149      2      H           0.00347542     0.00715405    -0.03394779
    150      2      H           0.01183447     0.04293265    -0.04205368
    151      1      O          -0.00546349     0.04042343     0.16052719
    152      2      H           0.08568187    -0.00838012    -0.05147974
    153      2      H          -0.05478257     0.07113256    -0.01537580
    154      1      O           0.03620699     0.10507255     0.09286982
    155      2      H           0.01258545     0.01803369     0.01760711
    156      2      H          -0.00433265    -0.04569095    -0.03898029
    157      1      O          -0.03947971     0.06200169    -0.00656355
    158      2      H           0.01908743     0.01458550    -0.03210310
    159      2      H          -0.00381677     0.01298154     0.00942254
    160      1      O          -0.00491103     0.05273617     0.07967311
    161      2      H           0.01393275    -0.02307810    -0.01158215
    162      2      H           0.01239256     0.00712079    -0.02116692
    163      1      O           0.02801782     0.06783996    -0.03155156
    164      2      H          -0.04090139     0.00189168    -0.02274650
    165      2      H           0.00378429    -0.00201876    -0.00160739
    166      1      O          -0.05007934     0.01629447    -0.00568393
    167      2      H          -0.01679150     0.02797170    -0.04463409
    168      2      H           0.01694481    -0.01305121     0.04557933
    169      1      O           0.05135615    -0.03176680    -0.04511977
    170      2      H          -0.03397368     0.03057139    -0.03915871
    171      2      H          -0.00899451     0.02540966     0.03389524
    172      1      O          -0.06419451    -0.04215593     0.04657032
    173      2      H           0.03482062    -0.01377297     0.03832652
    174      2      H          -0.00685140    -0.02067464     0.00465658
    175      1      O          -0.01330118     0.06442810     0.08882638
    176      2      H          -0.01902007     0.01429255    -0.03166461
    177      2      H           0.06579317     0.03582366    -0.02145439
    178      1      O           0.03070508    -0.01532051    -0.09431566
    179      2      H          -0.00766747    -0.02251405    -0.02492909
    180      2      H          -0.01876927    -0.02655912     0.01602794
    181      1      O          -0.00128387    -0.02660708    -0.09751267
    182      2      H          -0.00552007    -0.02210871    -0.00795727
    183      2      H           0.01047133    -0.04923175    -0.01893935
    184      1      O          -0.02110502    -0.01863285     0.05320706
    185      2      H           0.00582600     0.03161257     0.00884547
    186      2      H           0.02011498    -0.04558056     0.00721668
    187      1      O           0.05520439     0.02487960    -0.00493682
    188      2      H           0.01122412     0.01911830    -0.03255013
    189      2      H          -0.06702103    -0.01626952    -0.02442843
    190      1      O           0.00600825    -0.03674540    -0.10192970
    191      2      H           0.00358215     0.02104372    -0.04822636
    192      2      H           0.02438106    -0.02279318     0.08462384
 SUM OF ATOMIC FORCES           0.19264078     0.35207520     0.39106317     0.56035508

 -------------------------------------------------------------------------------
 -                                                                             -
 -                                DBCSR STATISTICS                             -
 -                                                                             -
 -------------------------------------------------------------------------------
 COUNTER                                    TOTAL       BLAS       SMM       ACC
 flops     5 x     5 x   256            841843200       0.0%    100.0%      0.0%
 flops    13 x     5 x   256           1064194560       0.0%    100.0%      0.0%
 flops     5 x    13 x   256           1069685760       0.0%    100.0%      0.0%
 flops    13 x    13 x   256           1473398784       0.0%    100.0%      0.0%
 flops inhomo. stacks                           0       0.0%      0.0%      0.0%
 flops total                         4.449122E+09       0.0%    100.0%      0.0%
 flops max/rank                      4.449122E+09       0.0%    100.0%      0.0%
 matmuls inhomo. stacks                         0       0.0%      0.0%      0.0%
 matmuls total                             146916       0.0%    100.0%      0.0%
 number of processed stacks                  2574       0.0%    100.0%      0.0%
 average stack size                                     0.0      57.1       0.0
 marketing flops                    36.609982E+09
 -------------------------------------------------------------------------------
 # multiplications                             33
 max memory usage/rank              25.807061E+09
 # max total images/rank                        1
 # max 3D layers                                1
 # MPI messages exchanged                       0
 MPI messages size (bytes):
  total size                         0.000000E+00
  min size                           0.000000E+00
  max size                           0.000000E+00
  average size                       0.000000E+00
 MPI breakdown and total messages size (bytes):
             size <=      128                   0                        0
       128 < size <=     8192                   0                        0
      8192 < size <=    32768                   0                        0
     32768 < size <=   131072                   0                        0
    131072 < size <=  4194304                   0                        0
   4194304 < size <= 16777216                   0                        0
  16777216 < size                               0                        0
 -------------------------------------------------------------------------------

 MEMORY| Estimated peak process memory [MiB]                               24614

 -------------------------------------------------------------------------------
 -                                                                             -
 -                           R E F E R E N C E S                               -
 -                                                                             -
 -------------------------------------------------------------------------------
 
 CP2K version 7.1, the CP2K developers group (2019).
 CP2K is freely available from https://www.cp2k.org/ .

 Schuett, Ole; Messmer, Peter; Hutter, Juerg; VandeVondele, Joost. 
 Electronic Structure Calculations on Graphics Processing Units, John
 Wiley & Sons, Ltd, 173-190 (2016). 
 GPU-Accelerated Sparse Matrix-Matrix Multiplication for
 Linear Scaling Density Functional Theory.
 https://dx.doi.org/10.1002/9781118670712.ch8

 Borstnik, U; VandeVondele, J; Weber, V; Hutter, J. 
 PARALLEL COMPUTING, 40 (5-6), 47-58 (2014). 
 Sparse matrix multiplication: The distributed block-compressed sparse
 row library.
 https://dx.doi.org/10.1016/j.parco.2014.03.012

 Hutter, J; Iannuzzi, M; Schiffmann, F; VandeVondele, J. 
 WIREs Comput Mol Sci., 4 (1), 15-25 (2014). 
 CP2K: atomistic simulations of condensed matter systems.
 https://dx.doi.org/10.1002/wcms.1159

 Krack, M. 
 THEORETICAL CHEMISTRY ACCOUNTS, 114 (1-3), 145-152 (2005). 
 Pseudopotentials for H to Kr optimized for gradient-corrected
 exchange-correlation functionals.
 https://dx.doi.org/10.1007/s00214-005-0655-y

 VandeVondele, J; Krack, M; Mohamed, F; Parrinello, M; Chassaing, T;
 Hutter, J. COMPUTER PHYSICS COMMUNICATIONS, 167 (2), 103-128 (2005). 
 QUICKSTEP: Fast and accurate density functional calculations using a
 mixed Gaussian and plane waves approach.
 https://dx.doi.org/10.1016/j.cpc.2004.12.014

 Frigo, M; Johnson, SG. 
 PROCEEDINGS OF THE IEEE, 93 (2), 216-231 (2005). 
 The design and implementation of FFTW3.
 https://dx.doi.org/10.1109/JPROC.2004.840301

 Hartwigsen, C; Goedecker, S; Hutter, J. 
 PHYSICAL REVIEW B, 58 (7), 3641-3662 (1998). 
 Relativistic separable dual-space Gaussian pseudopotentials from H to Rn.
 https://dx.doi.org/10.1103/PhysRevB.58.3641

 Lippert, G; Hutter, J; Parrinello, M. 
 MOLECULAR PHYSICS, 92 (3), 477-487 (1997). 
 A hybrid Gaussian and plane wave density functional scheme.
 https://dx.doi.org/10.1080/002689797170220

 Goedecker, S; Teter, M; Hutter, J. 
 PHYSICAL REVIEW B, 54 (3), 1703-1710 (1996). 
 Separable dual-space Gaussian pseudopotentials.
 https://dx.doi.org/10.1103/PhysRevB.54.1703


 -------------------------------------------------------------------------------
 -                                                                             -
 -                                T I M I N G                                  -
 -                                                                             -
 -------------------------------------------------------------------------------
 SUBROUTINE                       CALLS  ASD         SELF TIME        TOTAL TIME
                                MAXIMUM       AVERAGE  MAXIMUM  AVERAGE  MAXIMUM
 CP2K                                 1  1.0    0.614    0.614  773.222  773.222
 qs_forces                            1  2.0    0.000    0.000  761.583  761.583
 qs_energies                          1  3.0    0.000    0.000  757.609  757.609
 scf_env_do_scf                       1  4.0    0.000    0.000  746.146  746.146
 scf_env_do_scf_inner_loop           32  5.0    0.005    0.005  746.145  746.145
 gspace_mixing                       31  6.0    4.436    4.436  288.882  288.882
 broyden_mixing                      31  7.0  257.446  257.446  257.446  257.446
 qs_scf_new_mos                      32  6.0    0.001    0.001  209.730  209.730
 eigensolver                         32  7.0    0.003    0.003  198.804  198.804
 pw_transfer                        428  9.9    0.042    0.042  147.002  147.002
 fft_wrap_pw1pw2                    362 10.9    0.006    0.006  142.925  142.925
 rebuild_ks_matrix                   33  6.9    0.000    0.000  141.034  141.034
 qs_ks_build_kohn_sham_matrix        33  7.9    0.017    0.017  141.034  141.034
 qs_ks_update_qs_env                 32  6.0    0.000    0.000  137.244  137.244
 cp_fm_syevd                         32  8.0  135.626  135.626  135.771  135.771
 fft_wrap_pw1pw2_70                 164 11.2   10.459   10.459  129.214  129.214
 qs_rho_update_rho                   33  6.0    0.000    0.000  113.062  113.062
 calculate_rho_elec                  33  7.0   41.602   41.602  113.062  113.062
 fft3d_s                            363 12.8   71.713   71.713   71.727   71.727
 density_rs2pw                       33  8.0    0.003    0.003   70.285   70.285
 cp_fm_cholesky_restore              96  8.0   62.918   62.918   62.918   62.918
 sum_up_and_integrate                33  8.9    2.174    2.174   45.388   45.388
 pw_scatter_s                       196 13.1   44.299   44.299   44.299   44.299
 integrate_v_rspace                  33  9.9    2.750    2.750   43.214   43.214
 pw_poisson_solve                    33  8.9   36.050   36.050   40.379   40.379
 potential_pw2rs                     33 10.9    0.259    0.259   36.585   36.585
 qs_vxc_create                       33  8.9    0.001    0.001   20.532   20.532
 xc_vxc_pw_create                    33  9.9    4.615    4.615   20.531   20.531
 xc_rho_set_and_dset_create          33 10.9    0.001    0.001   15.915   15.915
 -------------------------------------------------------------------------------

 The number of warnings for this run is : 0
 
 -------------------------------------------------------------------------------
  **** **** ******  **  PROGRAM ENDED AT                 2020-05-21 07:51:50.975
 ***** ** ***  *** **   PROGRAM RAN ON                                   gnode39
 **    ****   ******    PROGRAM RAN BY                               mayank.modi
 ***** **    ** ** **   PROGRAM PROCESS ID                                 38541
  **** **  *******  **  PROGRAM STOPPED IN /home/mayank.modi/ab-initio-thermodyn
                                           amics-of-water/mayank/cp2k_energy_cal
                                           culations
