 DBCSR| CPU Multiplication driver                                           XSMM
 DBCSR| Multrec recursion limit                                              512
 DBCSR| Multiplication stack size                                           1000
 DBCSR| Maximum elements for images                                    UNLIMITED
 DBCSR| Multiplicative factor virtual images                                   1
 DBCSR| Use multiplication densification                                       T
 DBCSR| Multiplication size stacks                                             3


  **** **** ******  **  PROGRAM STARTED AT               2020-05-20 19:31:17.627
 ***** ** ***  *** **   PROGRAM STARTED ON                               gnode39
 **    ****   ******    PROGRAM STARTED BY                           mayank.modi
 ***** **    ** ** **   PROGRAM PROCESS ID                                 17080
  **** **  *******  **  PROGRAM STARTED IN /home/mayank.modi/ab-initio-thermodyn
                                           amics-of-water/mayank/cp2k_energy_cal
                                           culations

 CP2K| version string:                                          CP2K version 7.1
 CP2K| source code revision number:                                  git:e635599
 CP2K| cp2kflags: omp libint fftw3 libxc xsmm spglib                            
 CP2K| is freely available from                            https://www.cp2k.org/
 CP2K| Program compiled at                          Mon Dec 23 19:23:12 CET 2019
 CP2K| Program compiled on                                                pc9404
 CP2K| Program compiled for                                Linux-x86-64-gfortran
 CP2K| Data directory path                                        /opt/cp2k/data
 CP2K| Input file name                                              ./input12.in

 GLOBAL| Force Environment number                                              1
 GLOBAL| Basis set file name                                           BASIS_SET
 GLOBAL| Potential file name                                      GTH_POTENTIALS
 GLOBAL| MM Potential file name                                     MM_POTENTIAL
 GLOBAL| Coordinate file name                                      __STD_INPUT__
 GLOBAL| Method name                                                        CP2K
 GLOBAL| Project name                                                   H2O_bulk
 GLOBAL| Preferred FFT library                                             FFTW3
 GLOBAL| Preferred diagonalization lib.                                       SL
 GLOBAL| Run type                                                   ENERGY_FORCE
 GLOBAL| All-to-all communication in single precision                          F
 GLOBAL| FFTs using library dependent lengths                                  F
 GLOBAL| Global print level                                                  LOW
 GLOBAL| MPI I/O enabled                                                       T
 GLOBAL| Total number of message passing processes                             1
 GLOBAL| Number of threads for this process                                   20
 GLOBAL| This output is from process                                           0
 GLOBAL| CPU model name                Intel(R) Xeon(R) CPU E5-2640 v4 @ 2.40GHz
 GLOBAL| CPUID                                                              1002
 GLOBAL| Compiled for CPUID                                                    0

 MEMORY| system memory details [Kb]
 MEMORY|                        rank 0           min           max       average
 MEMORY| MemTotal            131898148     131898148     131898148     131898148
 MEMORY| MemFree              92819840      92819840      92819840      92819840
 MEMORY| Buffers               3186888       3186888       3186888       3186888
 MEMORY| Cached               30343516      30343516      30343516      30343516
 MEMORY| Slab                  3968652       3968652       3968652       3968652
 MEMORY| SReclaimable          3266276       3266276       3266276       3266276
 MEMORY| MemLikelyFree       129616520     129616520     129616520     129616520


 GENERATE|  Preliminary Number of Bonds generated:                             0
 GENERATE|  Achieved consistency in connectivity generation.

 *******************************************************************************
 *******************************************************************************
 **                                                                           **
 **     #####                         ##              ##                      **
 **    ##   ##            ##          ##              ##                      **
 **   ##     ##                       ##            ######                    **
 **   ##     ##  ##   ##  ##   #####  ##  ##   ####   ##    #####    #####    **
 **   ##     ##  ##   ##  ##  ##      ## ##   ##      ##   ##   ##  ##   ##   **
 **   ##  ## ##  ##   ##  ##  ##      ####     ###    ##   ######   ######    **
 **    ##  ###   ##   ##  ##  ##      ## ##      ##   ##   ##       ##        **
 **     #######   #####   ##   #####  ##  ##  ####    ##    #####   ##        **
 **           ##                                                    ##        **
 **                                                                           **
 **                                                ... make the atoms dance   **
 **                                                                           **
 **            Copyright (C) by CP2K developers group (2000 - 2019)           **
 **                                                                           **
 *******************************************************************************


 TOTAL NUMBERS AND MAXIMUM NUMBERS

  Total number of            - Atomic kinds:                                   2
                             - Atoms:                                        192
                             - Shell sets:                                   384
                             - Shells:                                       704
                             - Primitive Cartesian functions:                960
                             - Cartesian basis functions:                   1536
                             - Spherical basis functions:                   1472

  Maximum angular momentum of- Orbital basis functions:                        2
                             - Local part of the GTH pseudopotential:          2
                             - Non-local part of the GTH pseudopotential:      0


 SCF PARAMETERS         Density guess:                                    ATOMIC
                        --------------------------------------------------------
                        max_scf:                                             300
                        max_scf_history:                                       0
                        max_diis:                                              4
                        --------------------------------------------------------
                        eps_scf:                                        1.00E-07
                        eps_scf_history:                                0.00E+00
                        eps_diis:                                       1.00E-01
                        eps_eigval:                                     1.00E-05
                        --------------------------------------------------------
                        level_shift [a.u.]:                                 0.00
                        --------------------------------------------------------
                        Mixing method:                            BROYDEN_MIXING
                                                charge density mixing in g-space
                        --------------------------------------------------------
                        No outer SCF

 Number of electrons:                                                        512
 Number of occupied orbitals:                                                256
 Number of molecular orbitals:                                               256

 Number of orbital functions:                                               1472
 Number of independent orbital functions:                                   1472

 Extrapolation method: initial_guess


 SCF WAVEFUNCTION OPTIMIZATION

  Step     Update method      Time    Convergence         Total energy    Change
  ------------------------------------------------------------------------------
     1 NoMix/Diag. 0.40E+00   10.9     1.00147115     -1087.2623026089 -1.09E+03
     2 Broy./Diag. 0.40E+00   15.9     0.30072662     -1012.5264158714  7.47E+01
     3 Broy./Diag. 0.40E+00   16.7     0.02843099     -1094.6461718518 -8.21E+01
     4 Broy./Diag. 0.40E+00   17.7     0.03076409     -1094.3723637232  2.74E-01
     5 Broy./Diag. 0.40E+00   18.0     0.00263295     -1095.2671951278 -8.95E-01
     6 Broy./Diag. 0.40E+00   19.3     0.00445507     -1095.2964623233 -2.93E-02
     7 Broy./Diag. 0.40E+00   20.8     0.00241501     -1095.4280672833 -1.32E-01
     8 Broy./Diag. 0.40E+00   21.5     0.00387384     -1095.5399496703 -1.12E-01
     9 Broy./Diag. 0.40E+00   22.4     0.00392266     -1095.6188397546 -7.89E-02
    10 Broy./Diag. 0.40E+00   24.9     0.00245835     -1095.6446626596 -2.58E-02
    11 Broy./Diag. 0.40E+00   24.2     0.00172558     -1095.6129559248  3.17E-02
    12 Broy./Diag. 0.40E+00   23.6     0.00071144     -1095.6196442705 -6.69E-03
    13 Broy./Diag. 0.40E+00   24.0     0.00074760     -1095.6415213859 -2.19E-02
    14 Broy./Diag. 0.40E+00   24.3     0.00027489     -1095.6463143730 -4.79E-03
    15 Broy./Diag. 0.40E+00   25.6     0.00029666     -1095.6379990832  8.32E-03
    16 Broy./Diag. 0.40E+00   25.3     0.00015802     -1095.6385003005 -5.01E-04
    17 Broy./Diag. 0.40E+00   24.1     0.00007504     -1095.6395246567 -1.02E-03
    18 Broy./Diag. 0.40E+00   25.0     0.00004716     -1095.6394179351  1.07E-04
    19 Broy./Diag. 0.40E+00   25.9     0.00001950     -1095.6390805800  3.37E-04
    20 Broy./Diag. 0.40E+00   26.2     0.00001710     -1095.6385179579  5.63E-04
    21 Broy./Diag. 0.40E+00   24.7     0.00000985     -1095.6388006752 -2.83E-04
    22 Broy./Diag. 0.40E+00   25.1     0.00000611     -1095.6389318587 -1.31E-04
    23 Broy./Diag. 0.40E+00   24.9     0.00000799     -1095.6387907116  1.41E-04
    24 Broy./Diag. 0.40E+00   25.1     0.00000220     -1095.6387172228  7.35E-05
    25 Broy./Diag. 0.40E+00   25.1     0.00000238     -1095.6387254658 -8.24E-06
    26 Broy./Diag. 0.40E+00   24.4     0.00000128     -1095.6387463884 -2.09E-05
    27 Broy./Diag. 0.40E+00   25.4     0.00000093     -1095.6387506119 -4.22E-06
    28 Broy./Diag. 0.40E+00   25.4     0.00000086     -1095.6387508495 -2.38E-07
    29 Broy./Diag. 0.40E+00   24.7     0.00000026     -1095.6387530666 -2.22E-06
    30 Broy./Diag. 0.40E+00   24.7     0.00000028     -1095.6387528840  1.83E-07
    31 Broy./Diag. 0.40E+00   24.6     0.00000021     -1095.6387533770 -4.93E-07
    32 Broy./Diag. 0.40E+00   25.2     0.00000009     -1095.6387539038 -5.27E-07

  *** SCF run converged in    32 steps ***


  Electronic density on regular grids:       -512.0002875096       -0.0002875096
  Core density on regular grids:              511.9997927106       -0.0002072894
  Total charge density on r-space grids:       -0.0004947990
  Total charge density g-space grids:          -0.0004947990

  Overlap energy of the core charge distribution:               0.00000572078609
  Self energy of the core charge distribution:              -2838.21791979120962
  Core Hamiltonian energy:                                    822.08027239641444
  Hartree energy:                                            1185.39564718822567
  Exchange-correlation energy:                               -264.89675941800272

  Total energy:                                             -1095.63875390378598

 ENERGY| Total FORCE_EVAL ( QS ) energy (a.u.):            -1095.638753752149569


 ATOMIC FORCES in [a.u.]

 # Atom   Kind   Element          X              Y              Z
      1      1      O           0.02893201     0.01570836     0.02896117
      2      2      H          -0.02663376     0.00640203    -0.01664115
      3      2      H           0.00725475    -0.00111064     0.05505991
      4      1      O           0.02854864     0.11134977    -0.00171471
      5      2      H          -0.00510433     0.02438649    -0.00474027
      6      2      H          -0.03622616    -0.02677683    -0.02874808
      7      1      O           0.01922204     0.10069055     0.16474805
      8      2      H           0.00964940     0.00852655     0.02559965
      9      2      H          -0.00786542    -0.05674204    -0.05499652
     10      1      O          -0.06897421     0.03538214    -0.03800931
     11      2      H           0.01861980     0.00873327     0.03172130
     12      2      H          -0.00021820    -0.01889000    -0.01293915
     13      1      O           0.02065373    -0.01354909    -0.00010539
     14      2      H           0.03740151     0.02597648     0.05128436
     15      2      H          -0.04379101    -0.05566586     0.05081712
     16      1      O          -0.03387079    -0.03760966     0.05398689
     17      2      H           0.03177576    -0.00800195     0.02111294
     18      2      H          -0.01126976    -0.02693546    -0.02034868
     19      1      O           0.01888202    -0.00421689     0.14443032
     20      2      H          -0.03511276     0.01535862     0.04436065
     21      2      H           0.01393343    -0.03733613    -0.03966464
     22      1      O          -0.02323017     0.09470161     0.05224054
     23      2      H          -0.00369484    -0.03698396    -0.01097754
     24      2      H           0.01735892     0.00689548     0.06982597
     25      1      O          -0.03114734    -0.03479198     0.07795293
     26      2      H          -0.00948178     0.00789701    -0.06143961
     27      2      H          -0.00668164     0.01379041    -0.02722404
     28      1      O          -0.02106146    -0.03631827     0.07387486
     29      2      H           0.00850439     0.01868621    -0.00558374
     30      2      H          -0.00622118    -0.04562149     0.00040864
     31      1      O          -0.05384521     0.05762496    -0.00618668
     32      2      H           0.00461448     0.01345530    -0.03599118
     33      2      H           0.04305835     0.02181656    -0.02425243
     34      1      O           0.02638200     0.05199563    -0.09375316
     35      2      H          -0.00147337     0.03120978    -0.05314244
     36      2      H          -0.02084700    -0.00723979     0.03577622
     37      1      O           0.02106979     0.06337606     0.00333528
     38      2      H           0.00544477     0.01988759     0.02663139
     39      2      H           0.01323925     0.02168748    -0.00858860
     40      1      O           0.05376349     0.02318888    -0.01660553
     41      2      H          -0.04115474     0.02527919     0.03540042
     42      2      H           0.00727993    -0.03079517    -0.03138785
     43      1      O           0.00801866    -0.11550911    -0.10012611
     44      2      H          -0.00758010     0.03321038    -0.04502164
     45      2      H           0.00548233     0.01729588    -0.01771959
     46      1      O          -0.02200353    -0.00633603    -0.16791424
     47      2      H           0.05253800    -0.01830189     0.06570963
     48      2      H          -0.06829350     0.03086977    -0.01324943
     49      1      O          -0.02045089     0.00955691    -0.05089982
     50      2      H          -0.01200443     0.00505803     0.00142685
     51      2      H           0.03589917     0.00052529    -0.03024281
     52      1      O           0.00425645     0.07744342     0.08560380
     53      2      H           0.01931961     0.02772294     0.01867743
     54      2      H          -0.00929009    -0.01954484    -0.01946839
     55      1      O           0.03663441    -0.03054053    -0.10969103
     56      2      H          -0.01419896     0.01578039     0.01799242
     57      2      H          -0.00867903     0.01118148    -0.01368457
     58      1      O           0.10445296     0.08528586     0.07312355
     59      2      H          -0.00505647    -0.01695647     0.00236100
     60      2      H          -0.09470120    -0.04446503    -0.04073927
     61      1      O           0.01313634     0.02485275     0.01471600
     62      2      H          -0.00875050    -0.00329703     0.00615947
     63      2      H          -0.01956448    -0.00691216     0.00950140
     64      1      O           0.03472517    -0.04398623     0.09448936
     65      2      H          -0.01158335    -0.00742106    -0.06155039
     66      2      H          -0.02612200     0.05639507     0.01384842
     67      1      O          -0.01616980    -0.06849696    -0.07069628
     68      2      H          -0.00591640     0.03291383    -0.02487826
     69      2      H          -0.01404907     0.00546797     0.02951170
     70      1      O           0.00445557    -0.07933857     0.00431653
     71      2      H          -0.02717523    -0.02649487     0.02277405
     72      2      H           0.01352697     0.02678347    -0.01491124
     73      1      O          -0.05429247    -0.02251370    -0.01713772
     74      2      H           0.01255491    -0.01250304    -0.02180264
     75      2      H           0.01141671    -0.02391106    -0.06146884
     76      1      O          -0.01635051     0.01225224     0.03275109
     77      2      H          -0.00378289    -0.07370106    -0.05014960
     78      2      H           0.00702300    -0.03594958     0.02714716
     79      1      O           0.03920915     0.04071836    -0.05085568
     80      2      H          -0.02827747     0.02466708    -0.07053749
     81      2      H           0.02844598     0.00643295    -0.04367139
     82      1      O          -0.11366055     0.02459601     0.09399761
     83      2      H          -0.00341149    -0.01982511    -0.02144189
     84      2      H           0.09802660     0.00366858    -0.03602166
     85      1      O           0.00942105     0.08879184     0.03639856
     86      2      H           0.03646084     0.02974189     0.05454519
     87      2      H          -0.00872272     0.01734237     0.02568552
     88      1      O          -0.00852293     0.09762685    -0.09216596
     89      2      H           0.01095497     0.00508610     0.03044454
     90      2      H          -0.00226751    -0.02003100    -0.05760491
     91      1      O           0.06836807     0.09843528    -0.08909378
     92      2      H           0.01410928    -0.02043590     0.03450459
     93      2      H          -0.03207323     0.00978019    -0.03675380
     94      1      O           0.02916519     0.10554283    -0.13852876
     95      2      H           0.02089843     0.00580738    -0.01792101
     96      2      H          -0.02984921    -0.05901174     0.05554308
     97      1      O          -0.03598138    -0.07780844     0.04668513
     98      2      H           0.01265215    -0.00805104    -0.04489481
     99      2      H           0.01783766     0.01881583     0.05417735
    100      1      O           0.05934578     0.02214237    -0.12778590
    101      2      H           0.00657740     0.01555035     0.01875265
    102      2      H          -0.02775026     0.04975596     0.02368301
    103      1      O           0.03395884     0.01437463    -0.03758853
    104      2      H          -0.00239531    -0.02039536     0.02236193
    105      2      H          -0.02133818     0.02645961    -0.00004110
    106      1      O          -0.03183415     0.03412633     0.12429181
    107      2      H           0.00832728     0.03936582    -0.09448405
    108      2      H          -0.01046400    -0.02298570    -0.01372173
    109      1      O           0.03268277     0.01423517    -0.07468450
    110      2      H          -0.00938936     0.01257218    -0.02683765
    111      2      H          -0.01062794    -0.02380989     0.02471290
    112      1      O          -0.08673359    -0.02310370     0.05991067
    113      2      H          -0.00381632    -0.01033533     0.01290693
    114      2      H           0.05850386    -0.00718930     0.02537142
    115      1      O          -0.04502851     0.01223312    -0.12482225
    116      2      H           0.02786087    -0.03210803     0.04944934
    117      2      H          -0.01125072     0.07455353     0.00996652
    118      1      O          -0.04584560     0.11178695     0.04725788
    119      2      H           0.03889112    -0.04880241     0.02094784
    120      2      H           0.00358710    -0.01392536    -0.06259293
    121      1      O          -0.04593921     0.11966613    -0.02967062
    122      2      H           0.02630349    -0.07260002     0.03947377
    123      2      H          -0.02897392     0.03467681     0.04371313
    124      1      O          -0.01365019    -0.05781630    -0.16001173
    125      2      H          -0.03620213     0.03485375     0.04355048
    126      2      H           0.02061133    -0.03106502     0.08175202
    127      1      O          -0.03570817     0.02867399    -0.00241587
    128      2      H          -0.01193029     0.05570559     0.00475543
    129      2      H           0.00310255     0.01828479     0.02996626
    130      1      O           0.05241743    -0.04878584     0.09957294
    131      2      H           0.00239935     0.06364350     0.00031287
    132      2      H          -0.02839836     0.01487871    -0.02621060
    133      1      O          -0.06996579     0.06433537     0.12418963
    134      2      H           0.03676255    -0.00479838    -0.04469015
    135      2      H          -0.00211560    -0.06019669     0.03219359
    136      1      O          -0.07840715     0.07057848    -0.09017596
    137      2      H           0.01320559    -0.00410253     0.03347280
    138      2      H           0.01983129    -0.05636026     0.04945254
    139      1      O           0.01089946     0.09376733     0.04971047
    140      2      H          -0.02899761    -0.02774114     0.04825908
    141      2      H           0.00551919     0.01737026     0.00324307
    142      1      O          -0.05382926    -0.04719988     0.04363512
    143      2      H           0.03795516    -0.02347151    -0.02127353
    144      2      H          -0.01270688     0.01688095    -0.05197382
    145      1      O          -0.05549769     0.01038772     0.05843180
    146      2      H           0.04317468     0.00592523    -0.05853506
    147      2      H           0.03479697    -0.04391554     0.03518201
    148      1      O          -0.02973030     0.01317343     0.03653070
    149      2      H          -0.01202111    -0.01184977    -0.01881744
    150      2      H           0.02873307    -0.03711714     0.01479834
    151      1      O           0.02921635    -0.01642333     0.13015147
    152      2      H          -0.01173109    -0.04558627    -0.06758934
    153      2      H           0.02101044    -0.01597484    -0.01998977
    154      1      O          -0.01480578     0.07230928     0.13217640
    155      2      H           0.02528865    -0.02040794    -0.00903572
    156      2      H          -0.02033311    -0.01374287     0.01056838
    157      1      O          -0.08939989    -0.12950066    -0.17766431
    158      2      H           0.09273658    -0.00664315    -0.01296222
    159      2      H          -0.03548312     0.04502929     0.02487280
    160      1      O           0.01667659     0.02873992    -0.03380961
    161      2      H          -0.04047129     0.00208833    -0.07604027
    162      2      H           0.00177635     0.00973483     0.03902025
    163      1      O          -0.03353370     0.10686671     0.10664836
    164      2      H           0.01800605     0.00722375     0.05595188
    165      2      H           0.02036619    -0.00388154    -0.02752770
    166      1      O          -0.01711831    -0.07733542     0.05283765
    167      2      H           0.00457815     0.00630459     0.02094429
    168      2      H           0.02220317    -0.02877114    -0.01759866
    169      1      O           0.09287435    -0.00442694    -0.04722385
    170      2      H          -0.07288280     0.06976652    -0.01438806
    171      2      H           0.02521206     0.02921143     0.01385109
    172      1      O          -0.00514452    -0.05548855     0.02972179
    173      2      H           0.00212269    -0.01038245    -0.03939314
    174      2      H          -0.01585460    -0.02806829     0.04859827
    175      1      O          -0.03580685     0.04109090     0.01967038
    176      2      H          -0.01083967     0.01866794     0.00483146
    177      2      H           0.01563576     0.01256034    -0.04016078
    178      1      O          -0.05754546     0.02772024     0.03663633
    179      2      H           0.00352436     0.01640635    -0.01354976
    180      2      H           0.04237830    -0.02159881     0.00701862
    181      1      O          -0.02459182     0.00454367     0.00019642
    182      2      H          -0.02216748    -0.04079923     0.04087262
    183      2      H           0.02294464    -0.01351872    -0.02296705
    184      1      O          -0.00845092    -0.04004470    -0.01679847
    185      2      H           0.01381035     0.02826728    -0.03449149
    186      2      H          -0.03131657     0.00709982    -0.00366825
    187      1      O          -0.05297716     0.08027428     0.04876686
    188      2      H          -0.00093176    -0.04600939    -0.05090945
    189      2      H           0.03449857     0.00458151    -0.02661949
    190      1      O          -0.02579701    -0.16923617    -0.03729876
    191      2      H           0.03214560     0.17510741     0.01691398
    192      2      H           0.03309640     0.00572483    -0.00305725
 SUM OF ATOMIC FORCES          -0.33429018     0.90548972     0.06871772     0.96766920

 -------------------------------------------------------------------------------
 -                                                                             -
 -                                DBCSR STATISTICS                             -
 -                                                                             -
 -------------------------------------------------------------------------------
 COUNTER                                    TOTAL       BLAS       SMM       ACC
 flops     5 x     5 x   256            980812800       0.0%    100.0%      0.0%
 flops    13 x     5 x   256           1239912960       0.0%    100.0%      0.0%
 flops     5 x    13 x   256           1250895360       0.0%    100.0%      0.0%
 flops    13 x    13 x   256           1741808640       0.0%    100.0%      0.0%
 flops inhomo. stacks                           0       0.0%      0.0%      0.0%
 flops total                         5.213430E+09       0.0%    100.0%      0.0%
 flops max/rank                      5.213430E+09       0.0%    100.0%      0.0%
 matmuls inhomo. stacks                         0       0.0%      0.0%      0.0%
 matmuls total                             171600       0.0%    100.0%      0.0%
 number of processed stacks                  2574       0.0%    100.0%      0.0%
 average stack size                                     0.0      66.7       0.0
 marketing flops                    36.609982E+09
 -------------------------------------------------------------------------------
 # multiplications                             33
 max memory usage/rank              25.809711E+09
 # max total images/rank                        1
 # max 3D layers                                1
 # MPI messages exchanged                       0
 MPI messages size (bytes):
  total size                         0.000000E+00
  min size                           0.000000E+00
  max size                           0.000000E+00
  average size                       0.000000E+00
 MPI breakdown and total messages size (bytes):
             size <=      128                   0                        0
       128 < size <=     8192                   0                        0
      8192 < size <=    32768                   0                        0
     32768 < size <=   131072                   0                        0
    131072 < size <=  4194304                   0                        0
   4194304 < size <= 16777216                   0                        0
  16777216 < size                               0                        0
 -------------------------------------------------------------------------------

 MEMORY| Estimated peak process memory [MiB]                               24616

 -------------------------------------------------------------------------------
 -                                                                             -
 -                           R E F E R E N C E S                               -
 -                                                                             -
 -------------------------------------------------------------------------------
 
 CP2K version 7.1, the CP2K developers group (2019).
 CP2K is freely available from https://www.cp2k.org/ .

 Schuett, Ole; Messmer, Peter; Hutter, Juerg; VandeVondele, Joost. 
 Electronic Structure Calculations on Graphics Processing Units, John
 Wiley & Sons, Ltd, 173-190 (2016). 
 GPU-Accelerated Sparse Matrix-Matrix Multiplication for
 Linear Scaling Density Functional Theory.
 https://dx.doi.org/10.1002/9781118670712.ch8

 Borstnik, U; VandeVondele, J; Weber, V; Hutter, J. 
 PARALLEL COMPUTING, 40 (5-6), 47-58 (2014). 
 Sparse matrix multiplication: The distributed block-compressed sparse
 row library.
 https://dx.doi.org/10.1016/j.parco.2014.03.012

 Hutter, J; Iannuzzi, M; Schiffmann, F; VandeVondele, J. 
 WIREs Comput Mol Sci., 4 (1), 15-25 (2014). 
 CP2K: atomistic simulations of condensed matter systems.
 https://dx.doi.org/10.1002/wcms.1159

 Krack, M. 
 THEORETICAL CHEMISTRY ACCOUNTS, 114 (1-3), 145-152 (2005). 
 Pseudopotentials for H to Kr optimized for gradient-corrected
 exchange-correlation functionals.
 https://dx.doi.org/10.1007/s00214-005-0655-y

 VandeVondele, J; Krack, M; Mohamed, F; Parrinello, M; Chassaing, T;
 Hutter, J. COMPUTER PHYSICS COMMUNICATIONS, 167 (2), 103-128 (2005). 
 QUICKSTEP: Fast and accurate density functional calculations using a
 mixed Gaussian and plane waves approach.
 https://dx.doi.org/10.1016/j.cpc.2004.12.014

 Frigo, M; Johnson, SG. 
 PROCEEDINGS OF THE IEEE, 93 (2), 216-231 (2005). 
 The design and implementation of FFTW3.
 https://dx.doi.org/10.1109/JPROC.2004.840301

 Hartwigsen, C; Goedecker, S; Hutter, J. 
 PHYSICAL REVIEW B, 58 (7), 3641-3662 (1998). 
 Relativistic separable dual-space Gaussian pseudopotentials from H to Rn.
 https://dx.doi.org/10.1103/PhysRevB.58.3641

 Lippert, G; Hutter, J; Parrinello, M. 
 MOLECULAR PHYSICS, 92 (3), 477-487 (1997). 
 A hybrid Gaussian and plane wave density functional scheme.
 https://dx.doi.org/10.1080/002689797170220

 Goedecker, S; Teter, M; Hutter, J. 
 PHYSICAL REVIEW B, 54 (3), 1703-1710 (1996). 
 Separable dual-space Gaussian pseudopotentials.
 https://dx.doi.org/10.1103/PhysRevB.54.1703


 -------------------------------------------------------------------------------
 -                                                                             -
 -                                T I M I N G                                  -
 -                                                                             -
 -------------------------------------------------------------------------------
 SUBROUTINE                       CALLS  ASD         SELF TIME        TOTAL TIME
                                MAXIMUM       AVERAGE  MAXIMUM  AVERAGE  MAXIMUM
 CP2K                                 1  1.0    0.604    0.604  766.758  766.758
 qs_forces                            1  2.0    0.000    0.000  755.852  755.852
 qs_energies                          1  3.0    0.000    0.000  751.046  751.046
 scf_env_do_scf                       1  4.0    0.000    0.000  739.285  739.285
 scf_env_do_scf_inner_loop           32  5.0    0.005    0.005  739.285  739.285
 gspace_mixing                       31  6.0    4.378    4.378  288.349  288.349
 broyden_mixing                      31  7.0  257.861  257.861  257.861  257.861
 qs_scf_new_mos                      32  6.0    0.001    0.001  212.260  212.260
 eigensolver                         32  7.0    0.004    0.004  202.905  202.905
 pw_transfer                        428  9.9    0.043    0.043  141.562  141.562
 fft_wrap_pw1pw2                    362 10.9    0.005    0.005  137.768  137.768
 cp_fm_syevd                         32  8.0  137.605  137.605  137.756  137.756
 rebuild_ks_matrix                   33  6.9    0.000    0.000  137.179  137.179
 qs_ks_build_kohn_sham_matrix        33  7.9    0.009    0.009  137.179  137.179
 qs_ks_update_qs_env                 32  6.0    0.000    0.000  133.201  133.201
 fft_wrap_pw1pw2_70                 164 11.2   10.079   10.079  124.933  124.933
 qs_rho_update_rho                   33  6.0    0.000    0.000  108.206  108.206
 calculate_rho_elec                  33  7.0   38.483   38.483  108.205  108.205
 density_rs2pw                       33  8.0    0.003    0.003   68.633   68.633
 fft3d_s                            363 12.8   68.422   68.422   68.431   68.431
 cp_fm_cholesky_restore              96  8.0   65.029   65.029   65.029   65.029
 pw_scatter_s                       196 13.1   43.913   43.913   43.913   43.913
 sum_up_and_integrate                33  8.9    2.155    2.155   42.301   42.301
 pw_poisson_solve                    33  8.9   37.105   37.105   41.154   41.154
 integrate_v_rspace                  33  9.9    2.728    2.728   40.146   40.146
 potential_pw2rs                     33 10.9    0.273    0.273   35.486   35.486
 qs_vxc_create                       33  8.9    0.001    0.001   20.213   20.213
 xc_vxc_pw_create                    33  9.9    4.610    4.610   20.212   20.212
 xc_rho_set_and_dset_create          33 10.9    0.001    0.001   15.602   15.602
 -------------------------------------------------------------------------------

 The number of warnings for this run is : 0
 
 -------------------------------------------------------------------------------
  **** **** ******  **  PROGRAM ENDED AT                 2020-05-20 19:44:04.526
 ***** ** ***  *** **   PROGRAM RAN ON                                   gnode39
 **    ****   ******    PROGRAM RAN BY                               mayank.modi
 ***** **    ** ** **   PROGRAM PROCESS ID                                 17080
  **** **  *******  **  PROGRAM STOPPED IN /home/mayank.modi/ab-initio-thermodyn
                                           amics-of-water/mayank/cp2k_energy_cal
                                           culations
