 DBCSR| CPU Multiplication driver                                           XSMM
 DBCSR| Multrec recursion limit                                              512
 DBCSR| Multiplication stack size                                           1000
 DBCSR| Maximum elements for images                                    UNLIMITED
 DBCSR| Multiplicative factor virtual images                                   1
 DBCSR| Use multiplication densification                                       T
 DBCSR| Multiplication size stacks                                             3


  **** **** ******  **  PROGRAM STARTED AT               2020-05-21 20:14:57.256
 ***** ** ***  *** **   PROGRAM STARTED ON                               gnode39
 **    ****   ******    PROGRAM STARTED BY                           mayank.modi
 ***** **    ** ** **   PROGRAM PROCESS ID                                  6625
  **** **  *******  **  PROGRAM STARTED IN /home/mayank.modi/ab-initio-thermodyn
                                           amics-of-water/mayank/cp2k_energy_cal
                                           culations

 CP2K| version string:                                          CP2K version 7.1
 CP2K| source code revision number:                                  git:e635599
 CP2K| cp2kflags: omp libint fftw3 libxc xsmm spglib                            
 CP2K| is freely available from                            https://www.cp2k.org/
 CP2K| Program compiled at                          Mon Dec 23 19:23:12 CET 2019
 CP2K| Program compiled on                                                pc9404
 CP2K| Program compiled for                                Linux-x86-64-gfortran
 CP2K| Data directory path                                        /opt/cp2k/data
 CP2K| Input file name                                             ./input124.in

 GLOBAL| Force Environment number                                              1
 GLOBAL| Basis set file name                                           BASIS_SET
 GLOBAL| Potential file name                                      GTH_POTENTIALS
 GLOBAL| MM Potential file name                                     MM_POTENTIAL
 GLOBAL| Coordinate file name                                      __STD_INPUT__
 GLOBAL| Method name                                                        CP2K
 GLOBAL| Project name                                                   H2O_bulk
 GLOBAL| Preferred FFT library                                             FFTW3
 GLOBAL| Preferred diagonalization lib.                                       SL
 GLOBAL| Run type                                                   ENERGY_FORCE
 GLOBAL| All-to-all communication in single precision                          F
 GLOBAL| FFTs using library dependent lengths                                  F
 GLOBAL| Global print level                                                  LOW
 GLOBAL| MPI I/O enabled                                                       T
 GLOBAL| Total number of message passing processes                             1
 GLOBAL| Number of threads for this process                                   20
 GLOBAL| This output is from process                                           0
 GLOBAL| CPU model name                Intel(R) Xeon(R) CPU E5-2640 v4 @ 2.40GHz
 GLOBAL| CPUID                                                              1002
 GLOBAL| Compiled for CPUID                                                    0

 MEMORY| system memory details [Kb]
 MEMORY|                        rank 0           min           max       average
 MEMORY| MemTotal            131898148     131898148     131898148     131898148
 MEMORY| MemFree              81973076      81973076      81973076      81973076
 MEMORY| Buffers               3188268       3188268       3188268       3188268
 MEMORY| Cached               33739788      33739788      33739788      33739788
 MEMORY| Slab                  4007044       4007044       4007044       4007044
 MEMORY| SReclaimable          3294748       3294748       3294748       3294748
 MEMORY| MemLikelyFree       122195880     122195880     122195880     122195880


 GENERATE|  Preliminary Number of Bonds generated:                             0
 GENERATE|  Achieved consistency in connectivity generation.

 *******************************************************************************
 *******************************************************************************
 **                                                                           **
 **     #####                         ##              ##                      **
 **    ##   ##            ##          ##              ##                      **
 **   ##     ##                       ##            ######                    **
 **   ##     ##  ##   ##  ##   #####  ##  ##   ####   ##    #####    #####    **
 **   ##     ##  ##   ##  ##  ##      ## ##   ##      ##   ##   ##  ##   ##   **
 **   ##  ## ##  ##   ##  ##  ##      ####     ###    ##   ######   ######    **
 **    ##  ###   ##   ##  ##  ##      ## ##      ##   ##   ##       ##        **
 **     #######   #####   ##   #####  ##  ##  ####    ##    #####   ##        **
 **           ##                                                    ##        **
 **                                                                           **
 **                                                ... make the atoms dance   **
 **                                                                           **
 **            Copyright (C) by CP2K developers group (2000 - 2019)           **
 **                                                                           **
 *******************************************************************************


 TOTAL NUMBERS AND MAXIMUM NUMBERS

  Total number of            - Atomic kinds:                                   2
                             - Atoms:                                        192
                             - Shell sets:                                   384
                             - Shells:                                       704
                             - Primitive Cartesian functions:                960
                             - Cartesian basis functions:                   1536
                             - Spherical basis functions:                   1472

  Maximum angular momentum of- Orbital basis functions:                        2
                             - Local part of the GTH pseudopotential:          2
                             - Non-local part of the GTH pseudopotential:      0


 SCF PARAMETERS         Density guess:                                    ATOMIC
                        --------------------------------------------------------
                        max_scf:                                             300
                        max_scf_history:                                       0
                        max_diis:                                              4
                        --------------------------------------------------------
                        eps_scf:                                        1.00E-07
                        eps_scf_history:                                0.00E+00
                        eps_diis:                                       1.00E-01
                        eps_eigval:                                     1.00E-05
                        --------------------------------------------------------
                        level_shift [a.u.]:                                 0.00
                        --------------------------------------------------------
                        Mixing method:                            BROYDEN_MIXING
                                                charge density mixing in g-space
                        --------------------------------------------------------
                        No outer SCF

 Number of electrons:                                                        512
 Number of occupied orbitals:                                                256
 Number of molecular orbitals:                                               256

 Number of orbital functions:                                               1472
 Number of independent orbital functions:                                   1472

 Extrapolation method: initial_guess


 SCF WAVEFUNCTION OPTIMIZATION

  Step     Update method      Time    Convergence         Total energy    Change
  ------------------------------------------------------------------------------
     1 NoMix/Diag. 0.40E+00   11.4     0.99938360     -1087.2982356934 -1.09E+03
     2 Broy./Diag. 0.40E+00   17.3     0.29632455     -1013.2571641409  7.40E+01
     3 Broy./Diag. 0.40E+00   17.7     0.02292414     -1094.8882743762 -8.16E+01
     4 Broy./Diag. 0.40E+00   19.8     0.02720658     -1094.3663922638  5.22E-01
     5 Broy./Diag. 0.40E+00   19.5     0.00229341     -1095.2759463914 -9.10E-01
     6 Broy./Diag. 0.40E+00   22.3     0.00414284     -1095.3168383183 -4.09E-02
     7 Broy./Diag. 0.40E+00   23.0     0.00248119     -1095.4688400560 -1.52E-01
     8 Broy./Diag. 0.40E+00   23.9     0.00307759     -1095.5893281856 -1.20E-01
     9 Broy./Diag. 0.40E+00   26.8     0.00318466     -1095.6606381833 -7.13E-02
    10 Broy./Diag. 0.40E+00   26.8     0.00146687     -1095.6956755999 -3.50E-02
    11 Broy./Diag. 0.40E+00   27.4     0.00133572     -1095.6634368865  3.22E-02
    12 Broy./Diag. 0.40E+00   27.1     0.00064450     -1095.6725727893 -9.14E-03
    13 Broy./Diag. 0.40E+00   26.0     0.00055254     -1095.6935253749 -2.10E-02
    14 Broy./Diag. 0.40E+00   26.5     0.00025523     -1095.6953399136 -1.81E-03
    15 Broy./Diag. 0.40E+00   26.9     0.00025432     -1095.6889914716  6.35E-03
    16 Broy./Diag. 0.40E+00   26.4     0.00013147     -1095.6899073335 -9.16E-04
    17 Broy./Diag. 0.40E+00   27.6     0.00006714     -1095.6913538903 -1.45E-03
    18 Broy./Diag. 0.40E+00   27.1     0.00003805     -1095.6916441083 -2.90E-04
    19 Broy./Diag. 0.40E+00   26.0     0.00002023     -1095.6914078079  2.36E-04
    20 Broy./Diag. 0.40E+00   29.5     0.00001516     -1095.6908503116  5.57E-04
    21 Broy./Diag. 0.40E+00   26.9     0.00001026     -1095.6909818398 -1.32E-04
    22 Broy./Diag. 0.40E+00   26.9     0.00000387     -1095.6911329243 -1.51E-04
    23 Broy./Diag. 0.40E+00   27.3     0.00000445     -1095.6911484293 -1.55E-05
    24 Broy./Diag. 0.40E+00   26.7     0.00000213     -1095.6910790547  6.94E-05
    25 Broy./Diag. 0.40E+00   26.4     0.00000246     -1095.6910333786  4.57E-05
    26 Broy./Diag. 0.40E+00   27.3     0.00000124     -1095.6910531148 -1.97E-05
    27 Broy./Diag. 0.40E+00   27.6     0.00000064     -1095.6910672971 -1.42E-05
    28 Broy./Diag. 0.40E+00   26.4     0.00000053     -1095.6910690691 -1.77E-06
    29 Broy./Diag. 0.40E+00   26.4     0.00000025     -1095.6910610929  7.98E-06
    30 Broy./Diag. 0.40E+00   27.0     0.00000018     -1095.6910567460  4.35E-06
    31 Broy./Diag. 0.40E+00   26.7     0.00000016     -1095.6910579734 -1.23E-06
    32 Broy./Diag. 0.40E+00   26.4     0.00000008     -1095.6910594653 -1.49E-06

  *** SCF run converged in    32 steps ***


  Electronic density on regular grids:       -512.0007477332       -0.0007477332
  Core density on regular grids:              511.9998785073       -0.0001214927
  Total charge density on r-space grids:       -0.0008692259
  Total charge density g-space grids:          -0.0008692259

  Overlap energy of the core charge distribution:               0.00000497532618
  Self energy of the core charge distribution:              -2838.21791979120962
  Core Hamiltonian energy:                                    821.30678033352285
  Hartree energy:                                            1185.90877935162894
  Exchange-correlation energy:                               -264.68870433454100

  Total energy:                                             -1095.69105946527247

 ENERGY| Total FORCE_EVAL ( QS ) energy (a.u.):            -1095.691059884448578


 ATOMIC FORCES in [a.u.]

 # Atom   Kind   Element          X              Y              Z
      1      1      O           0.04339087     0.04765109    -0.14484869
      2      2      H          -0.06979561     0.02257959     0.09776069
      3      2      H          -0.00798042     0.03758808    -0.00748530
      4      1      O           0.08038036    -0.08081473     0.14879614
      5      2      H          -0.03118178     0.01822752     0.00609431
      6      2      H          -0.01777672    -0.02611403    -0.00890206
      7      1      O           0.05125875    -0.04765965     0.01181124
      8      2      H          -0.00190735     0.02143818     0.02904461
      9      2      H          -0.02893165    -0.01618663    -0.05884035
     10      1      O          -0.00205134     0.04158688     0.01689564
     11      2      H           0.03203265     0.03789743     0.00465105
     12      2      H           0.01364009    -0.01335778    -0.01527672
     13      1      O          -0.03191721    -0.02830858     0.00653001
     14      2      H           0.00121645     0.01261933    -0.06352075
     15      2      H           0.01743366     0.00368796     0.01615804
     16      1      O          -0.02045662     0.05452778     0.07559486
     17      2      H           0.00632048    -0.01921705     0.00040502
     18      2      H           0.02961041     0.03182098     0.00055515
     19      1      O           0.07800931    -0.10536654    -0.13464280
     20      2      H           0.00242968    -0.00244098    -0.01993503
     21      2      H          -0.06510526     0.04940928    -0.02133191
     22      1      O           0.00225676    -0.05284293     0.08170195
     23      2      H          -0.00668139     0.02966976     0.01485467
     24      2      H          -0.02970142    -0.01561284    -0.02900278
     25      1      O           0.01784334    -0.02701954    -0.07915113
     26      2      H          -0.01607522    -0.02773600    -0.02245697
     27      2      H           0.00119873     0.08357670     0.03915823
     28      1      O          -0.04551476     0.02813208     0.11231096
     29      2      H           0.04740532    -0.01018181     0.04888846
     30      2      H          -0.00565172    -0.01155801     0.02626850
     31      1      O           0.06011385    -0.01850236    -0.05508874
     32      2      H          -0.06187414     0.01632347     0.00399664
     33      2      H           0.00171996     0.04553665     0.01760305
     34      1      O           0.02647789    -0.05288201    -0.14065284
     35      2      H          -0.04548711     0.01452862    -0.01164884
     36      2      H          -0.00747812     0.01287598     0.04333856
     37      1      O           0.00921626    -0.03736913     0.12260316
     38      2      H           0.00830384     0.00174735    -0.02741240
     39      2      H          -0.01154234     0.01727917     0.02983633
     40      1      O          -0.06243247     0.07252436     0.06302359
     41      2      H           0.01540403    -0.05155120     0.00004885
     42      2      H          -0.01159732     0.03979536     0.00252328
     43      1      O          -0.01006232    -0.01110669     0.03590713
     44      2      H           0.01047020    -0.00176318     0.02003585
     45      2      H           0.01243217    -0.03820358    -0.03186993
     46      1      O          -0.05533813     0.01525836     0.03299504
     47      2      H           0.00668208     0.04670168     0.02671775
     48      2      H           0.02802460     0.00106750     0.03367378
     49      1      O          -0.01392033     0.06403605     0.01662843
     50      2      H           0.00262997    -0.02178590    -0.02759776
     51      2      H           0.00796624    -0.00896147     0.00355911
     52      1      O           0.01128676    -0.08288107    -0.00916334
     53      2      H           0.00753772     0.01625527     0.00442855
     54      2      H          -0.01561314     0.02533866     0.02177449
     55      1      O           0.04915214    -0.09718688     0.04596491
     56      2      H          -0.01336446     0.05055584     0.04564853
     57      2      H          -0.02574736    -0.00189404     0.03078583
     58      1      O          -0.00830089    -0.00912459    -0.01531497
     59      2      H           0.01003862     0.01188119     0.03745767
     60      2      H          -0.02043714    -0.04658742    -0.07639646
     61      1      O           0.00204143     0.12808818     0.10284204
     62      2      H          -0.04498872     0.00469934     0.00736074
     63      2      H           0.02437777    -0.03527778    -0.01859103
     64      1      O          -0.05370617     0.07529605     0.14510618
     65      2      H           0.05054461    -0.03756608    -0.00369581
     66      2      H           0.00541817     0.02027635     0.03152939
     67      1      O          -0.06448523    -0.06928077     0.03049169
     68      2      H           0.01224353    -0.01111231     0.04913396
     69      2      H           0.05047791    -0.04071774    -0.02848541
     70      1      O           0.05617499    -0.06212752    -0.12750982
     71      2      H          -0.01480845     0.04438466     0.00583291
     72      2      H          -0.01427145     0.00613096     0.07673776
     73      1      O           0.01816311     0.09417454     0.12267134
     74      2      H          -0.00499726    -0.01836456    -0.00459479
     75      2      H           0.01992631    -0.00748793     0.00757334
     76      1      O           0.01124860     0.00926034    -0.09411198
     77      2      H           0.00089452     0.01285152     0.03959367
     78      2      H          -0.03564447    -0.02330429    -0.04124113
     79      1      O          -0.04110801     0.09823721     0.09114914
     80      2      H           0.00971077    -0.00921093     0.02742056
     81      2      H           0.03485601    -0.05605640    -0.02146199
     82      1      O          -0.04220834     0.08664702     0.02069976
     83      2      H          -0.05340967    -0.05437898     0.03229835
     84      2      H           0.05698911     0.01797429     0.05047402
     85      1      O           0.01714120     0.03598788     0.11785068
     86      2      H           0.01824443    -0.02220573     0.01635074
     87      2      H          -0.02969132     0.02897555    -0.02190421
     88      1      O          -0.05937497     0.08212111     0.14792731
     89      2      H           0.02905524    -0.05698177    -0.03483713
     90      2      H          -0.00386212     0.00996965     0.02797739
     91      1      O           0.04703598     0.06389338     0.01285749
     92      2      H          -0.02042768     0.00735293     0.00346789
     93      2      H          -0.03195818    -0.00668862    -0.06317975
     94      1      O          -0.02708430     0.05505758    -0.12711152
     95      2      H           0.03439188     0.02616906    -0.03048964
     96      2      H           0.00026667     0.00522611    -0.01330648
     97      1      O          -0.05510958    -0.04134328     0.15094850
     98      2      H           0.01409693    -0.00817425    -0.03651463
     99      2      H           0.06822971    -0.04389662    -0.04636707
    100      1      O          -0.05603025    -0.02573920     0.13230934
    101      2      H           0.04609328     0.03534693    -0.05964641
    102      2      H          -0.01424493    -0.04599367     0.04961229
    103      1      O           0.00340190     0.06021433    -0.00962836
    104      2      H          -0.00698267     0.00041475    -0.07159049
    105      2      H           0.02535248     0.02997826     0.03712555
    106      1      O          -0.02668091     0.03587254     0.03739253
    107      2      H           0.01674880     0.04379185    -0.01051638
    108      2      H           0.00592589    -0.08417115    -0.00314423
    109      1      O          -0.01077037     0.08924925     0.08984075
    110      2      H          -0.02606172     0.00337462     0.04523237
    111      2      H           0.03114568    -0.00894990     0.00659119
    112      1      O          -0.01635649     0.04737507     0.04156508
    113      2      H           0.00201118     0.01245228     0.02584570
    114      2      H           0.05630575     0.01435458    -0.04474132
    115      1      O           0.02283257    -0.04507037     0.01916906
    116      2      H          -0.04521033    -0.01964215     0.01545536
    117      2      H          -0.01102592    -0.05855788     0.01474595
    118      1      O          -0.02622142    -0.08889171    -0.04920139
    119      2      H           0.02086282    -0.02395885    -0.03210775
    120      2      H           0.00563340     0.03369998    -0.00371668
    121      1      O           0.01612582     0.03186798    -0.13439531
    122      2      H          -0.00107099     0.00412971     0.00614435
    123      2      H          -0.01278709    -0.02284650    -0.01577581
    124      1      O          -0.01492895    -0.08323058     0.04526536
    125      2      H          -0.03682924     0.00507970    -0.01171030
    126      2      H           0.02961706     0.02664771     0.04695076
    127      1      O           0.04899553    -0.02705965    -0.03537374
    128      2      H           0.03026795     0.01177231    -0.00297597
    129      2      H          -0.07187680    -0.03408114     0.03207009
    130      1      O           0.03633604     0.00737868     0.10710293
    131      2      H           0.00809558    -0.03148868    -0.00519039
    132      2      H          -0.02088549    -0.00716149    -0.03756476
    133      1      O          -0.01723668    -0.00012661     0.06836175
    134      2      H          -0.00845960    -0.01537255    -0.03688661
    135      2      H           0.02789706    -0.00448676    -0.02198784
    136      1      O          -0.04125228     0.00018860    -0.06904420
    137      2      H          -0.00059286     0.00786055     0.00087554
    138      2      H           0.03655180    -0.06239810    -0.00347851
    139      1      O           0.03662327    -0.05163560     0.11395106
    140      2      H          -0.02835938     0.00016783    -0.02974859
    141      2      H           0.00859622     0.02603259    -0.02793245
    142      1      O           0.00765315     0.10259879     0.15321777
    143      2      H          -0.03435877    -0.00747907    -0.02318188
    144      2      H           0.01917588    -0.01336118     0.02422984
    145      1      O          -0.02656831     0.03737926     0.11502960
    146      2      H           0.02456077     0.01694865    -0.04088221
    147      2      H           0.01414553    -0.00492139    -0.04253341
    148      1      O           0.04309267     0.04414749     0.21871057
    149      2      H          -0.08719114     0.00426696    -0.07034635
    150      2      H           0.01235957     0.03972374    -0.03610946
    151      1      O          -0.01812703     0.05344871    -0.11490700
    152      2      H           0.01227443    -0.01039586     0.02441201
    153      2      H          -0.01539191    -0.00015427     0.00325174
    154      1      O           0.02563133     0.03513056     0.01696688
    155      2      H           0.01736520     0.02256472    -0.02044224
    156      2      H          -0.01750753    -0.03828759     0.02823324
    157      1      O           0.02055921     0.06326310    -0.13289986
    158      2      H           0.00891431     0.01595821    -0.03548576
    159      2      H          -0.03263307     0.01455662     0.00098013
    160      1      O           0.01224908     0.07575533    -0.05099550
    161      2      H           0.00820526    -0.03256141     0.02334038
    162      2      H          -0.01448499     0.02559028    -0.00061087
    163      1      O           0.04307270    -0.03785480    -0.02999298
    164      2      H          -0.01729540     0.00534750    -0.03789016
    165      2      H          -0.01756536     0.05275812    -0.00648601
    166      1      O          -0.06727251    -0.06495394     0.05122156
    167      2      H           0.02872597    -0.00801658    -0.00345403
    168      2      H           0.02062554    -0.02912252     0.01008159
    169      1      O           0.08609211    -0.08552320     0.04115442
    170      2      H          -0.09202680     0.03048243    -0.03620759
    171      2      H           0.02004965     0.02398141     0.01227806
    172      1      O          -0.00767174    -0.03623394     0.12663898
    173      2      H          -0.03053288     0.01312750    -0.04593089
    174      2      H           0.00845704    -0.01561913     0.00630401
    175      1      O          -0.02830252     0.00751257     0.03730653
    176      2      H           0.01920490     0.01163204    -0.05660979
    177      2      H          -0.01099498     0.02498362    -0.03781195
    178      1      O          -0.03575461    -0.09848650     0.08143500
    179      2      H           0.02620298    -0.01260868    -0.03629781
    180      2      H           0.00470268    -0.00562619    -0.03952386
    181      1      O          -0.00128736    -0.08280697    -0.07782129
    182      2      H          -0.00432776    -0.02654300     0.05247695
    183      2      H          -0.00474039    -0.00260226    -0.03095952
    184      1      O          -0.00587666    -0.07174043     0.01548583
    185      2      H          -0.00764455     0.01397438     0.01607309
    186      2      H          -0.00834252    -0.02743364    -0.03384202
    187      1      O          -0.00782319     0.05224625    -0.04498617
    188      2      H           0.02542053    -0.00892125     0.02963862
    189      2      H          -0.00624594    -0.02688284    -0.01470017
    190      1      O           0.00598296    -0.09919334     0.11203088
    191      2      H          -0.03988989     0.02385207     0.03872129
    192      2      H          -0.02627327     0.00745278     0.00009570
 SUM OF ATOMIC FORCES          -0.19749958     0.07424037     1.33803820     1.35457150

 -------------------------------------------------------------------------------
 -                                                                             -
 -                                DBCSR STATISTICS                             -
 -                                                                             -
 -------------------------------------------------------------------------------
 COUNTER                                    TOTAL       BLAS       SMM       ACC
 flops     5 x     5 x   256            782707200       0.0%    100.0%      0.0%
 flops     5 x    13 x   256            978531840       0.0%    100.0%      0.0%
 flops    13 x     5 x   256            996103680       0.0%    100.0%      0.0%
 flops    13 x    13 x   256           1367748096       0.0%    100.0%      0.0%
 flops inhomo. stacks                           0       0.0%      0.0%      0.0%
 flops total                         4.125091E+09       0.0%    100.0%      0.0%
 flops max/rank                      4.125091E+09       0.0%    100.0%      0.0%
 matmuls inhomo. stacks                         0       0.0%      0.0%      0.0%
 matmuls total                             136290       0.0%    100.0%      0.0%
 number of processed stacks                  2574       0.0%    100.0%      0.0%
 average stack size                                     0.0      52.9       0.0
 marketing flops                    36.609982E+09
 -------------------------------------------------------------------------------
 # multiplications                             33
 max memory usage/rank              25.806266E+09
 # max total images/rank                        1
 # max 3D layers                                1
 # MPI messages exchanged                       0
 MPI messages size (bytes):
  total size                         0.000000E+00
  min size                           0.000000E+00
  max size                           0.000000E+00
  average size                       0.000000E+00
 MPI breakdown and total messages size (bytes):
             size <=      128                   0                        0
       128 < size <=     8192                   0                        0
      8192 < size <=    32768                   0                        0
     32768 < size <=   131072                   0                        0
    131072 < size <=  4194304                   0                        0
   4194304 < size <= 16777216                   0                        0
  16777216 < size                               0                        0
 -------------------------------------------------------------------------------

 MEMORY| Estimated peak process memory [MiB]                               24613

 -------------------------------------------------------------------------------
 -                                                                             -
 -                           R E F E R E N C E S                               -
 -                                                                             -
 -------------------------------------------------------------------------------
 
 CP2K version 7.1, the CP2K developers group (2019).
 CP2K is freely available from https://www.cp2k.org/ .

 Schuett, Ole; Messmer, Peter; Hutter, Juerg; VandeVondele, Joost. 
 Electronic Structure Calculations on Graphics Processing Units, John
 Wiley & Sons, Ltd, 173-190 (2016). 
 GPU-Accelerated Sparse Matrix-Matrix Multiplication for
 Linear Scaling Density Functional Theory.
 https://dx.doi.org/10.1002/9781118670712.ch8

 Borstnik, U; VandeVondele, J; Weber, V; Hutter, J. 
 PARALLEL COMPUTING, 40 (5-6), 47-58 (2014). 
 Sparse matrix multiplication: The distributed block-compressed sparse
 row library.
 https://dx.doi.org/10.1016/j.parco.2014.03.012

 Hutter, J; Iannuzzi, M; Schiffmann, F; VandeVondele, J. 
 WIREs Comput Mol Sci., 4 (1), 15-25 (2014). 
 CP2K: atomistic simulations of condensed matter systems.
 https://dx.doi.org/10.1002/wcms.1159

 Krack, M. 
 THEORETICAL CHEMISTRY ACCOUNTS, 114 (1-3), 145-152 (2005). 
 Pseudopotentials for H to Kr optimized for gradient-corrected
 exchange-correlation functionals.
 https://dx.doi.org/10.1007/s00214-005-0655-y

 VandeVondele, J; Krack, M; Mohamed, F; Parrinello, M; Chassaing, T;
 Hutter, J. COMPUTER PHYSICS COMMUNICATIONS, 167 (2), 103-128 (2005). 
 QUICKSTEP: Fast and accurate density functional calculations using a
 mixed Gaussian and plane waves approach.
 https://dx.doi.org/10.1016/j.cpc.2004.12.014

 Frigo, M; Johnson, SG. 
 PROCEEDINGS OF THE IEEE, 93 (2), 216-231 (2005). 
 The design and implementation of FFTW3.
 https://dx.doi.org/10.1109/JPROC.2004.840301

 Hartwigsen, C; Goedecker, S; Hutter, J. 
 PHYSICAL REVIEW B, 58 (7), 3641-3662 (1998). 
 Relativistic separable dual-space Gaussian pseudopotentials from H to Rn.
 https://dx.doi.org/10.1103/PhysRevB.58.3641

 Lippert, G; Hutter, J; Parrinello, M. 
 MOLECULAR PHYSICS, 92 (3), 477-487 (1997). 
 A hybrid Gaussian and plane wave density functional scheme.
 https://dx.doi.org/10.1080/002689797170220

 Goedecker, S; Teter, M; Hutter, J. 
 PHYSICAL REVIEW B, 54 (3), 1703-1710 (1996). 
 Separable dual-space Gaussian pseudopotentials.
 https://dx.doi.org/10.1103/PhysRevB.54.1703


 -------------------------------------------------------------------------------
 -                                                                             -
 -                                T I M I N G                                  -
 -                                                                             -
 -------------------------------------------------------------------------------
 SUBROUTINE                       CALLS  ASD         SELF TIME        TOTAL TIME
                                MAXIMUM       AVERAGE  MAXIMUM  AVERAGE  MAXIMUM
 CP2K                                 1  1.0    0.762    0.762  834.285  834.285
 qs_forces                            1  2.0    0.000    0.000  822.305  822.305
 qs_energies                          1  3.0    0.000    0.000  818.221  818.221
 scf_env_do_scf                       1  4.0    0.000    0.000  805.610  805.610
 scf_env_do_scf_inner_loop           32  5.0    0.005    0.005  805.610  805.610
 gspace_mixing                       31  6.0    4.718    4.718  315.575  315.575
 broyden_mixing                      31  7.0  280.865  280.865  280.865  280.865
 qs_scf_new_mos                      32  6.0    0.001    0.001  223.543  223.543
 eigensolver                         32  7.0    0.004    0.004  218.431  218.431
 pw_transfer                        428  9.9    0.042    0.042  159.863  159.863
 fft_wrap_pw1pw2                    362 10.9    0.005    0.005  155.736  155.736
 rebuild_ks_matrix                   33  6.9    0.000    0.000  150.611  150.611
 qs_ks_build_kohn_sham_matrix        33  7.9    0.011    0.011  150.611  150.611
 cp_fm_syevd                         32  8.0  147.866  147.866  148.027  148.027
 qs_ks_update_qs_env                 32  6.0    0.000    0.000  146.700  146.700
 fft_wrap_pw1pw2_70                 164 11.2   12.599   12.599  142.882  142.882
 qs_rho_update_rho                   33  6.0    0.000    0.000  122.088  122.088
 calculate_rho_elec                  33  7.0   44.221   44.221  122.088  122.088
 fft3d_s                            363 12.8   77.149   77.149   77.166   77.166
 density_rs2pw                       33  8.0    0.003    0.003   76.636   76.636
 cp_fm_cholesky_restore              96  8.0   70.251   70.251   70.251   70.251
 pw_scatter_s                       196 13.1   49.690   49.690   49.690   49.690
 sum_up_and_integrate                33  8.9    2.436    2.436   45.305   45.305
 pw_poisson_solve                    33  8.9   40.769   40.769   45.182   45.182
 integrate_v_rspace                  33  9.9    2.320    2.320   42.868   42.868
 potential_pw2rs                     33 10.9    0.319    0.319   40.423   40.423
 qs_vxc_create                       33  8.9    0.001    0.001   22.392   22.392
 xc_vxc_pw_create                    33  9.9    5.031    5.031   22.391   22.391
 xc_rho_set_and_dset_create          33 10.9    0.001    0.001   17.361   17.361
 -------------------------------------------------------------------------------

 The number of warnings for this run is : 0
 
 -------------------------------------------------------------------------------
  **** **** ******  **  PROGRAM ENDED AT                 2020-05-21 20:28:51.940
 ***** ** ***  *** **   PROGRAM RAN ON                                   gnode39
 **    ****   ******    PROGRAM RAN BY                               mayank.modi
 ***** **    ** ** **   PROGRAM PROCESS ID                                  6625
  **** **  *******  **  PROGRAM STOPPED IN /home/mayank.modi/ab-initio-thermodyn
                                           amics-of-water/mayank/cp2k_energy_cal
                                           culations
