 DBCSR| CPU Multiplication driver                                           XSMM
 DBCSR| Multrec recursion limit                                              512
 DBCSR| Multiplication stack size                                           1000
 DBCSR| Maximum elements for images                                    UNLIMITED
 DBCSR| Multiplicative factor virtual images                                   1
 DBCSR| Use multiplication densification                                       T
 DBCSR| Multiplication size stacks                                             3


  **** **** ******  **  PROGRAM STARTED AT               2020-05-20 17:21:01.280
 ***** ** ***  *** **   PROGRAM STARTED ON                               gnode39
 **    ****   ******    PROGRAM STARTED BY                           mayank.modi
 ***** **    ** ** **   PROGRAM PROCESS ID                                 14969
  **** **  *******  **  PROGRAM STARTED IN /home/mayank.modi/ab-initio-thermodyn
                                           amics-of-water/mayank/cp2k_energy_cal
                                           culations

 CP2K| version string:                                          CP2K version 7.1
 CP2K| source code revision number:                                  git:e635599
 CP2K| cp2kflags: omp libint fftw3 libxc xsmm spglib                            
 CP2K| is freely available from                            https://www.cp2k.org/
 CP2K| Program compiled at                          Mon Dec 23 19:23:12 CET 2019
 CP2K| Program compiled on                                                pc9404
 CP2K| Program compiled for                                Linux-x86-64-gfortran
 CP2K| Data directory path                                        /opt/cp2k/data
 CP2K| Input file name                                               ./input2.in

 GLOBAL| Force Environment number                                              1
 GLOBAL| Basis set file name                                           BASIS_SET
 GLOBAL| Potential file name                                      GTH_POTENTIALS
 GLOBAL| MM Potential file name                                     MM_POTENTIAL
 GLOBAL| Coordinate file name                                      __STD_INPUT__
 GLOBAL| Method name                                                        CP2K
 GLOBAL| Project name                                                   H2O_bulk
 GLOBAL| Preferred FFT library                                             FFTW3
 GLOBAL| Preferred diagonalization lib.                                       SL
 GLOBAL| Run type                                                   ENERGY_FORCE
 GLOBAL| All-to-all communication in single precision                          F
 GLOBAL| FFTs using library dependent lengths                                  F
 GLOBAL| Global print level                                                  LOW
 GLOBAL| MPI I/O enabled                                                       T
 GLOBAL| Total number of message passing processes                             1
 GLOBAL| Number of threads for this process                                   20
 GLOBAL| This output is from process                                           0
 GLOBAL| CPU model name                Intel(R) Xeon(R) CPU E5-2640 v4 @ 2.40GHz
 GLOBAL| CPUID                                                              1002
 GLOBAL| Compiled for CPUID                                                    0

 MEMORY| system memory details [Kb]
 MEMORY|                        rank 0           min           max       average
 MEMORY| MemTotal            131898148     131898148     131898148     131898148
 MEMORY| MemFree              92821460      92821460      92821460      92821460
 MEMORY| Buffers               3186884       3186884       3186884       3186884
 MEMORY| Cached               30340052      30340052      30340052      30340052
 MEMORY| Slab                  3969432       3969432       3969432       3969432
 MEMORY| SReclaimable          3265332       3265332       3265332       3265332
 MEMORY| MemLikelyFree       129613728     129613728     129613728     129613728


 GENERATE|  Preliminary Number of Bonds generated:                             0
 GENERATE|  Achieved consistency in connectivity generation.

 *******************************************************************************
 *******************************************************************************
 **                                                                           **
 **     #####                         ##              ##                      **
 **    ##   ##            ##          ##              ##                      **
 **   ##     ##                       ##            ######                    **
 **   ##     ##  ##   ##  ##   #####  ##  ##   ####   ##    #####    #####    **
 **   ##     ##  ##   ##  ##  ##      ## ##   ##      ##   ##   ##  ##   ##   **
 **   ##  ## ##  ##   ##  ##  ##      ####     ###    ##   ######   ######    **
 **    ##  ###   ##   ##  ##  ##      ## ##      ##   ##   ##       ##        **
 **     #######   #####   ##   #####  ##  ##  ####    ##    #####   ##        **
 **           ##                                                    ##        **
 **                                                                           **
 **                                                ... make the atoms dance   **
 **                                                                           **
 **            Copyright (C) by CP2K developers group (2000 - 2019)           **
 **                                                                           **
 *******************************************************************************


 TOTAL NUMBERS AND MAXIMUM NUMBERS

  Total number of            - Atomic kinds:                                   2
                             - Atoms:                                        192
                             - Shell sets:                                   384
                             - Shells:                                       704
                             - Primitive Cartesian functions:                960
                             - Cartesian basis functions:                   1536
                             - Spherical basis functions:                   1472

  Maximum angular momentum of- Orbital basis functions:                        2
                             - Local part of the GTH pseudopotential:          2
                             - Non-local part of the GTH pseudopotential:      0


 SCF PARAMETERS         Density guess:                                    ATOMIC
                        --------------------------------------------------------
                        max_scf:                                             300
                        max_scf_history:                                       0
                        max_diis:                                              4
                        --------------------------------------------------------
                        eps_scf:                                        1.00E-07
                        eps_scf_history:                                0.00E+00
                        eps_diis:                                       1.00E-01
                        eps_eigval:                                     1.00E-05
                        --------------------------------------------------------
                        level_shift [a.u.]:                                 0.00
                        --------------------------------------------------------
                        Mixing method:                            BROYDEN_MIXING
                                                charge density mixing in g-space
                        --------------------------------------------------------
                        No outer SCF

 Number of electrons:                                                        512
 Number of occupied orbitals:                                                256
 Number of molecular orbitals:                                               256

 Number of orbital functions:                                               1472
 Number of independent orbital functions:                                   1472

 Extrapolation method: initial_guess


 SCF WAVEFUNCTION OPTIMIZATION

  Step     Update method      Time    Convergence         Total energy    Change
  ------------------------------------------------------------------------------
     1 NoMix/Diag. 0.40E+00   10.6     0.98083850     -1088.9458930904 -1.09E+03
     2 Broy./Diag. 0.40E+00   15.7     0.29416991     -1019.1290636270  6.98E+01
     3 Broy./Diag. 0.40E+00   17.1     0.03059068     -1094.8600531013 -7.57E+01
     4 Broy./Diag. 0.40E+00   17.3     0.02814616     -1095.2715320976 -4.11E-01
     5 Broy./Diag. 0.40E+00   16.8     0.00424784     -1096.1876039414 -9.16E-01
     6 Broy./Diag. 0.40E+00   18.4     0.01008657     -1096.0850548369  1.03E-01
     7 Broy./Diag. 0.40E+00   20.5     0.00579565     -1096.2116960940 -1.27E-01
     8 Broy./Diag. 0.40E+00   21.5     0.00655890     -1096.3269456038 -1.15E-01
     9 Broy./Diag. 0.40E+00   23.6     0.00418443     -1096.3899118538 -6.30E-02
    10 Broy./Diag. 0.40E+00   24.4     0.00251060     -1096.3888511879  1.06E-03
    11 Broy./Diag. 0.40E+00   23.6     0.00185322     -1096.3647381839  2.41E-02
    12 Broy./Diag. 0.40E+00   23.9     0.00096147     -1096.3767375042 -1.20E-02
    13 Broy./Diag. 0.40E+00   24.1     0.00086290     -1096.4018551226 -2.51E-02
    14 Broy./Diag. 0.40E+00   24.3     0.00023848     -1096.4076506201 -5.80E-03
    15 Broy./Diag. 0.40E+00   24.4     0.00022416     -1096.3983029174  9.35E-03
    16 Broy./Diag. 0.40E+00   24.0     0.00009859     -1096.3970701317  1.23E-03
    17 Broy./Diag. 0.40E+00   25.1     0.00008187     -1096.3982624965 -1.19E-03
    18 Broy./Diag. 0.40E+00   24.5     0.00005215     -1096.3971864814  1.08E-03
    19 Broy./Diag. 0.40E+00   23.6     0.00002221     -1096.3975779933 -3.92E-04
    20 Broy./Diag. 0.40E+00   24.5     0.00002284     -1096.3973833437  1.95E-04
    21 Broy./Diag. 0.40E+00   24.4     0.00001839     -1096.3977025600 -3.19E-04
    22 Broy./Diag. 0.40E+00   24.0     0.00001580     -1096.3979470619 -2.45E-04
    23 Broy./Diag. 0.40E+00   24.4     0.00001304     -1096.3978646935  8.24E-05
    24 Broy./Diag. 0.40E+00   23.9     0.00000847     -1096.3977575407  1.07E-04
    25 Broy./Diag. 0.40E+00   24.0     0.00000642     -1096.3977130798  4.45E-05
    26 Broy./Diag. 0.40E+00   24.0     0.00000227     -1096.3976903479  2.27E-05
    27 Broy./Diag. 0.40E+00   25.7     0.00000130     -1096.3976818413  8.51E-06
    28 Broy./Diag. 0.40E+00   24.3     0.00000156     -1096.3976646559  1.72E-05
    29 Broy./Diag. 0.40E+00   23.8     0.00000069     -1096.3976799466 -1.53E-05
    30 Broy./Diag. 0.40E+00   23.7     0.00000077     -1096.3976839976 -4.05E-06
    31 Broy./Diag. 0.40E+00   24.3     0.00000028     -1096.3976886550 -4.66E-06
    32 Broy./Diag. 0.40E+00   23.8     0.00000038     -1096.3976861179  2.54E-06
    33 Broy./Diag. 0.40E+00   23.8     0.00000019     -1096.3976894979 -3.38E-06
    34 Broy./Diag. 0.40E+00   24.6     0.00000015     -1096.3976920473 -2.55E-06
    35 Broy./Diag. 0.40E+00   23.8     0.00000009     -1096.3976928554 -8.08E-07

  *** SCF run converged in    35 steps ***


  Electronic density on regular grids:       -512.0004469332       -0.0004469332
  Core density on regular grids:              512.0000846213        0.0000846213
  Total charge density on r-space grids:       -0.0003623119
  Total charge density g-space grids:          -0.0003623119

  Overlap energy of the core charge distribution:               0.00000231143748
  Self energy of the core charge distribution:              -2838.21791979120962
  Core Hamiltonian energy:                                    820.56849946236764
  Hartree energy:                                            1186.10443884168558
  Exchange-correlation energy:                               -264.85271367963463

  Total energy:                                             -1096.39769285535363

 ENERGY| Total FORCE_EVAL ( QS ) energy (a.u.):            -1096.397692606755299


 ATOMIC FORCES in [a.u.]

 # Atom   Kind   Element          X              Y              Z
      1      1      O           0.02164133    -0.05451651    -0.11988593
      2      2      H          -0.00638268     0.02497206     0.00206288
      3      2      H           0.00743982    -0.03459987     0.01423269
      4      1      O           0.08077268     0.07261033    -0.05726336
      5      2      H          -0.03956693     0.03893684    -0.01272176
      6      2      H           0.00757400    -0.00648970    -0.02350814
      7      1      O          -0.01842866    -0.01503671     0.11433215
      8      2      H           0.00832168    -0.03160342     0.02435749
      9      2      H           0.00549355     0.01636488    -0.01236418
     10      1      O           0.02086018     0.06588471    -0.07925839
     11      2      H           0.00226878     0.00686117     0.00924461
     12      2      H          -0.00334597    -0.00078263    -0.04416952
     13      1      O           0.00240614     0.07600333    -0.12414405
     14      2      H           0.01131638    -0.02332093    -0.01319734
     15      2      H          -0.00669678    -0.01492824     0.01069189
     16      1      O          -0.02683469     0.07310505     0.10694906
     17      2      H           0.00861056    -0.03429654     0.00200850
     18      2      H          -0.00029845     0.01667167    -0.04842437
     19      1      O           0.01730618    -0.03553023    -0.02303110
     20      2      H          -0.01147074     0.01614002     0.02727047
     21      2      H           0.01817343    -0.02530053    -0.04266428
     22      1      O          -0.04070303    -0.08085272     0.02042332
     23      2      H          -0.00897220     0.05201154     0.00899564
     24      2      H           0.02227847     0.01537947     0.01281050
     25      1      O          -0.03965589    -0.03522992     0.02092508
     26      2      H           0.02583943    -0.01794142    -0.02343883
     27      2      H          -0.00352826    -0.05645233     0.02469907
     28      1      O           0.00351807    -0.02221999     0.11242844
     29      2      H           0.00738576     0.02199412    -0.06440496
     30      2      H           0.00446612    -0.03550730     0.01953783
     31      1      O           0.02227147    -0.06370564     0.06780694
     32      2      H           0.00558794     0.02084675    -0.03303565
     33      2      H          -0.01556962    -0.01771898     0.00345011
     34      1      O           0.02538781    -0.04441487     0.03037871
     35      2      H          -0.03191840     0.02921658    -0.01793859
     36      2      H          -0.02646790    -0.01768370     0.05466072
     37      1      O           0.02326126    -0.07360552     0.04128718
     38      2      H           0.00041505    -0.01849381     0.00274476
     39      2      H          -0.02272909    -0.00510016     0.02299175
     40      1      O           0.04112730     0.03901137    -0.10762724
     41      2      H          -0.01837343    -0.01286223     0.01762562
     42      2      H          -0.01345061    -0.01373236     0.02054788
     43      1      O           0.03161824    -0.06822140     0.00731982
     44      2      H          -0.00859524    -0.02898515    -0.00223055
     45      2      H          -0.00315392    -0.00676645     0.00529880
     46      1      O          -0.01838299     0.09174421     0.13368016
     47      2      H           0.02540680     0.00299885     0.00942622
     48      2      H           0.02565125    -0.04173515    -0.00967322
     49      1      O          -0.01022389     0.08410258     0.02370018
     50      2      H          -0.00426380    -0.00288113     0.00471978
     51      2      H           0.00287972    -0.03194252     0.02039010
     52      1      O          -0.00528337    -0.06838182     0.03531694
     53      2      H           0.02622215     0.03390792     0.00352550
     54      2      H           0.01076112     0.02645670     0.04650377
     55      1      O           0.03536700     0.04160820     0.02746627
     56      2      H           0.01160712     0.04514409     0.01650528
     57      2      H          -0.00418720     0.00702073     0.04199302
     58      1      O           0.02439486    -0.05675365    -0.05813632
     59      2      H          -0.00385998    -0.00128673     0.01609494
     60      2      H          -0.00293031     0.03139254     0.02049881
     61      1      O           0.01135198    -0.07812119    -0.10118452
     62      2      H          -0.01694144     0.01940823    -0.03578870
     63      2      H          -0.02707925    -0.00242479     0.01458932
     64      1      O          -0.02752927    -0.07545475    -0.01707189
     65      2      H          -0.01311034    -0.02628212    -0.04241994
     66      2      H          -0.01576145     0.03222403     0.01849392
     67      1      O          -0.03514074     0.03472401    -0.10323763
     68      2      H           0.01560689     0.05045432     0.01402728
     69      2      H          -0.00347181    -0.00292968    -0.03547008
     70      1      O          -0.00492296     0.04467444    -0.09400692
     71      2      H          -0.01218226    -0.02572038    -0.00294097
     72      2      H          -0.00434003     0.04454985     0.00652831
     73      1      O          -0.02518426    -0.02336715     0.11205842
     74      2      H           0.00819484    -0.05755334     0.03126836
     75      2      H           0.02721739    -0.01286425    -0.06398811
     76      1      O          -0.00137655     0.05140134     0.10878725
     77      2      H           0.01076788    -0.00038432    -0.00006963
     78      2      H           0.00555643     0.00957402     0.01315737
     79      1      O          -0.03738443    -0.00529911     0.10531575
     80      2      H          -0.01132881     0.02003782    -0.00050170
     81      2      H           0.02661776     0.01264003    -0.04043805
     82      1      O          -0.01801992    -0.02722052     0.08110188
     83      2      H          -0.00866748    -0.04456555     0.03538344
     84      2      H           0.02290396     0.02381120     0.03567214
     85      1      O          -0.03178140    -0.07813223     0.07385082
     86      2      H           0.01291306    -0.01577228    -0.01569207
     87      2      H           0.00466654    -0.02017579     0.05112312
     88      1      O          -0.01809165     0.03283889     0.11387627
     89      2      H           0.03764883     0.01859324    -0.01245699
     90      2      H          -0.02426278     0.03820233    -0.06478859
     91      1      O           0.03149856    -0.00704597    -0.10727075
     92      2      H           0.00738451     0.06622106     0.00135752
     93      2      H          -0.01970974    -0.03302562    -0.01216027
     94      1      O           0.01464054     0.02532987    -0.11360047
     95      2      H           0.01486325    -0.03132184     0.07624665
     96      2      H          -0.01662172     0.01537939     0.01562196
     97      1      O          -0.04910357    -0.07182537    -0.11430458
     98      2      H           0.01027087     0.02051100     0.03452568
     99      2      H           0.01693463     0.01635701     0.04924262
    100      1      O           0.03605483    -0.00961763    -0.01472143
    101      2      H           0.01196840     0.02343912     0.02724094
    102      2      H          -0.01028324     0.00718639     0.02248347
    103      1      O           0.00285587    -0.09742541    -0.03095271
    104      2      H           0.02025531     0.01742140    -0.03746166
    105      2      H           0.01411920     0.05213265    -0.02937118
    106      1      O           0.02054580     0.04936042     0.03086477
    107      2      H          -0.00561618     0.01146824     0.00473408
    108      2      H          -0.00667774    -0.04300492    -0.01020359
    109      1      O           0.02473354    -0.02048959     0.10991155
    110      2      H          -0.00585740     0.02069393     0.00318321
    111      2      H          -0.00589126    -0.04792055    -0.03548418
    112      1      O          -0.04237465    -0.05335595    -0.02963959
    113      2      H          -0.00642505    -0.03085985     0.04383139
    114      2      H           0.02412364     0.01793912     0.04130220
    115      1      O           0.01549808     0.04152220    -0.07571402
    116      2      H           0.01850334    -0.02563601     0.00303510
    117      2      H           0.01253784    -0.00917650    -0.01359588
    118      1      O          -0.03981587    -0.02815223     0.09390808
    119      2      H          -0.00899527    -0.01524699     0.00859267
    120      2      H          -0.00344311    -0.03043346    -0.00854920
    121      1      O           0.06212410    -0.01001606     0.05922832
    122      2      H           0.00752767    -0.01503287    -0.03394421
    123      2      H          -0.02947593     0.01110346    -0.00480686
    124      1      O           0.00174889    -0.07313685    -0.11754960
    125      2      H          -0.03471000    -0.01463438     0.03231672
    126      2      H           0.00314103     0.02550409    -0.03067143
    127      1      O          -0.01667982     0.03363095     0.05282301
    128      2      H          -0.01519906     0.05589575     0.00285261
    129      2      H          -0.02148050    -0.02822750     0.00771209
    130      1      O           0.00115904    -0.08447958    -0.03405523
    131      2      H           0.03229418     0.03741645    -0.02140014
    132      2      H          -0.02010233     0.03508248    -0.00512101
    133      1      O          -0.03731268     0.09180717     0.12797230
    134      2      H           0.01582016    -0.02563201     0.02194457
    135      2      H           0.01295112     0.00505995     0.02935731
    136      1      O          -0.02897584     0.06664229     0.02471110
    137      2      H           0.02582095     0.03348539    -0.03500429
    138      2      H           0.00915680    -0.02268679    -0.00903320
    139      1      O           0.00003630    -0.06932065    -0.07426694
    140      2      H          -0.03006176     0.02547097     0.01038065
    141      2      H          -0.01964584    -0.03432234     0.00208738
    142      1      O          -0.02466406     0.04650978    -0.05442328
    143      2      H           0.01411295     0.02298662     0.03545347
    144      2      H           0.00887544    -0.03375632     0.01922426
    145      1      O          -0.03738187     0.03168321     0.10000853
    146      2      H           0.02154904    -0.00758023    -0.02727610
    147      2      H           0.00240769    -0.03011159     0.03017166
    148      1      O          -0.00663912     0.03241468    -0.09044160
    149      2      H           0.00442336     0.01964152    -0.02087706
    150      2      H          -0.00906085    -0.03121537    -0.01517374
    151      1      O          -0.04795929     0.05540762     0.08949493
    152      2      H           0.00327687    -0.02146563     0.02064950
    153      2      H           0.06257890     0.01130859     0.00456377
    154      1      O           0.03450381     0.01255976    -0.09726499
    155      2      H           0.00420030     0.02364124     0.01485645
    156      2      H          -0.00489185     0.00332195    -0.03554809
    157      1      O           0.00035126     0.07022539     0.07619899
    158      2      H          -0.00194291     0.03036939    -0.00093357
    159      2      H          -0.01676438     0.03637827     0.03063703
    160      1      O           0.03221761     0.04610249    -0.05072396
    161      2      H           0.00688635    -0.01286135     0.00722882
    162      2      H          -0.00957418    -0.00682686    -0.01155150
    163      1      O          -0.00597519     0.08890056    -0.03126740
    164      2      H           0.02450455    -0.03568289     0.05998979
    165      2      H          -0.00919451     0.02469466     0.03735103
    166      1      O          -0.02768908    -0.07511031     0.12711008
    167      2      H          -0.00475962     0.03253432     0.02901552
    168      2      H           0.01085098    -0.01980190     0.00325931
    169      1      O           0.02874926     0.05625719     0.12657777
    170      2      H          -0.01608561     0.03019145     0.03021762
    171      2      H           0.01786523     0.01225298    -0.04952216
    172      1      O           0.03407759     0.07079952    -0.09583203
    173      2      H           0.00396142    -0.01020779    -0.03937201
    174      2      H          -0.01286293     0.00494454    -0.02001524
    175      1      O          -0.02056263    -0.02791152     0.08207485
    176      2      H          -0.01657047    -0.01238272    -0.05391834
    177      2      H           0.00751846    -0.01069834    -0.02467699
    178      1      O           0.00615848    -0.00000392     0.01525464
    179      2      H          -0.01731064    -0.01950570    -0.04556591
    180      2      H           0.03605651    -0.00115509     0.01503542
    181      1      O          -0.02913349    -0.01282739    -0.04395446
    182      2      H           0.00653692    -0.03416472    -0.02613827
    183      2      H           0.00039522     0.01406178    -0.02551571
    184      1      O           0.00649151    -0.10339674     0.08993783
    185      2      H          -0.02819450     0.02808153    -0.04352792
    186      2      H           0.01009751     0.02952331    -0.03516727
    187      1      O           0.00913840     0.04001742     0.13205651
    188      2      H          -0.03259221     0.00714007    -0.07018443
    189      2      H           0.01205068     0.01219246     0.03627504
    190      1      O          -0.03581818     0.00656169    -0.06052879
    191      2      H           0.00365475     0.00360821    -0.02334391
    192      2      H           0.01224413     0.01210646     0.02745318
 SUM OF ATOMIC FORCES           0.04344390     0.07215788     0.55889981     0.56521069

 -------------------------------------------------------------------------------
 -                                                                             -
 -                                DBCSR STATISTICS                             -
 -                                                                             -
 -------------------------------------------------------------------------------
 COUNTER                                    TOTAL       BLAS       SMM       ACC
 flops     5 x     5 x   256           1419724800       0.0%    100.0%      0.0%
 flops    13 x     5 x   256           1771960320       0.0%    100.0%      0.0%
 flops     5 x    13 x   256           1774356480       0.0%    100.0%      0.0%
 flops    13 x    13 x   256           2560536576       0.0%    100.0%      0.0%
 flops inhomo. stacks                           0       0.0%      0.0%      0.0%
 flops total                         7.526578E+09       0.0%    100.0%      0.0%
 flops max/rank                      7.526578E+09       0.0%    100.0%      0.0%
 matmuls inhomo. stacks                         0       0.0%      0.0%      0.0%
 matmuls total                             247068       0.0%    100.0%      0.0%
 number of processed stacks                  2808       0.0%    100.0%      0.0%
 average stack size                                     0.0      88.0       0.0
 marketing flops                    39.938163E+09
 -------------------------------------------------------------------------------
 # multiplications                             36
 max memory usage/rank              25.816969E+09
 # max total images/rank                        1
 # max 3D layers                                1
 # MPI messages exchanged                       0
 MPI messages size (bytes):
  total size                         0.000000E+00
  min size                           0.000000E+00
  max size                           0.000000E+00
  average size                       0.000000E+00
 MPI breakdown and total messages size (bytes):
             size <=      128                   0                        0
       128 < size <=     8192                   0                        0
      8192 < size <=    32768                   0                        0
     32768 < size <=   131072                   0                        0
    131072 < size <=  4194304                   0                        0
   4194304 < size <= 16777216                   0                        0
  16777216 < size                               0                        0
 -------------------------------------------------------------------------------

 MEMORY| Estimated peak process memory [MiB]                               24623

 -------------------------------------------------------------------------------
 -                                                                             -
 -                           R E F E R E N C E S                               -
 -                                                                             -
 -------------------------------------------------------------------------------
 
 CP2K version 7.1, the CP2K developers group (2019).
 CP2K is freely available from https://www.cp2k.org/ .

 Schuett, Ole; Messmer, Peter; Hutter, Juerg; VandeVondele, Joost. 
 Electronic Structure Calculations on Graphics Processing Units, John
 Wiley & Sons, Ltd, 173-190 (2016). 
 GPU-Accelerated Sparse Matrix-Matrix Multiplication for
 Linear Scaling Density Functional Theory.
 https://dx.doi.org/10.1002/9781118670712.ch8

 Borstnik, U; VandeVondele, J; Weber, V; Hutter, J. 
 PARALLEL COMPUTING, 40 (5-6), 47-58 (2014). 
 Sparse matrix multiplication: The distributed block-compressed sparse
 row library.
 https://dx.doi.org/10.1016/j.parco.2014.03.012

 Hutter, J; Iannuzzi, M; Schiffmann, F; VandeVondele, J. 
 WIREs Comput Mol Sci., 4 (1), 15-25 (2014). 
 CP2K: atomistic simulations of condensed matter systems.
 https://dx.doi.org/10.1002/wcms.1159

 Krack, M. 
 THEORETICAL CHEMISTRY ACCOUNTS, 114 (1-3), 145-152 (2005). 
 Pseudopotentials for H to Kr optimized for gradient-corrected
 exchange-correlation functionals.
 https://dx.doi.org/10.1007/s00214-005-0655-y

 VandeVondele, J; Krack, M; Mohamed, F; Parrinello, M; Chassaing, T;
 Hutter, J. COMPUTER PHYSICS COMMUNICATIONS, 167 (2), 103-128 (2005). 
 QUICKSTEP: Fast and accurate density functional calculations using a
 mixed Gaussian and plane waves approach.
 https://dx.doi.org/10.1016/j.cpc.2004.12.014

 Frigo, M; Johnson, SG. 
 PROCEEDINGS OF THE IEEE, 93 (2), 216-231 (2005). 
 The design and implementation of FFTW3.
 https://dx.doi.org/10.1109/JPROC.2004.840301

 Hartwigsen, C; Goedecker, S; Hutter, J. 
 PHYSICAL REVIEW B, 58 (7), 3641-3662 (1998). 
 Relativistic separable dual-space Gaussian pseudopotentials from H to Rn.
 https://dx.doi.org/10.1103/PhysRevB.58.3641

 Lippert, G; Hutter, J; Parrinello, M. 
 MOLECULAR PHYSICS, 92 (3), 477-487 (1997). 
 A hybrid Gaussian and plane wave density functional scheme.
 https://dx.doi.org/10.1080/002689797170220

 Goedecker, S; Teter, M; Hutter, J. 
 PHYSICAL REVIEW B, 54 (3), 1703-1710 (1996). 
 Separable dual-space Gaussian pseudopotentials.
 https://dx.doi.org/10.1103/PhysRevB.54.1703


 -------------------------------------------------------------------------------
 -                                                                             -
 -                                T I M I N G                                  -
 -                                                                             -
 -------------------------------------------------------------------------------
 SUBROUTINE                       CALLS  ASD         SELF TIME        TOTAL TIME
                                MAXIMUM       AVERAGE  MAXIMUM  AVERAGE  MAXIMUM
 CP2K                                 1  1.0    0.640    0.640  820.521  820.521
 qs_forces                            1  2.0    0.000    0.000  809.549  809.549
 qs_energies                          1  3.0    0.000    0.000  805.492  805.492
 scf_env_do_scf                       1  4.0    0.000    0.000  794.020  794.020
 scf_env_do_scf_inner_loop           35  5.0    0.005    0.005  794.020  794.020
 gspace_mixing                       34  6.0    4.783    4.783  317.539  317.539
 broyden_mixing                      34  7.0  284.134  284.134  284.134  284.134
 qs_scf_new_mos                      35  6.0    0.001    0.001  227.005  227.005
 eigensolver                         35  7.0    0.004    0.004  223.012  223.012
 cp_fm_syevd                         35  8.0  150.781  150.781  150.933  150.933
 pw_transfer                        467  9.9    0.044    0.044  147.761  147.761
 fft_wrap_pw1pw2                    395 10.9    0.006    0.006  144.492  144.492
 rebuild_ks_matrix                   36  6.9    0.000    0.000  144.116  144.116
 qs_ks_build_kohn_sham_matrix        36  7.9    0.010    0.010  144.115  144.115
 qs_ks_update_qs_env                 35  6.0    0.000    0.000  140.356  140.356
 fft_wrap_pw1pw2_70                 179 11.2   11.111   11.111  132.481  132.481
 qs_rho_update_rho                   36  6.0    0.000    0.000  111.986  111.986
 calculate_rho_elec                  36  7.0   39.642   39.642  111.986  111.986
 cp_fm_cholesky_restore             105  8.0   71.951   71.951   71.951   71.951
 density_rs2pw                       36  8.0    0.003    0.003   71.321   71.321
 fft3d_s                            396 12.9   70.630   70.630   70.638   70.638
 pw_scatter_s                       214 13.1   48.215   48.215   48.215   48.215
 pw_poisson_solve                    36  8.9   41.597   41.597   45.119   45.119
 sum_up_and_integrate                36  8.9    2.372    2.372   42.487   42.487
 integrate_v_rspace                  36  9.9    3.617    3.617   40.115   40.115
 potential_pw2rs                     36 10.9    0.314    0.314   36.447   36.447
 qs_vxc_create                       36  8.9    0.001    0.001   21.766   21.766
 xc_vxc_pw_create                    36  9.9    5.049    5.049   21.765   21.765
 xc_rho_set_and_dset_create          36 10.9    0.002    0.002   16.716   16.716
 -------------------------------------------------------------------------------

 The number of warnings for this run is : 0
 
 -------------------------------------------------------------------------------
  **** **** ******  **  PROGRAM ENDED AT                 2020-05-20 17:34:41.872
 ***** ** ***  *** **   PROGRAM RAN ON                                   gnode39
 **    ****   ******    PROGRAM RAN BY                               mayank.modi
 ***** **    ** ** **   PROGRAM PROCESS ID                                 14969
  **** **  *******  **  PROGRAM STOPPED IN /home/mayank.modi/ab-initio-thermodyn
                                           amics-of-water/mayank/cp2k_energy_cal
                                           culations
