 DBCSR| CPU Multiplication driver                                           XSMM
 DBCSR| Multrec recursion limit                                              512
 DBCSR| Multiplication stack size                                           1000
 DBCSR| Maximum elements for images                                    UNLIMITED
 DBCSR| Multiplicative factor virtual images                                   1
 DBCSR| Use multiplication densification                                       T
 DBCSR| Multiplication size stacks                                             3


  **** **** ******  **  PROGRAM STARTED AT               2020-05-22 03:09:28.996
 ***** ** ***  *** **   PROGRAM STARTED ON                               gnode39
 **    ****   ******    PROGRAM STARTED BY                           mayank.modi
 ***** **    ** ** **   PROGRAM PROCESS ID                                 34546
  **** **  *******  **  PROGRAM STARTED IN /home/mayank.modi/ab-initio-thermodyn
                                           amics-of-water/mayank/cp2k_energy_cal
                                           culations

 CP2K| version string:                                          CP2K version 7.1
 CP2K| source code revision number:                                  git:e635599
 CP2K| cp2kflags: omp libint fftw3 libxc xsmm spglib                            
 CP2K| is freely available from                            https://www.cp2k.org/
 CP2K| Program compiled at                          Mon Dec 23 19:23:12 CET 2019
 CP2K| Program compiled on                                                pc9404
 CP2K| Program compiled for                                Linux-x86-64-gfortran
 CP2K| Data directory path                                        /opt/cp2k/data
 CP2K| Input file name                                             ./input154.in

 GLOBAL| Force Environment number                                              1
 GLOBAL| Basis set file name                                           BASIS_SET
 GLOBAL| Potential file name                                      GTH_POTENTIALS
 GLOBAL| MM Potential file name                                     MM_POTENTIAL
 GLOBAL| Coordinate file name                                      __STD_INPUT__
 GLOBAL| Method name                                                        CP2K
 GLOBAL| Project name                                                   H2O_bulk
 GLOBAL| Preferred FFT library                                             FFTW3
 GLOBAL| Preferred diagonalization lib.                                       SL
 GLOBAL| Run type                                                   ENERGY_FORCE
 GLOBAL| All-to-all communication in single precision                          F
 GLOBAL| FFTs using library dependent lengths                                  F
 GLOBAL| Global print level                                                  LOW
 GLOBAL| MPI I/O enabled                                                       T
 GLOBAL| Total number of message passing processes                             1
 GLOBAL| Number of threads for this process                                   20
 GLOBAL| This output is from process                                           0
 GLOBAL| CPU model name                Intel(R) Xeon(R) CPU E5-2640 v4 @ 2.40GHz
 GLOBAL| CPUID                                                              1002
 GLOBAL| Compiled for CPUID                                                    0

 MEMORY| system memory details [Kb]
 MEMORY|                        rank 0           min           max       average
 MEMORY| MemTotal            131898148     131898148     131898148     131898148
 MEMORY| MemFree              65522688      65522688      65522688      65522688
 MEMORY| Buffers               3188824       3188824       3188824       3188824
 MEMORY| Cached               34547580      34547580      34547580      34547580
 MEMORY| Slab                  4011292       4011292       4011292       4011292
 MEMORY| SReclaimable          3296108       3296108       3296108       3296108
 MEMORY| MemLikelyFree       106555200     106555200     106555200     106555200


 GENERATE|  Preliminary Number of Bonds generated:                             0
 GENERATE|  Achieved consistency in connectivity generation.

 *******************************************************************************
 *******************************************************************************
 **                                                                           **
 **     #####                         ##              ##                      **
 **    ##   ##            ##          ##              ##                      **
 **   ##     ##                       ##            ######                    **
 **   ##     ##  ##   ##  ##   #####  ##  ##   ####   ##    #####    #####    **
 **   ##     ##  ##   ##  ##  ##      ## ##   ##      ##   ##   ##  ##   ##   **
 **   ##  ## ##  ##   ##  ##  ##      ####     ###    ##   ######   ######    **
 **    ##  ###   ##   ##  ##  ##      ## ##      ##   ##   ##       ##        **
 **     #######   #####   ##   #####  ##  ##  ####    ##    #####   ##        **
 **           ##                                                    ##        **
 **                                                                           **
 **                                                ... make the atoms dance   **
 **                                                                           **
 **            Copyright (C) by CP2K developers group (2000 - 2019)           **
 **                                                                           **
 *******************************************************************************


 TOTAL NUMBERS AND MAXIMUM NUMBERS

  Total number of            - Atomic kinds:                                   2
                             - Atoms:                                        192
                             - Shell sets:                                   384
                             - Shells:                                       704
                             - Primitive Cartesian functions:                960
                             - Cartesian basis functions:                   1536
                             - Spherical basis functions:                   1472

  Maximum angular momentum of- Orbital basis functions:                        2
                             - Local part of the GTH pseudopotential:          2
                             - Non-local part of the GTH pseudopotential:      0


 SCF PARAMETERS         Density guess:                                    ATOMIC
                        --------------------------------------------------------
                        max_scf:                                             300
                        max_scf_history:                                       0
                        max_diis:                                              4
                        --------------------------------------------------------
                        eps_scf:                                        1.00E-07
                        eps_scf_history:                                0.00E+00
                        eps_diis:                                       1.00E-01
                        eps_eigval:                                     1.00E-05
                        --------------------------------------------------------
                        level_shift [a.u.]:                                 0.00
                        --------------------------------------------------------
                        Mixing method:                            BROYDEN_MIXING
                                                charge density mixing in g-space
                        --------------------------------------------------------
                        No outer SCF

 Number of electrons:                                                        512
 Number of occupied orbitals:                                                256
 Number of molecular orbitals:                                               256

 Number of orbital functions:                                               1472
 Number of independent orbital functions:                                   1472

 Extrapolation method: initial_guess


 SCF WAVEFUNCTION OPTIMIZATION

  Step     Update method      Time    Convergence         Total energy    Change
  ------------------------------------------------------------------------------
     1 NoMix/Diag. 0.40E+00   11.3     0.99508635     -1087.4549962629 -1.09E+03
     2 Broy./Diag. 0.40E+00   17.2     0.29135603     -1013.0594719500  7.44E+01
     3 Broy./Diag. 0.40E+00   18.0     0.02441995     -1094.3453078162 -8.13E+01
     4 Broy./Diag. 0.40E+00   18.4     0.02917713     -1094.2422161005  1.03E-01
     5 Broy./Diag. 0.40E+00   19.9     0.00254069     -1095.1849144563 -9.43E-01
     6 Broy./Diag. 0.40E+00   21.2     0.00335353     -1095.2330691261 -4.82E-02
     7 Broy./Diag. 0.40E+00   21.5     0.00223385     -1095.3897565441 -1.57E-01
     8 Broy./Diag. 0.40E+00   23.4     0.00327249     -1095.5230948565 -1.33E-01
     9 Broy./Diag. 0.40E+00   23.4     0.00353521     -1095.5849233441 -6.18E-02
    10 Broy./Diag. 0.40E+00   26.1     0.00157150     -1095.6173672165 -3.24E-02
    11 Broy./Diag. 0.40E+00   25.3     0.00133739     -1095.5835680928  3.38E-02
    12 Broy./Diag. 0.40E+00   25.3     0.00064636     -1095.5945137444 -1.09E-02
    13 Broy./Diag. 0.40E+00   25.8     0.00069987     -1095.6145217176 -2.00E-02
    14 Broy./Diag. 0.40E+00   25.2     0.00026320     -1095.6142990334  2.23E-04
    15 Broy./Diag. 0.40E+00   25.5     0.00020433     -1095.6083465582  5.95E-03
    16 Broy./Diag. 0.40E+00   25.7     0.00014489     -1095.6092180400 -8.71E-04
    17 Broy./Diag. 0.40E+00   24.7     0.00006406     -1095.6100158946 -7.98E-04
    18 Broy./Diag. 0.40E+00   25.0     0.00003757     -1095.6097978632  2.18E-04
    19 Broy./Diag. 0.40E+00   26.3     0.00001975     -1095.6096557897  1.42E-04
    20 Broy./Diag. 0.40E+00   25.1     0.00001566     -1095.6093918118  2.64E-04
    21 Broy./Diag. 0.40E+00   25.4     0.00001196     -1095.6097257395 -3.34E-04
    22 Broy./Diag. 0.40E+00   25.4     0.00000425     -1095.6098406886 -1.15E-04
    23 Broy./Diag. 0.40E+00   25.0     0.00000429     -1095.6097944006  4.63E-05
    24 Broy./Diag. 0.40E+00   26.2     0.00000218     -1095.6097002557  9.41E-05
    25 Broy./Diag. 0.40E+00   25.1     0.00000217     -1095.6096558793  4.44E-05
    26 Broy./Diag. 0.40E+00   25.7     0.00000140     -1095.6096597814 -3.90E-06
    27 Broy./Diag. 0.40E+00   26.1     0.00000078     -1095.6096630393 -3.26E-06
    28 Broy./Diag. 0.40E+00   25.3     0.00000077     -1095.6096546273  8.41E-06
    29 Broy./Diag. 0.40E+00   25.9     0.00000041     -1095.6096454405  9.19E-06
    30 Broy./Diag. 0.40E+00   25.3     0.00000029     -1095.6096448949  5.46E-07
    31 Broy./Diag. 0.40E+00   25.8     0.00000031     -1095.6096457166 -8.22E-07
    32 Broy./Diag. 0.40E+00   26.4     0.00000010     -1095.6096466834 -9.67E-07

  *** SCF run converged in    32 steps ***


  Electronic density on regular grids:       -511.9994263220        0.0005736780
  Core density on regular grids:              512.0000292812        0.0000292812
  Total charge density on r-space grids:        0.0006029592
  Total charge density g-space grids:           0.0006029592

  Overlap energy of the core charge distribution:               0.00000488189652
  Self energy of the core charge distribution:              -2838.21791979120962
  Core Hamiltonian energy:                                    822.02184728916541
  Hartree energy:                                            1185.51990973035026
  Exchange-correlation energy:                               -264.93348879362895

  Total energy:                                             -1095.60964668342649

 ENERGY| Total FORCE_EVAL ( QS ) energy (a.u.):            -1095.609647171066626


 ATOMIC FORCES in [a.u.]

 # Atom   Kind   Element          X              Y              Z
      1      1      O           0.01767077    -0.11861710     0.02597656
      2      2      H           0.00149439     0.01737991     0.02539158
      3      2      H           0.00353258     0.01416037    -0.03780521
      4      1      O           0.06230314     0.03359567     0.10482129
      5      2      H          -0.05664825     0.02338445    -0.03451028
      6      2      H           0.00636899     0.01536705    -0.03788593
      7      1      O           0.08938496    -0.01277305     0.06454882
      8      2      H          -0.02870646    -0.01699954     0.08424399
      9      2      H          -0.02631374    -0.02296497    -0.05709478
     10      1      O          -0.01214852    -0.02139637     0.01782958
     11      2      H           0.00765273     0.01827416    -0.02104361
     12      2      H          -0.00974126    -0.00302872    -0.00899306
     13      1      O          -0.00497913    -0.06186523     0.05690129
     14      2      H           0.02398642    -0.01418944     0.01245098
     15      2      H           0.01266750    -0.02267576    -0.01509114
     16      1      O          -0.08831742    -0.06681432    -0.04157127
     17      2      H           0.07309821    -0.01977957     0.02339023
     18      2      H           0.02414388     0.07677998    -0.01401006
     19      1      O           0.04363349    -0.00008521     0.12098781
     20      2      H          -0.00781587     0.01901243     0.02098884
     21      2      H          -0.06052783     0.02964368    -0.00254526
     22      1      O          -0.04497272    -0.03700515     0.06739360
     23      2      H           0.05978815    -0.02070118    -0.01030191
     24      2      H          -0.01330363    -0.02650798    -0.02304173
     25      1      O          -0.00290610     0.02844082     0.09211177
     26      2      H           0.02144917    -0.01669913     0.03119238
     27      2      H           0.00586073     0.01267756    -0.00461294
     28      1      O           0.02617203     0.01204866     0.03264246
     29      2      H           0.02572262     0.02410233     0.00424025
     30      2      H          -0.02692048     0.01340424    -0.00461499
     31      1      O           0.07297823     0.00533144     0.12118993
     32      2      H           0.01035554    -0.02299947    -0.02053042
     33      2      H          -0.04979521     0.04182115    -0.00987013
     34      1      O           0.04968611     0.10078691     0.07170050
     35      2      H          -0.03924281    -0.00408247     0.02275499
     36      2      H          -0.01785991    -0.01871554     0.03466271
     37      1      O          -0.04797977    -0.09771227     0.01680018
     38      2      H           0.06533494     0.02662057     0.01774504
     39      2      H          -0.03301772     0.02500328     0.06477482
     40      1      O           0.03819173     0.00664986     0.06660190
     41      2      H           0.01160429    -0.03161917    -0.02097719
     42      2      H          -0.01133345     0.02910269     0.05989449
     43      1      O          -0.06860195    -0.06352411     0.10499848
     44      2      H           0.00687013     0.01802972     0.00060829
     45      2      H           0.01663864    -0.03651409     0.01841538
     46      1      O          -0.01887848    -0.09271151    -0.01278246
     47      2      H           0.03675155     0.04738378    -0.04424745
     48      2      H          -0.04741809    -0.00332614     0.00649488
     49      1      O          -0.05303430    -0.04050540    -0.01817623
     50      2      H           0.06186546    -0.04897643     0.01422513
     51      2      H          -0.02667883    -0.03127458     0.02380635
     52      1      O           0.04415657    -0.02248314     0.12930529
     53      2      H          -0.04080470    -0.00118960    -0.05284176
     54      2      H           0.01891833     0.02044078    -0.01987310
     55      1      O          -0.00153794     0.04796638    -0.03190681
     56      2      H          -0.02010339    -0.02264677    -0.02532479
     57      2      H          -0.01931273    -0.01140564    -0.00531102
     58      1      O           0.00406195     0.03250862     0.07029590
     59      2      H          -0.02063380    -0.00160137    -0.03638330
     60      2      H          -0.01035843    -0.01133937    -0.02069609
     61      1      O          -0.05449218    -0.00608021    -0.13760356
     62      2      H           0.00573711    -0.01941994    -0.00234553
     63      2      H           0.04294705    -0.03888991     0.00809768
     64      1      O          -0.00941156     0.03888616     0.10817632
     65      2      H          -0.00581114     0.01136272    -0.01934906
     66      2      H          -0.02421276    -0.01878345     0.00720048
     67      1      O          -0.00093943     0.08536747    -0.01264353
     68      2      H           0.01799590     0.02562345     0.03796739
     69      2      H           0.01465223    -0.04039861    -0.04612481
     70      1      O           0.03020621    -0.06220599     0.10356129
     71      2      H          -0.02593895     0.05749788     0.00476903
     72      2      H          -0.00610205     0.03235822     0.01565695
     73      1      O          -0.00424419     0.06211740    -0.03392950
     74      2      H           0.00109523     0.00371738     0.05055481
     75      2      H          -0.00280849    -0.01965443    -0.00940225
     76      1      O          -0.01697209    -0.05200685     0.00861275
     77      2      H           0.00076647    -0.00132511     0.01528255
     78      2      H           0.01041058    -0.02533549     0.03390672
     79      1      O          -0.02833784     0.03545998     0.04264765
     80      2      H           0.01165379     0.01477677    -0.07990751
     81      2      H           0.00567140    -0.02954016    -0.00471292
     82      1      O          -0.02249630     0.00837491    -0.06324601
     83      2      H          -0.01355499    -0.05003809     0.01705577
     84      2      H           0.03533836    -0.00152867     0.00217916
     85      1      O           0.04387530     0.01743302     0.11437574
     86      2      H           0.01687478    -0.00370102     0.02833089
     87      2      H          -0.03600949    -0.01266147     0.00061103
     88      1      O           0.00443941    -0.01484610     0.09501592
     89      2      H          -0.01061942    -0.03971476    -0.00421640
     90      2      H           0.04102870     0.02346450     0.01279838
     91      1      O           0.07940084    -0.01465865     0.06936785
     92      2      H          -0.01430534    -0.02652682     0.09371362
     93      2      H          -0.05427410    -0.03719727    -0.04520399
     94      1      O          -0.06330677    -0.01849899    -0.01117197
     95      2      H           0.03285607    -0.02538154     0.00711635
     96      2      H          -0.00758445    -0.03282944     0.04431471
     97      1      O           0.00451337     0.02431860     0.09928307
     98      2      H          -0.00489099     0.02213627    -0.03244546
     99      2      H          -0.03941801    -0.01378710    -0.03418092
    100      1      O           0.00283287     0.06419973     0.02217061
    101      2      H           0.03488942     0.01929798    -0.02518042
    102      2      H          -0.01613833    -0.01105852     0.03090353
    103      1      O           0.02571800    -0.02419877    -0.06372078
    104      2      H          -0.00466466    -0.00977004    -0.06404415
    105      2      H          -0.02048173    -0.00954756     0.03499704
    106      1      O           0.01488484    -0.09897971     0.06050310
    107      2      H           0.00147140     0.04909178     0.01336242
    108      2      H           0.01047143    -0.00285860    -0.00985613
    109      1      O          -0.03099370    -0.01962305     0.11839769
    110      2      H          -0.00840262     0.00437420     0.01259464
    111      2      H           0.01856003    -0.01682216    -0.02827382
    112      1      O          -0.01177160    -0.04952853    -0.11004207
    113      2      H           0.01552195    -0.00517551     0.03937923
    114      2      H           0.04452238     0.00319290    -0.03801915
    115      1      O           0.02035572    -0.03057176    -0.08925609
    116      2      H           0.02355072    -0.04234627     0.05758200
    117      2      H           0.01293449     0.00862096    -0.01957762
    118      1      O          -0.02516597     0.01287742    -0.02245573
    119      2      H           0.03191240    -0.01763155     0.00279117
    120      2      H           0.01051460    -0.00293452    -0.02127228
    121      1      O          -0.01361971     0.08135850    -0.08291890
    122      2      H          -0.00404783    -0.06821682    -0.03792107
    123      2      H           0.00056885    -0.03323031     0.05148993
    124      1      O          -0.04234503    -0.08281325    -0.03295348
    125      2      H           0.00463208    -0.00418950    -0.03522532
    126      2      H           0.01729116    -0.01174421     0.07307362
    127      1      O          -0.01949023     0.10005649     0.09490132
    128      2      H           0.02138828    -0.00047098    -0.02694880
    129      2      H          -0.03511797    -0.02301898     0.00130854
    130      1      O           0.01615374     0.11881073     0.14809022
    131      2      H           0.02869182    -0.01198828    -0.01249805
    132      2      H          -0.05025234    -0.01520760    -0.02581191
    133      1      O          -0.07239637    -0.02128117     0.15163514
    134      2      H           0.04977327     0.01753646    -0.10049905
    135      2      H          -0.00890984     0.03134179     0.01417910
    136      1      O           0.01568909    -0.05606665    -0.01228866
    137      2      H           0.02607344     0.02928549    -0.05758367
    138      2      H           0.00774713    -0.03049443    -0.05511312
    139      1      O          -0.02529193    -0.09719773     0.11009700
    140      2      H           0.00173131     0.00483221    -0.02444468
    141      2      H          -0.01132824    -0.02566757     0.01143099
    142      1      O          -0.01819419     0.10480313    -0.03393347
    143      2      H          -0.01712336    -0.04178083    -0.00456522
    144      2      H           0.00349006    -0.00447741    -0.02668941
    145      1      O          -0.04712394     0.03606052     0.10055038
    146      2      H          -0.00005505    -0.02046289    -0.00380969
    147      2      H           0.04825768     0.00553328    -0.01335755
    148      1      O           0.00003729    -0.02801118    -0.03253760
    149      2      H          -0.00194886     0.00079493    -0.00439746
    150      2      H           0.00405411     0.14511187    -0.03441782
    151      1      O          -0.02185606    -0.10796008     0.10346578
    152      2      H           0.02514532     0.03354474    -0.04909327
    153      2      H           0.00135900     0.02964442     0.04659591
    154      1      O          -0.02145269     0.02515486    -0.11956615
    155      2      H          -0.02934524     0.02097018     0.05965959
    156      2      H           0.02497143    -0.03458935    -0.01704153
    157      1      O          -0.02439100    -0.07015232    -0.04773675
    158      2      H           0.01169696     0.01369185     0.03496246
    159      2      H          -0.03117293    -0.02024741    -0.03328827
    160      1      O           0.02368087     0.01204577    -0.16309040
    161      2      H          -0.01256040    -0.04522519     0.05757536
    162      2      H          -0.02843256     0.01171246     0.03332540
    163      1      O           0.01549978    -0.06328489     0.01931130
    164      2      H          -0.00842026     0.04113575     0.00669688
    165      2      H           0.02554367     0.05482069    -0.05927119
    166      1      O          -0.03575797    -0.03353234    -0.11498264
    167      2      H           0.01727305    -0.01963398    -0.03167920
    168      2      H          -0.01309352     0.00535654     0.02711785
    169      1      O          -0.01039856     0.02456503    -0.05342317
    170      2      H          -0.01864994     0.02299757     0.00575186
    171      2      H           0.02220218     0.00629452    -0.05078987
    172      1      O          -0.00443319    -0.07522220     0.10621099
    173      2      H          -0.02489302     0.05083830    -0.03506624
    174      2      H          -0.01676792    -0.00404657     0.02162788
    175      1      O          -0.02122945    -0.06873644     0.11584652
    176      2      H           0.01340899     0.02794209     0.03690647
    177      2      H          -0.00761137    -0.00685528    -0.04927627
    178      1      O           0.04320746    -0.08708890     0.11727801
    179      2      H          -0.01905973    -0.01502359    -0.04867048
    180      2      H          -0.01052422     0.02135106     0.03492665
    181      1      O          -0.00043129     0.06908492    -0.01343350
    182      2      H          -0.00583190     0.01605290    -0.01584148
    183      2      H          -0.04118263    -0.04103648     0.06250288
    184      1      O          -0.01219387     0.08509591    -0.07216907
    185      2      H           0.02172177    -0.02707857    -0.04546463
    186      2      H          -0.02363079    -0.07846303    -0.00865052
    187      1      O           0.05184485    -0.01725373    -0.03329224
    188      2      H          -0.04440849    -0.11259235     0.07657634
    189      2      H           0.01566407     0.04158834     0.03272542
    190      1      O          -0.01286618     0.06111815    -0.16185096
    191      2      H           0.00904508     0.02042198     0.03519772
    192      2      H          -0.00207588     0.03990509     0.10356248
 SUM OF ATOMIC FORCES          -0.16536794    -0.71980418     1.39542592     1.57882175

 -------------------------------------------------------------------------------
 -                                                                             -
 -                                DBCSR STATISTICS                             -
 -                                                                             -
 -------------------------------------------------------------------------------
 COUNTER                                    TOTAL       BLAS       SMM       ACC
 flops     5 x     5 x   256            779750400       0.0%    100.0%      0.0%
 flops    13 x     5 x   256            965352960       0.0%    100.0%      0.0%
 flops     5 x    13 x   256            993907200       0.0%    100.0%      0.0%
 flops    13 x    13 x   256           1356326400       0.0%    100.0%      0.0%
 flops inhomo. stacks                           0       0.0%      0.0%      0.0%
 flops total                         4.095337E+09       0.0%    100.0%      0.0%
 flops max/rank                      4.095337E+09       0.0%    100.0%      0.0%
 matmuls inhomo. stacks                         0       0.0%      0.0%      0.0%
 matmuls total                             135465       0.0%    100.0%      0.0%
 number of processed stacks                  2574       0.0%    100.0%      0.0%
 average stack size                                     0.0      52.6       0.0
 marketing flops                    36.609982E+09
 -------------------------------------------------------------------------------
 # multiplications                             33
 max memory usage/rank              25.806008E+09
 # max total images/rank                        1
 # max 3D layers                                1
 # MPI messages exchanged                       0
 MPI messages size (bytes):
  total size                         0.000000E+00
  min size                           0.000000E+00
  max size                           0.000000E+00
  average size                       0.000000E+00
 MPI breakdown and total messages size (bytes):
             size <=      128                   0                        0
       128 < size <=     8192                   0                        0
      8192 < size <=    32768                   0                        0
     32768 < size <=   131072                   0                        0
    131072 < size <=  4194304                   0                        0
   4194304 < size <= 16777216                   0                        0
  16777216 < size                               0                        0
 -------------------------------------------------------------------------------

 MEMORY| Estimated peak process memory [MiB]                               24613

 -------------------------------------------------------------------------------
 -                                                                             -
 -                           R E F E R E N C E S                               -
 -                                                                             -
 -------------------------------------------------------------------------------
 
 CP2K version 7.1, the CP2K developers group (2019).
 CP2K is freely available from https://www.cp2k.org/ .

 Schuett, Ole; Messmer, Peter; Hutter, Juerg; VandeVondele, Joost. 
 Electronic Structure Calculations on Graphics Processing Units, John
 Wiley & Sons, Ltd, 173-190 (2016). 
 GPU-Accelerated Sparse Matrix-Matrix Multiplication for
 Linear Scaling Density Functional Theory.
 https://dx.doi.org/10.1002/9781118670712.ch8

 Borstnik, U; VandeVondele, J; Weber, V; Hutter, J. 
 PARALLEL COMPUTING, 40 (5-6), 47-58 (2014). 
 Sparse matrix multiplication: The distributed block-compressed sparse
 row library.
 https://dx.doi.org/10.1016/j.parco.2014.03.012

 Hutter, J; Iannuzzi, M; Schiffmann, F; VandeVondele, J. 
 WIREs Comput Mol Sci., 4 (1), 15-25 (2014). 
 CP2K: atomistic simulations of condensed matter systems.
 https://dx.doi.org/10.1002/wcms.1159

 Krack, M. 
 THEORETICAL CHEMISTRY ACCOUNTS, 114 (1-3), 145-152 (2005). 
 Pseudopotentials for H to Kr optimized for gradient-corrected
 exchange-correlation functionals.
 https://dx.doi.org/10.1007/s00214-005-0655-y

 VandeVondele, J; Krack, M; Mohamed, F; Parrinello, M; Chassaing, T;
 Hutter, J. COMPUTER PHYSICS COMMUNICATIONS, 167 (2), 103-128 (2005). 
 QUICKSTEP: Fast and accurate density functional calculations using a
 mixed Gaussian and plane waves approach.
 https://dx.doi.org/10.1016/j.cpc.2004.12.014

 Frigo, M; Johnson, SG. 
 PROCEEDINGS OF THE IEEE, 93 (2), 216-231 (2005). 
 The design and implementation of FFTW3.
 https://dx.doi.org/10.1109/JPROC.2004.840301

 Hartwigsen, C; Goedecker, S; Hutter, J. 
 PHYSICAL REVIEW B, 58 (7), 3641-3662 (1998). 
 Relativistic separable dual-space Gaussian pseudopotentials from H to Rn.
 https://dx.doi.org/10.1103/PhysRevB.58.3641

 Lippert, G; Hutter, J; Parrinello, M. 
 MOLECULAR PHYSICS, 92 (3), 477-487 (1997). 
 A hybrid Gaussian and plane wave density functional scheme.
 https://dx.doi.org/10.1080/002689797170220

 Goedecker, S; Teter, M; Hutter, J. 
 PHYSICAL REVIEW B, 54 (3), 1703-1710 (1996). 
 Separable dual-space Gaussian pseudopotentials.
 https://dx.doi.org/10.1103/PhysRevB.54.1703


 -------------------------------------------------------------------------------
 -                                                                             -
 -                                T I M I N G                                  -
 -                                                                             -
 -------------------------------------------------------------------------------
 SUBROUTINE                       CALLS  ASD         SELF TIME        TOTAL TIME
                                MAXIMUM       AVERAGE  MAXIMUM  AVERAGE  MAXIMUM
 CP2K                                 1  1.0    0.735    0.735  793.783  793.783
 qs_forces                            1  2.0    0.000    0.000  782.546  782.546
 qs_energies                          1  3.0    0.000    0.000  777.779  777.779
 scf_env_do_scf                       1  4.0    0.000    0.000  765.825  765.825
 scf_env_do_scf_inner_loop           32  5.0    0.006    0.006  765.825  765.825
 gspace_mixing                       31  6.0    4.417    4.417  289.667  289.667
 broyden_mixing                      31  7.0  256.791  256.791  256.791  256.791
 qs_scf_new_mos                      32  6.0    0.001    0.001  209.787  209.787
 eigensolver                         32  7.0    0.004    0.004  202.059  202.059
 pw_transfer                        428  9.9    0.044    0.044  162.583  162.583
 fft_wrap_pw1pw2                    362 10.9    0.007    0.007  158.235  158.235
 rebuild_ks_matrix                   33  6.9    0.000    0.000  151.232  151.232
 qs_ks_build_kohn_sham_matrix        33  7.9    0.013    0.013  151.232  151.232
 qs_ks_update_qs_env                 32  6.0    0.000    0.000  146.649  146.649
 fft_wrap_pw1pw2_70                 164 11.2   11.725   11.725  142.938  142.938
 cp_fm_syevd                         32  8.0  137.446  137.446  137.595  137.595
 qs_rho_update_rho                   33  6.0    0.000    0.000  122.850  122.850
 calculate_rho_elec                  33  7.0   43.723   43.723  122.850  122.850
 fft3d_s                            363 12.8   79.802   79.802   79.812   79.812
 density_rs2pw                       33  8.0    0.004    0.004   77.955   77.955
 cp_fm_cholesky_restore              96  8.0   64.346   64.346   64.346   64.346
 sum_up_and_integrate                33  8.9    2.184    2.184   50.117   50.117
 integrate_v_rspace                  33  9.9    2.927    2.927   47.933   47.933
 pw_scatter_s                       196 13.1   47.040   47.040   47.040   47.040
 pw_poisson_solve                    33  8.9   37.897   37.897   42.504   42.504
 potential_pw2rs                     33 10.9    0.297    0.297   42.191   42.191
 qs_vxc_create                       33  8.9    0.001    0.001   21.497   21.497
 xc_vxc_pw_create                    33  9.9    4.707    4.707   21.496   21.496
 pw_gather_s                        166 12.6   17.814   17.814   17.814   17.814
 xc_rho_set_and_dset_create          33 10.9    0.001    0.001   16.789   16.789
 -------------------------------------------------------------------------------

 The number of warnings for this run is : 0
 
 -------------------------------------------------------------------------------
  **** **** ******  **  PROGRAM ENDED AT                 2020-05-22 03:22:42.901
 ***** ** ***  *** **   PROGRAM RAN ON                                   gnode39
 **    ****   ******    PROGRAM RAN BY                               mayank.modi
 ***** **    ** ** **   PROGRAM PROCESS ID                                 34546
  **** **  *******  **  PROGRAM STOPPED IN /home/mayank.modi/ab-initio-thermodyn
                                           amics-of-water/mayank/cp2k_energy_cal
                                           culations
