 DBCSR| CPU Multiplication driver                                           XSMM
 DBCSR| Multrec recursion limit                                              512
 DBCSR| Multiplication stack size                                           1000
 DBCSR| Maximum elements for images                                    UNLIMITED
 DBCSR| Multiplicative factor virtual images                                   1
 DBCSR| Use multiplication densification                                       T
 DBCSR| Multiplication size stacks                                             3


  **** **** ******  **  PROGRAM STARTED AT               2020-05-21 06:45:45.276
 ***** ** ***  *** **   PROGRAM STARTED ON                               gnode39
 **    ****   ******    PROGRAM STARTED BY                           mayank.modi
 ***** **    ** ** **   PROGRAM PROCESS ID                                 30346
  **** **  *******  **  PROGRAM STARTED IN /home/mayank.modi/ab-initio-thermodyn
                                           amics-of-water/mayank/cp2k_energy_cal
                                           culations

 CP2K| version string:                                          CP2K version 7.1
 CP2K| source code revision number:                                  git:e635599
 CP2K| cp2kflags: omp libint fftw3 libxc xsmm spglib                            
 CP2K| is freely available from                            https://www.cp2k.org/
 CP2K| Program compiled at                          Mon Dec 23 19:23:12 CET 2019
 CP2K| Program compiled on                                                pc9404
 CP2K| Program compiled for                                Linux-x86-64-gfortran
 CP2K| Data directory path                                        /opt/cp2k/data
 CP2K| Input file name                                              ./input63.in

 GLOBAL| Force Environment number                                              1
 GLOBAL| Basis set file name                                           BASIS_SET
 GLOBAL| Potential file name                                      GTH_POTENTIALS
 GLOBAL| MM Potential file name                                     MM_POTENTIAL
 GLOBAL| Coordinate file name                                      __STD_INPUT__
 GLOBAL| Method name                                                        CP2K
 GLOBAL| Project name                                                   H2O_bulk
 GLOBAL| Preferred FFT library                                             FFTW3
 GLOBAL| Preferred diagonalization lib.                                       SL
 GLOBAL| Run type                                                   ENERGY_FORCE
 GLOBAL| All-to-all communication in single precision                          F
 GLOBAL| FFTs using library dependent lengths                                  F
 GLOBAL| Global print level                                                  LOW
 GLOBAL| MPI I/O enabled                                                       T
 GLOBAL| Total number of message passing processes                             1
 GLOBAL| Number of threads for this process                                   20
 GLOBAL| This output is from process                                           0
 GLOBAL| CPU model name                Intel(R) Xeon(R) CPU E5-2640 v4 @ 2.40GHz
 GLOBAL| CPUID                                                              1002
 GLOBAL| Compiled for CPUID                                                    0

 MEMORY| system memory details [Kb]
 MEMORY|                        rank 0           min           max       average
 MEMORY| MemTotal            131898148     131898148     131898148     131898148
 MEMORY| MemFree              88705844      88705844      88705844      88705844
 MEMORY| Buffers               3187100       3187100       3187100       3187100
 MEMORY| Cached               34124716      34124716      34124716      34124716
 MEMORY| Slab                  3915268       3915268       3915268       3915268
 MEMORY| SReclaimable          3255852       3255852       3255852       3255852
 MEMORY| MemLikelyFree       129273512     129273512     129273512     129273512


 GENERATE|  Preliminary Number of Bonds generated:                             0
 GENERATE|  Achieved consistency in connectivity generation.

 *******************************************************************************
 *******************************************************************************
 **                                                                           **
 **     #####                         ##              ##                      **
 **    ##   ##            ##          ##              ##                      **
 **   ##     ##                       ##            ######                    **
 **   ##     ##  ##   ##  ##   #####  ##  ##   ####   ##    #####    #####    **
 **   ##     ##  ##   ##  ##  ##      ## ##   ##      ##   ##   ##  ##   ##   **
 **   ##  ## ##  ##   ##  ##  ##      ####     ###    ##   ######   ######    **
 **    ##  ###   ##   ##  ##  ##      ## ##      ##   ##   ##       ##        **
 **     #######   #####   ##   #####  ##  ##  ####    ##    #####   ##        **
 **           ##                                                    ##        **
 **                                                                           **
 **                                                ... make the atoms dance   **
 **                                                                           **
 **            Copyright (C) by CP2K developers group (2000 - 2019)           **
 **                                                                           **
 *******************************************************************************


 TOTAL NUMBERS AND MAXIMUM NUMBERS

  Total number of            - Atomic kinds:                                   2
                             - Atoms:                                        192
                             - Shell sets:                                   384
                             - Shells:                                       704
                             - Primitive Cartesian functions:                960
                             - Cartesian basis functions:                   1536
                             - Spherical basis functions:                   1472

  Maximum angular momentum of- Orbital basis functions:                        2
                             - Local part of the GTH pseudopotential:          2
                             - Non-local part of the GTH pseudopotential:      0


 SCF PARAMETERS         Density guess:                                    ATOMIC
                        --------------------------------------------------------
                        max_scf:                                             300
                        max_scf_history:                                       0
                        max_diis:                                              4
                        --------------------------------------------------------
                        eps_scf:                                        1.00E-07
                        eps_scf_history:                                0.00E+00
                        eps_diis:                                       1.00E-01
                        eps_eigval:                                     1.00E-05
                        --------------------------------------------------------
                        level_shift [a.u.]:                                 0.00
                        --------------------------------------------------------
                        Mixing method:                            BROYDEN_MIXING
                                                charge density mixing in g-space
                        --------------------------------------------------------
                        No outer SCF

 Number of electrons:                                                        512
 Number of occupied orbitals:                                                256
 Number of molecular orbitals:                                               256

 Number of orbital functions:                                               1472
 Number of independent orbital functions:                                   1472

 Extrapolation method: initial_guess


 SCF WAVEFUNCTION OPTIMIZATION

  Step     Update method      Time    Convergence         Total energy    Change
  ------------------------------------------------------------------------------
     1 NoMix/Diag. 0.40E+00   10.7     1.02277054     -1087.4527534794 -1.09E+03
     2 Broy./Diag. 0.40E+00   15.6     0.28936830     -1013.8447709446  7.36E+01
     3 Broy./Diag. 0.40E+00   17.6     0.02683843     -1094.8190586308 -8.10E+01
     4 Broy./Diag. 0.40E+00   18.1     0.02850532     -1094.3989163993  4.20E-01
     5 Broy./Diag. 0.40E+00   19.1     0.00301671     -1095.2965354981 -8.98E-01
     6 Broy./Diag. 0.40E+00   19.8     0.00506843     -1095.3190266377 -2.25E-02
     7 Broy./Diag. 0.40E+00   19.8     0.00309412     -1095.4588430795 -1.40E-01
     8 Broy./Diag. 0.40E+00   22.6     0.00484862     -1095.5732117679 -1.14E-01
     9 Broy./Diag. 0.40E+00   24.5     0.00359660     -1095.6622040969 -8.90E-02
    10 Broy./Diag. 0.40E+00   24.6     0.00204898     -1095.6867901943 -2.46E-02
    11 Broy./Diag. 0.40E+00   24.2     0.00145234     -1095.6655022065  2.13E-02
    12 Broy./Diag. 0.40E+00   25.7     0.00050111     -1095.6700774450 -4.58E-03
    13 Broy./Diag. 0.40E+00   25.9     0.00064810     -1095.6885446720 -1.85E-02
    14 Broy./Diag. 0.40E+00   24.6     0.00029932     -1095.6935917011 -5.05E-03
    15 Broy./Diag. 0.40E+00   25.3     0.00032571     -1095.6853883963  8.20E-03
    16 Broy./Diag. 0.40E+00   24.9     0.00012365     -1095.6840985115  1.29E-03
    17 Broy./Diag. 0.40E+00   25.3     0.00008258     -1095.6862065685 -2.11E-03
    18 Broy./Diag. 0.40E+00   25.0     0.00004770     -1095.6881197609 -1.91E-03
    19 Broy./Diag. 0.40E+00   25.9     0.00001701     -1095.6875655093  5.54E-04
    20 Broy./Diag. 0.40E+00   25.5     0.00001907     -1095.6864818022  1.08E-03
    21 Broy./Diag. 0.40E+00   25.3     0.00001230     -1095.6868198022 -3.38E-04
    22 Broy./Diag. 0.40E+00   24.1     0.00000922     -1095.6870678295 -2.48E-04
    23 Broy./Diag. 0.40E+00   24.6     0.00000536     -1095.6870680136 -1.84E-07
    24 Broy./Diag. 0.40E+00   25.6     0.00000182     -1095.6869799448  8.81E-05
    25 Broy./Diag. 0.40E+00   24.2     0.00000308     -1095.6869354598  4.45E-05
    26 Broy./Diag. 0.40E+00   24.4     0.00000133     -1095.6869752282 -3.98E-05
    27 Broy./Diag. 0.40E+00   24.9     0.00000128     -1095.6869860710 -1.08E-05
    28 Broy./Diag. 0.40E+00   24.8     0.00000089     -1095.6869801906  5.88E-06
    29 Broy./Diag. 0.40E+00   25.5     0.00000046     -1095.6869812707 -1.08E-06
    30 Broy./Diag. 0.40E+00   25.8     0.00000034     -1095.6869800842  1.19E-06
    31 Broy./Diag. 0.40E+00   24.5     0.00000021     -1095.6869824395 -2.36E-06
    32 Broy./Diag. 0.40E+00   24.7     0.00000017     -1095.6869867981 -4.36E-06
    33 Broy./Diag. 0.40E+00   26.2     0.00000012     -1095.6869895298 -2.73E-06
    34 Broy./Diag. 0.40E+00   26.0     0.00000007     -1095.6869881998  1.33E-06

  *** SCF run converged in    34 steps ***


  Electronic density on regular grids:       -511.9999330821        0.0000669179
  Core density on regular grids:              512.0001887711        0.0001887711
  Total charge density on r-space grids:        0.0002556890
  Total charge density g-space grids:           0.0002556890

  Overlap energy of the core charge distribution:               0.00000469669922
  Self energy of the core charge distribution:              -2838.21791979120962
  Core Hamiltonian energy:                                    821.34049216540029
  Hartree energy:                                            1185.94165645498811
  Exchange-correlation energy:                               -264.75122172566444

  Total energy:                                             -1095.68698819978636

 ENERGY| Total FORCE_EVAL ( QS ) energy (a.u.):            -1095.686988012538905


 ATOMIC FORCES in [a.u.]

 # Atom   Kind   Element          X              Y              Z
      1      1      O           0.05741899    -0.13304186    -0.04622772
      2      2      H           0.01390681    -0.01808869     0.00843967
      3      2      H          -0.05678559     0.05963443     0.03185026
      4      1      O           0.02600347     0.02264250    -0.02475429
      5      2      H          -0.05035500     0.01158204    -0.01851615
      6      2      H          -0.00202923    -0.02023143    -0.03226461
      7      1      O          -0.01430476     0.00442005    -0.01989770
      8      2      H          -0.00666271    -0.08317204    -0.04991666
      9      2      H           0.00718658    -0.02418095    -0.05337054
     10      1      O          -0.03007313    -0.08547104    -0.07603969
     11      2      H          -0.01083871     0.01937089    -0.02183077
     12      2      H          -0.00203434     0.00493958    -0.03204710
     13      1      O          -0.02146491    -0.02740502    -0.16502842
     14      2      H           0.03469130     0.02664805     0.06852954
     15      2      H          -0.01980789    -0.01021023    -0.04472096
     16      1      O           0.04867035     0.02951612    -0.12810926
     17      2      H           0.00357885     0.03481521     0.01330609
     18      2      H          -0.01120994     0.02035957     0.06083602
     19      1      O           0.02250730    -0.02746695    -0.00028911
     20      2      H          -0.01969199    -0.01100624    -0.00359931
     21      2      H           0.01445210    -0.00259239    -0.02260720
     22      1      O          -0.02633336    -0.11193698    -0.14796825
     23      2      H           0.07941241     0.05250597     0.03884302
     24      2      H          -0.00512677     0.00298861     0.05716857
     25      1      O          -0.00632463     0.01660997     0.06137688
     26      2      H           0.01409721    -0.02672197     0.01368661
     27      2      H          -0.00631975     0.00368692     0.01239873
     28      1      O           0.00110263     0.04948664     0.07748015
     29      2      H          -0.00895294    -0.00616694    -0.00237417
     30      2      H          -0.01322856     0.04687578    -0.07438766
     31      1      O          -0.01402870     0.05979628    -0.08280694
     32      2      H          -0.00268358     0.04221767    -0.03646444
     33      2      H           0.02803665    -0.01927038     0.00575188
     34      1      O           0.04645096     0.07243965     0.04726001
     35      2      H          -0.03989276    -0.01150545     0.02823544
     36      2      H          -0.02809392     0.00922782     0.00628594
     37      1      O           0.00777053    -0.01197757    -0.01191777
     38      2      H          -0.01442243     0.00502027     0.04642999
     39      2      H          -0.03581947     0.01364941     0.01703607
     40      1      O          -0.03848680    -0.05378616     0.06723113
     41      2      H          -0.01280734    -0.04511178     0.02683660
     42      2      H           0.01832193    -0.01740833     0.02021885
     43      1      O          -0.01904195    -0.08121426    -0.12690452
     44      2      H          -0.00614121     0.01276866     0.02947296
     45      2      H           0.01954238     0.03020841     0.00556438
     46      1      O          -0.03326446     0.00895706     0.05154563
     47      2      H          -0.00177243     0.01240766     0.02486530
     48      2      H           0.07354467     0.00419639    -0.04725031
     49      1      O          -0.00419605     0.00547937    -0.14181572
     50      2      H          -0.02636953    -0.03391981    -0.02392385
     51      2      H           0.01432625     0.00779380    -0.02611120
     52      1      O           0.03761739     0.08779299     0.07822838
     53      2      H           0.00442443    -0.02016981    -0.01352522
     54      2      H          -0.01179720    -0.03687690    -0.04389911
     55      1      O           0.01469463    -0.02951305     0.03973065
     56      2      H           0.00911134    -0.03083620    -0.00764074
     57      2      H          -0.05914358     0.03541251    -0.02342341
     58      1      O          -0.03457631     0.01312914     0.00900099
     59      2      H           0.00796733     0.03558086    -0.01217438
     60      2      H           0.02293876    -0.01271314     0.04323827
     61      1      O          -0.00186698    -0.00054075     0.09469711
     62      2      H           0.00845726    -0.01370591    -0.02045087
     63      2      H          -0.00657442     0.01568258     0.00138558
     64      1      O          -0.00441280     0.07374180    -0.05490619
     65      2      H           0.02319212     0.01524138    -0.03697633
     66      2      H          -0.00549461    -0.00403985     0.00852115
     67      1      O          -0.01784739     0.08404771    -0.08503944
     68      2      H          -0.03228305     0.01560988     0.02771948
     69      2      H           0.02470777    -0.01766666    -0.00740016
     70      1      O          -0.00399947    -0.01224056     0.10964218
     71      2      H          -0.00683175     0.01169419    -0.01395106
     72      2      H           0.01711511    -0.00875413    -0.03504778
     73      1      O          -0.03733359     0.05189190     0.08539142
     74      2      H           0.01507151    -0.01785493    -0.02559058
     75      2      H          -0.01266217    -0.00697011    -0.03636135
     76      1      O           0.02867463     0.00260684    -0.04075098
     77      2      H          -0.01585907     0.02319559     0.01785754
     78      2      H          -0.00102443     0.02145790    -0.06879999
     79      1      O          -0.05697736     0.03650782    -0.06552055
     80      2      H           0.01828420     0.05297497     0.01732856
     81      2      H          -0.00839903     0.02690819     0.00941289
     82      1      O          -0.00280526    -0.04485789     0.04135196
     83      2      H          -0.00724149    -0.03282151     0.01841870
     84      2      H           0.01393362     0.00436540    -0.00522951
     85      1      O           0.00292477    -0.05327762    -0.07952274
     86      2      H           0.03034537     0.02543347    -0.02237727
     87      2      H          -0.01562459     0.03125614     0.03659809
     88      1      O          -0.02387127    -0.02653209     0.11525735
     89      2      H           0.00557291     0.00578147    -0.01104465
     90      2      H           0.01069073     0.05044312    -0.02616270
     91      1      O           0.05161372    -0.09094900    -0.06538525
     92      2      H           0.00754931     0.04561422    -0.01810456
     93      2      H          -0.04964622    -0.03656503    -0.01091909
     94      1      O          -0.00054255     0.07668730     0.09157611
     95      2      H           0.03759720    -0.02384459     0.03054652
     96      2      H          -0.01982937     0.01292080    -0.00260248
     97      1      O          -0.08177041    -0.02224017     0.01045349
     98      2      H           0.00601244     0.02057929    -0.01960524
     99      2      H           0.06225225    -0.05491783     0.01065540
    100      1      O           0.01256676     0.05435840     0.05816938
    101      2      H           0.01430833    -0.03349916    -0.00954546
    102      2      H          -0.01815601    -0.01932217     0.04198085
    103      1      O          -0.00385851    -0.06850755    -0.07377816
    104      2      H           0.03621386    -0.01244888    -0.05693646
    105      2      H          -0.00129589     0.03368973     0.01619323
    106      1      O          -0.06235632    -0.07302776     0.12726109
    107      2      H           0.02516065     0.03718902    -0.04695238
    108      2      H           0.01350969    -0.01892941    -0.00432618
    109      1      O          -0.02532101    -0.04418573    -0.04341480
    110      2      H           0.02303047     0.04791545    -0.05477044
    111      2      H           0.00928495    -0.01033962     0.04030993
    112      1      O          -0.08806391     0.04687452    -0.08576969
    113      2      H           0.01186537     0.05354540     0.02864463
    114      2      H           0.04661854     0.01810959    -0.04976493
    115      1      O          -0.00107805     0.10837221    -0.11138513
    116      2      H          -0.01163398     0.01557989     0.02637511
    117      2      H           0.01697890    -0.04121074     0.04283111
    118      1      O          -0.07096312    -0.07349323    -0.08120141
    119      2      H           0.04102348    -0.02434014     0.05359258
    120      2      H           0.02510416     0.02504777     0.02598101
    121      1      O           0.00628471    -0.02012737     0.07455795
    122      2      H           0.01911411    -0.02293113     0.03819987
    123      2      H           0.00284356    -0.02713809     0.00004838
    124      1      O          -0.00181317    -0.00455074    -0.12942625
    125      2      H          -0.04334614     0.00060253     0.03739486
    126      2      H           0.04853547    -0.06585486     0.02355353
    127      1      O           0.02361776     0.05352298    -0.12395356
    128      2      H           0.00995618     0.00470174     0.04025434
    129      2      H           0.00615377    -0.04427965    -0.00842744
    130      1      O          -0.01862891     0.08655976     0.03209713
    131      2      H           0.00713014    -0.01043936     0.01404879
    132      2      H           0.04498315    -0.01289570    -0.00166003
    133      1      O          -0.09151806    -0.08655094     0.08009619
    134      2      H           0.06941164     0.06621933     0.03561448
    135      2      H          -0.02403032    -0.02676685    -0.00030495
    136      1      O          -0.05637792    -0.05576412    -0.16406655
    137      2      H           0.05372671     0.06026428     0.03265091
    138      2      H          -0.02059658     0.07496780     0.02647301
    139      1      O           0.00769634     0.03798556    -0.10225996
    140      2      H          -0.02177541     0.01303506     0.06408600
    141      2      H          -0.01613502    -0.00091030     0.00848008
    142      1      O          -0.02062367     0.10517141    -0.13898694
    143      2      H          -0.00685338    -0.03288590     0.09505370
    144      2      H          -0.01094039    -0.02717543     0.01397016
    145      1      O           0.03006246     0.08685194    -0.06314888
    146      2      H           0.00738458    -0.02664528    -0.03411980
    147      2      H           0.00227375    -0.01506698     0.00149425
    148      1      O           0.01464812     0.04642453     0.04939375
    149      2      H          -0.00262168    -0.00015198    -0.01052632
    150      2      H           0.00461000     0.03408486    -0.06823991
    151      1      O           0.02338218    -0.00433931     0.02655667
    152      2      H          -0.00668655     0.02781671    -0.02994007
    153      2      H          -0.00362220     0.01875861    -0.00255200
    154      1      O          -0.01362533    -0.01790892     0.01741168
    155      2      H           0.00909941    -0.02245603    -0.05251903
    156      2      H          -0.02052331    -0.06583702    -0.01392325
    157      1      O           0.03033165     0.07231894     0.01707673
    158      2      H          -0.00797255     0.02470482     0.00059796
    159      2      H          -0.02743774     0.01967937     0.02671730
    160      1      O          -0.00751438    -0.06027181     0.13034247
    161      2      H           0.01157030     0.02791032    -0.00017663
    162      2      H          -0.01086697     0.04098895    -0.04577834
    163      1      O          -0.03867826     0.09931608     0.03406446
    164      2      H           0.02635388    -0.02566163     0.03116998
    165      2      H           0.01637871     0.00270698    -0.03058258
    166      1      O          -0.04507081    -0.03032999    -0.03051299
    167      2      H          -0.01577386     0.04235515     0.00452367
    168      2      H           0.03405674     0.01107357     0.05577140
    169      1      O           0.00430862     0.05280133    -0.07232269
    170      2      H          -0.02758665    -0.02099580     0.01650181
    171      2      H           0.01503673     0.03464179    -0.00921931
    172      1      O          -0.06794940     0.05657452    -0.04885523
    173      2      H           0.02670342    -0.00615375     0.01931610
    174      2      H          -0.00464681     0.00721596     0.03508102
    175      1      O          -0.03658328     0.02936040    -0.00110218
    176      2      H           0.02810887    -0.02452517     0.01760861
    177      2      H          -0.00328997    -0.01577334     0.04157856
    178      1      O          -0.02844815    -0.07342703     0.08358254
    179      2      H          -0.00268889    -0.01262897    -0.06888193
    180      2      H           0.01023571     0.01100365    -0.02957711
    181      1      O           0.08134481    -0.06916459    -0.09587442
    182      2      H           0.01355122    -0.02518721     0.03430409
    183      2      H          -0.04544579    -0.01479440     0.06360993
    184      1      O          -0.02375852     0.00400133     0.12336924
    185      2      H           0.00654207     0.03404400     0.02171124
    186      2      H           0.00176071     0.00880442    -0.03841625
    187      1      O           0.08642523     0.09623920     0.12887739
    188      2      H           0.01742201    -0.04617538    -0.03649662
    189      2      H          -0.10422712    -0.02169010    -0.02960098
    190      1      O           0.03788186    -0.06259212     0.03986369
    191      2      H          -0.01308082     0.02031131    -0.01359294
    192      2      H           0.00713454     0.01358975     0.02231509
 SUM OF ATOMIC FORCES          -0.16694762     0.45496743    -0.58802665     0.76199882

 -------------------------------------------------------------------------------
 -                                                                             -
 -                                DBCSR STATISTICS                             -
 -                                                                             -
 -------------------------------------------------------------------------------
 COUNTER                                    TOTAL       BLAS       SMM       ACC
 flops     5 x     5 x   256            910336000       0.0%    100.0%      0.0%
 flops    13 x     5 x   256           1142668800       0.0%    100.0%      0.0%
 flops     5 x    13 x   256           1162470400       0.0%    100.0%      0.0%
 flops    13 x    13 x   256           1580866560       0.0%    100.0%      0.0%
 flops inhomo. stacks                           0       0.0%      0.0%      0.0%
 flops total                         4.796342E+09       0.0%    100.0%      0.0%
 flops max/rank                      4.796342E+09       0.0%    100.0%      0.0%
 matmuls inhomo. stacks                         0       0.0%      0.0%      0.0%
 matmuls total                             158655       0.0%    100.0%      0.0%
 number of processed stacks                  2730       0.0%    100.0%      0.0%
 average stack size                                     0.0      58.1       0.0
 marketing flops                    38.828769E+09
 -------------------------------------------------------------------------------
 # multiplications                             35
 max memory usage/rank              25.807716E+09
 # max total images/rank                        1
 # max 3D layers                                1
 # MPI messages exchanged                       0
 MPI messages size (bytes):
  total size                         0.000000E+00
  min size                           0.000000E+00
  max size                           0.000000E+00
  average size                       0.000000E+00
 MPI breakdown and total messages size (bytes):
             size <=      128                   0                        0
       128 < size <=     8192                   0                        0
      8192 < size <=    32768                   0                        0
     32768 < size <=   131072                   0                        0
    131072 < size <=  4194304                   0                        0
   4194304 < size <= 16777216                   0                        0
  16777216 < size                               0                        0
 -------------------------------------------------------------------------------

 MEMORY| Estimated peak process memory [MiB]                               24614

 -------------------------------------------------------------------------------
 -                                                                             -
 -                           R E F E R E N C E S                               -
 -                                                                             -
 -------------------------------------------------------------------------------
 
 CP2K version 7.1, the CP2K developers group (2019).
 CP2K is freely available from https://www.cp2k.org/ .

 Schuett, Ole; Messmer, Peter; Hutter, Juerg; VandeVondele, Joost. 
 Electronic Structure Calculations on Graphics Processing Units, John
 Wiley & Sons, Ltd, 173-190 (2016). 
 GPU-Accelerated Sparse Matrix-Matrix Multiplication for
 Linear Scaling Density Functional Theory.
 https://dx.doi.org/10.1002/9781118670712.ch8

 Borstnik, U; VandeVondele, J; Weber, V; Hutter, J. 
 PARALLEL COMPUTING, 40 (5-6), 47-58 (2014). 
 Sparse matrix multiplication: The distributed block-compressed sparse
 row library.
 https://dx.doi.org/10.1016/j.parco.2014.03.012

 Hutter, J; Iannuzzi, M; Schiffmann, F; VandeVondele, J. 
 WIREs Comput Mol Sci., 4 (1), 15-25 (2014). 
 CP2K: atomistic simulations of condensed matter systems.
 https://dx.doi.org/10.1002/wcms.1159

 Krack, M. 
 THEORETICAL CHEMISTRY ACCOUNTS, 114 (1-3), 145-152 (2005). 
 Pseudopotentials for H to Kr optimized for gradient-corrected
 exchange-correlation functionals.
 https://dx.doi.org/10.1007/s00214-005-0655-y

 VandeVondele, J; Krack, M; Mohamed, F; Parrinello, M; Chassaing, T;
 Hutter, J. COMPUTER PHYSICS COMMUNICATIONS, 167 (2), 103-128 (2005). 
 QUICKSTEP: Fast and accurate density functional calculations using a
 mixed Gaussian and plane waves approach.
 https://dx.doi.org/10.1016/j.cpc.2004.12.014

 Frigo, M; Johnson, SG. 
 PROCEEDINGS OF THE IEEE, 93 (2), 216-231 (2005). 
 The design and implementation of FFTW3.
 https://dx.doi.org/10.1109/JPROC.2004.840301

 Hartwigsen, C; Goedecker, S; Hutter, J. 
 PHYSICAL REVIEW B, 58 (7), 3641-3662 (1998). 
 Relativistic separable dual-space Gaussian pseudopotentials from H to Rn.
 https://dx.doi.org/10.1103/PhysRevB.58.3641

 Lippert, G; Hutter, J; Parrinello, M. 
 MOLECULAR PHYSICS, 92 (3), 477-487 (1997). 
 A hybrid Gaussian and plane wave density functional scheme.
 https://dx.doi.org/10.1080/002689797170220

 Goedecker, S; Teter, M; Hutter, J. 
 PHYSICAL REVIEW B, 54 (3), 1703-1710 (1996). 
 Separable dual-space Gaussian pseudopotentials.
 https://dx.doi.org/10.1103/PhysRevB.54.1703


 -------------------------------------------------------------------------------
 -                                                                             -
 -                                T I M I N G                                  -
 -                                                                             -
 -------------------------------------------------------------------------------
 SUBROUTINE                       CALLS  ASD         SELF TIME        TOTAL TIME
                                MAXIMUM       AVERAGE  MAXIMUM  AVERAGE  MAXIMUM
 CP2K                                 1  1.0    0.618    0.618  825.567  825.567
 qs_forces                            1  2.0    0.000    0.000  814.644  814.644
 qs_energies                          1  3.0    0.000    0.000  810.169  810.169
 scf_env_do_scf                       1  4.0    0.000    0.000  798.640  798.640
 scf_env_do_scf_inner_loop           34  5.0    0.005    0.005  798.639  798.639
 gspace_mixing                       33  6.0    4.715    4.715  316.918  316.918
 broyden_mixing                      33  7.0  283.555  283.555  283.556  283.556
 qs_scf_new_mos                      34  6.0    0.001    0.001  222.434  222.434
 eigensolver                         34  7.0    0.003    0.003  211.197  211.197
 pw_transfer                        454  9.9    0.043    0.043  155.245  155.245
 fft_wrap_pw1pw2                    384 10.9    0.006    0.006  150.823  150.823
 rebuild_ks_matrix                   35  6.9    0.000    0.000  147.947  147.947
 qs_ks_build_kohn_sham_matrix        35  7.9    0.012    0.012  147.947  147.947
 cp_fm_syevd                         34  8.0  143.839  143.839  144.000  144.000
 qs_ks_update_qs_env                 34  6.0    0.000    0.000  143.925  143.925
 fft_wrap_pw1pw2_70                 174 11.2   11.146   11.146  136.078  136.078
 qs_rho_update_rho                   35  6.0    0.000    0.000  118.066  118.066
 calculate_rho_elec                  35  7.0   42.405   42.405  118.066  118.066
 fft3d_s                            385 12.8   75.720   75.720   75.729   75.729
 density_rs2pw                       35  8.0    0.003    0.003   74.353   74.353
 cp_fm_cholesky_restore             102  8.0   67.076   67.076   67.076   67.076
 sum_up_and_integrate                35  8.9    2.027    2.027   47.628   47.628
 pw_scatter_s                       208 13.1   47.043   47.043   47.043   47.043
 integrate_v_rspace                  35  9.9    3.017    3.017   45.601   45.601
 pw_poisson_solve                    35  8.9   37.971   37.971   42.645   42.645
 potential_pw2rs                     35 10.9    0.278    0.278   38.542   38.542
 qs_vxc_create                       35  8.9    0.001    0.001   21.658   21.658
 xc_vxc_pw_create                    35  9.9    4.881    4.881   21.657   21.657
 xc_rho_set_and_dset_create          35 10.9    0.002    0.002   16.775   16.775
 -------------------------------------------------------------------------------

 The number of warnings for this run is : 0
 
 -------------------------------------------------------------------------------
  **** **** ******  **  PROGRAM ENDED AT                 2020-05-21 06:59:30.925
 ***** ** ***  *** **   PROGRAM RAN ON                                   gnode39
 **    ****   ******    PROGRAM RAN BY                               mayank.modi
 ***** **    ** ** **   PROGRAM PROCESS ID                                 30346
  **** **  *******  **  PROGRAM STOPPED IN /home/mayank.modi/ab-initio-thermodyn
                                           amics-of-water/mayank/cp2k_energy_cal
                                           culations
