 DBCSR| CPU Multiplication driver                                           XSMM
 DBCSR| Multrec recursion limit                                              512
 DBCSR| Multiplication stack size                                           1000
 DBCSR| Maximum elements for images                                    UNLIMITED
 DBCSR| Multiplicative factor virtual images                                   1
 DBCSR| Use multiplication densification                                       T
 DBCSR| Multiplication size stacks                                             3


  **** **** ******  **  PROGRAM STARTED AT               2020-05-21 02:29:19.742
 ***** ** ***  *** **   PROGRAM STARTED ON                               gnode39
 **    ****   ******    PROGRAM STARTED BY                           mayank.modi
 ***** **    ** ** **   PROGRAM PROCESS ID                                 27050
  **** **  *******  **  PROGRAM STARTED IN /home/mayank.modi/ab-initio-thermodyn
                                           amics-of-water/mayank/cp2k_energy_cal
                                           culations

 CP2K| version string:                                          CP2K version 7.1
 CP2K| source code revision number:                                  git:e635599
 CP2K| cp2kflags: omp libint fftw3 libxc xsmm spglib                            
 CP2K| is freely available from                            https://www.cp2k.org/
 CP2K| Program compiled at                          Mon Dec 23 19:23:12 CET 2019
 CP2K| Program compiled on                                                pc9404
 CP2K| Program compiled for                                Linux-x86-64-gfortran
 CP2K| Data directory path                                        /opt/cp2k/data
 CP2K| Input file name                                              ./input43.in

 GLOBAL| Force Environment number                                              1
 GLOBAL| Basis set file name                                           BASIS_SET
 GLOBAL| Potential file name                                      GTH_POTENTIALS
 GLOBAL| MM Potential file name                                     MM_POTENTIAL
 GLOBAL| Coordinate file name                                      __STD_INPUT__
 GLOBAL| Method name                                                        CP2K
 GLOBAL| Project name                                                   H2O_bulk
 GLOBAL| Preferred FFT library                                             FFTW3
 GLOBAL| Preferred diagonalization lib.                                       SL
 GLOBAL| Run type                                                   ENERGY_FORCE
 GLOBAL| All-to-all communication in single precision                          F
 GLOBAL| FFTs using library dependent lengths                                  F
 GLOBAL| Global print level                                                  LOW
 GLOBAL| MPI I/O enabled                                                       T
 GLOBAL| Total number of message passing processes                             1
 GLOBAL| Number of threads for this process                                   20
 GLOBAL| This output is from process                                           0
 GLOBAL| CPU model name                Intel(R) Xeon(R) CPU E5-2640 v4 @ 2.40GHz
 GLOBAL| CPUID                                                              1002
 GLOBAL| Compiled for CPUID                                                    0

 MEMORY| system memory details [Kb]
 MEMORY|                        rank 0           min           max       average
 MEMORY| MemTotal            131898148     131898148     131898148     131898148
 MEMORY| MemFree              88703700      88703700      88703700      88703700
 MEMORY| Buffers               3187092       3187092       3187092       3187092
 MEMORY| Cached               34123732      34123732      34123732      34123732
 MEMORY| Slab                  3916156       3916156       3916156       3916156
 MEMORY| SReclaimable          3255660       3255660       3255660       3255660
 MEMORY| MemLikelyFree       129270184     129270184     129270184     129270184


 GENERATE|  Preliminary Number of Bonds generated:                             0
 GENERATE|  Achieved consistency in connectivity generation.

 *******************************************************************************
 *******************************************************************************
 **                                                                           **
 **     #####                         ##              ##                      **
 **    ##   ##            ##          ##              ##                      **
 **   ##     ##                       ##            ######                    **
 **   ##     ##  ##   ##  ##   #####  ##  ##   ####   ##    #####    #####    **
 **   ##     ##  ##   ##  ##  ##      ## ##   ##      ##   ##   ##  ##   ##   **
 **   ##  ## ##  ##   ##  ##  ##      ####     ###    ##   ######   ######    **
 **    ##  ###   ##   ##  ##  ##      ## ##      ##   ##   ##       ##        **
 **     #######   #####   ##   #####  ##  ##  ####    ##    #####   ##        **
 **           ##                                                    ##        **
 **                                                                           **
 **                                                ... make the atoms dance   **
 **                                                                           **
 **            Copyright (C) by CP2K developers group (2000 - 2019)           **
 **                                                                           **
 *******************************************************************************


 TOTAL NUMBERS AND MAXIMUM NUMBERS

  Total number of            - Atomic kinds:                                   2
                             - Atoms:                                        192
                             - Shell sets:                                   384
                             - Shells:                                       704
                             - Primitive Cartesian functions:                960
                             - Cartesian basis functions:                   1536
                             - Spherical basis functions:                   1472

  Maximum angular momentum of- Orbital basis functions:                        2
                             - Local part of the GTH pseudopotential:          2
                             - Non-local part of the GTH pseudopotential:      0


 SCF PARAMETERS         Density guess:                                    ATOMIC
                        --------------------------------------------------------
                        max_scf:                                             300
                        max_scf_history:                                       0
                        max_diis:                                              4
                        --------------------------------------------------------
                        eps_scf:                                        1.00E-07
                        eps_scf_history:                                0.00E+00
                        eps_diis:                                       1.00E-01
                        eps_eigval:                                     1.00E-05
                        --------------------------------------------------------
                        level_shift [a.u.]:                                 0.00
                        --------------------------------------------------------
                        Mixing method:                            BROYDEN_MIXING
                                                charge density mixing in g-space
                        --------------------------------------------------------
                        No outer SCF

 Number of electrons:                                                        512
 Number of occupied orbitals:                                                256
 Number of molecular orbitals:                                               256

 Number of orbital functions:                                               1472
 Number of independent orbital functions:                                   1472

 Extrapolation method: initial_guess


 SCF WAVEFUNCTION OPTIMIZATION

  Step     Update method      Time    Convergence         Total energy    Change
  ------------------------------------------------------------------------------
     1 NoMix/Diag. 0.40E+00   10.7     0.97457984     -1087.4429006194 -1.09E+03
     2 Broy./Diag. 0.40E+00   15.8     0.29264190     -1014.0477109721  7.34E+01
     3 Broy./Diag. 0.40E+00   17.9     0.02529278     -1094.8160080521 -8.08E+01
     4 Broy./Diag. 0.40E+00   18.5     0.02971866     -1094.4002006850  4.16E-01
     5 Broy./Diag. 0.40E+00   19.2     0.00248167     -1095.2939881407 -8.94E-01
     6 Broy./Diag. 0.40E+00   19.1     0.00427460     -1095.3160271528 -2.20E-02
     7 Broy./Diag. 0.40E+00   20.9     0.00266329     -1095.4556931949 -1.40E-01
     8 Broy./Diag. 0.40E+00   23.3     0.00457976     -1095.5704985311 -1.15E-01
     9 Broy./Diag. 0.40E+00   23.5     0.00401000     -1095.6601806377 -8.97E-02
    10 Broy./Diag. 0.40E+00   24.2     0.00208608     -1095.6852029463 -2.50E-02
    11 Broy./Diag. 0.40E+00   26.0     0.00150210     -1095.6613471358  2.39E-02
    12 Broy./Diag. 0.40E+00   25.2     0.00060485     -1095.6660500671 -4.70E-03
    13 Broy./Diag. 0.40E+00   25.0     0.00051439     -1095.6838763996 -1.78E-02
    14 Broy./Diag. 0.40E+00   24.8     0.00023656     -1095.6901295231 -6.25E-03
    15 Broy./Diag. 0.40E+00   25.4     0.00032155     -1095.6817048129  8.42E-03
    16 Broy./Diag. 0.40E+00   25.1     0.00012807     -1095.6810098214  6.95E-04
    17 Broy./Diag. 0.40E+00   25.0     0.00007503     -1095.6826872098 -1.68E-03
    18 Broy./Diag. 0.40E+00   25.2     0.00003179     -1095.6839481294 -1.26E-03
    19 Broy./Diag. 0.40E+00   24.8     0.00002740     -1095.6835793002  3.69E-04
    20 Broy./Diag. 0.40E+00   24.8     0.00002551     -1095.6826097670  9.70E-04
    21 Broy./Diag. 0.40E+00   24.6     0.00001035     -1095.6828886878 -2.79E-04
    22 Broy./Diag. 0.40E+00   24.6     0.00000610     -1095.6831477265 -2.59E-04
    23 Broy./Diag. 0.40E+00   25.2     0.00000737     -1095.6832042667 -5.65E-05
    24 Broy./Diag. 0.40E+00   24.6     0.00000172     -1095.6830708904  1.33E-04
    25 Broy./Diag. 0.40E+00   24.9     0.00000301     -1095.6829421989  1.29E-04
    26 Broy./Diag. 0.40E+00   24.9     0.00000115     -1095.6829652608 -2.31E-05
    27 Broy./Diag. 0.40E+00   25.5     0.00000106     -1095.6830051618 -3.99E-05
    28 Broy./Diag. 0.40E+00   24.7     0.00000078     -1095.6830029229  2.24E-06
    29 Broy./Diag. 0.40E+00   24.7     0.00000033     -1095.6829983048  4.62E-06
    30 Broy./Diag. 0.40E+00   25.1     0.00000035     -1095.6829952702  3.03E-06
    31 Broy./Diag. 0.40E+00   24.6     0.00000023     -1095.6830022229 -6.95E-06
    32 Broy./Diag. 0.40E+00   24.0     0.00000014     -1095.6830064750 -4.25E-06
    33 Broy./Diag. 0.40E+00   25.4     0.00000010     -1095.6830083712 -1.90E-06

  *** SCF run converged in    33 steps ***


  Electronic density on regular grids:       -511.9995965602        0.0004034398
  Core density on regular grids:              512.0001528523        0.0001528523
  Total charge density on r-space grids:        0.0005562921
  Total charge density g-space grids:           0.0005562921

  Overlap energy of the core charge distribution:               0.00000447179679
  Self energy of the core charge distribution:              -2838.21791979120962
  Core Hamiltonian energy:                                    821.15059719721660
  Hartree energy:                                            1186.08583552897403
  Exchange-correlation energy:                               -264.70152577798359

  Total energy:                                             -1095.68300837120591

 ENERGY| Total FORCE_EVAL ( QS ) energy (a.u.):            -1095.683007160327861


 ATOMIC FORCES in [a.u.]

 # Atom   Kind   Element          X              Y              Z
      1      1      O          -0.03160052    -0.09984119    -0.09668678
      2      2      H           0.03163626     0.03245780     0.03572386
      3      2      H           0.00037659     0.03109408     0.01510390
      4      1      O           0.02398831     0.04783421    -0.04818622
      5      2      H          -0.01066456    -0.01632369     0.04183282
      6      2      H           0.01646729    -0.04479002    -0.00548644
      7      1      O          -0.02100019    -0.03542475     0.16984077
      8      2      H           0.02218377    -0.03402285    -0.03455867
      9      2      H          -0.01289012     0.06330560    -0.05729320
     10      1      O           0.00195288    -0.06342510     0.04429682
     11      2      H          -0.01631378    -0.01881909    -0.00238862
     12      2      H           0.00294419     0.02153420     0.02524142
     13      1      O          -0.02789009     0.05668050     0.07905522
     14      2      H           0.00902868     0.00083016     0.02723307
     15      2      H           0.00634789    -0.00840535    -0.01700381
     16      1      O           0.05139261     0.09703954     0.05052059
     17      2      H           0.03044506    -0.04448389    -0.02702324
     18      2      H          -0.03644404     0.02643984     0.01086264
     19      1      O          -0.00691146     0.09916163     0.04267457
     20      2      H          -0.02522604    -0.01084806    -0.01120551
     21      2      H           0.00563521    -0.00697982    -0.02059306
     22      1      O          -0.01719753     0.03272886    -0.04347889
     23      2      H           0.00409710     0.00182644     0.02715424
     24      2      H          -0.00342393     0.01671205     0.06409351
     25      1      O           0.02645021     0.07661561    -0.06883819
     26      2      H          -0.03966527    -0.03629555    -0.00918860
     27      2      H           0.02632869    -0.00439528     0.00986058
     28      1      O           0.03667712    -0.00555911    -0.12102463
     29      2      H           0.01345649    -0.01726404     0.02128145
     30      2      H          -0.02409419    -0.00026489     0.01784764
     31      1      O           0.08384389    -0.00518872    -0.04256565
     32      2      H          -0.07718979     0.00624728     0.02157753
     33      2      H          -0.00320854     0.02946776    -0.01423699
     34      1      O          -0.01263750     0.07448569     0.00993529
     35      2      H          -0.00064003    -0.01927803     0.01927277
     36      2      H          -0.01362974    -0.01721854    -0.03257895
     37      1      O           0.00131928    -0.04042152     0.05170846
     38      2      H          -0.01430283     0.03962800    -0.07261797
     39      2      H          -0.04167850    -0.02752988     0.02293283
     40      1      O          -0.05030929     0.05635402    -0.07727713
     41      2      H           0.04657468     0.01970891     0.03469970
     42      2      H           0.01164976    -0.01993148     0.00519891
     43      1      O          -0.00627434    -0.03165267     0.05582352
     44      2      H           0.04435081     0.00771991     0.02115010
     45      2      H           0.01628820     0.03569398    -0.01400723
     46      1      O          -0.03229282    -0.07851863    -0.07230232
     47      2      H           0.02688118     0.02706241     0.00131155
     48      2      H           0.02654431    -0.03650217     0.01422513
     49      1      O          -0.01038554    -0.05414463    -0.04188034
     50      2      H           0.00834878    -0.01700231    -0.02839799
     51      2      H           0.02666835     0.00514547     0.04078975
     52      1      O           0.03646200    -0.05945890    -0.12337923
     53      2      H          -0.01442662     0.00732244    -0.00352625
     54      2      H          -0.01512881    -0.00185143    -0.03568392
     55      1      O           0.08865429    -0.05159092     0.03712875
     56      2      H           0.00881944    -0.00052709    -0.03729050
     57      2      H          -0.04199085    -0.03639490    -0.01007550
     58      1      O          -0.00116847    -0.07192650     0.01159355
     59      2      H          -0.00038425     0.01298291    -0.01644524
     60      2      H           0.00721022     0.01932298     0.03372948
     61      1      O          -0.03088758     0.03364676     0.03610527
     62      2      H           0.00039861     0.01265027    -0.04735131
     63      2      H          -0.00062983    -0.04158418     0.04150103
     64      1      O           0.02768880     0.06821668    -0.08594205
     65      2      H           0.01795551     0.00884261     0.02253368
     66      2      H          -0.02130831    -0.00830637    -0.03348486
     67      1      O          -0.05204903    -0.02125978    -0.06512336
     68      2      H           0.00843519     0.00704546     0.05768144
     69      2      H           0.00498904     0.05755450    -0.01069007
     70      1      O           0.04418503    -0.06732230     0.06405358
     71      2      H          -0.03746103     0.00767521    -0.01144595
     72      2      H          -0.00585306     0.01845302    -0.01802930
     73      1      O          -0.00576038     0.03806190     0.06211208
     74      2      H           0.01796227    -0.01539040    -0.00365593
     75      2      H          -0.00175812     0.02082284     0.00672505
     76      1      O          -0.00988687    -0.00055019    -0.07068800
     77      2      H          -0.01322025    -0.04368542    -0.01524293
     78      2      H           0.00705920    -0.02781700    -0.04709505
     79      1      O           0.01891922     0.05257846    -0.08168450
     80      2      H           0.00146459    -0.04235551    -0.02006481
     81      2      H          -0.00965135     0.05259659    -0.02138203
     82      1      O          -0.04809870     0.08105758    -0.05516105
     83      2      H           0.02796688    -0.00617918    -0.02830141
     84      2      H           0.05603211    -0.02053304     0.09169350
     85      1      O          -0.06168035    -0.04251411    -0.09750997
     86      2      H           0.05693600     0.03626195    -0.01743056
     87      2      H          -0.01169157     0.04953044     0.00960144
     88      1      O          -0.01413270    -0.05475166     0.10351437
     89      2      H           0.04590376    -0.02473676    -0.01385718
     90      2      H          -0.00829114     0.00159838    -0.03031779
     91      1      O           0.04615916     0.08112546    -0.08860083
     92      2      H           0.00987787     0.02648180     0.03950385
     93      2      H          -0.00352386     0.02320569     0.01620927
     94      1      O           0.00369545    -0.00400685    -0.05647244
     95      2      H           0.03752701     0.02961087    -0.02300340
     96      2      H          -0.00192040    -0.02262121     0.02614798
     97      1      O          -0.05409548    -0.05669285    -0.01966329
     98      2      H           0.01094948     0.00530061    -0.03169591
     99      2      H           0.01683775    -0.03813485    -0.02453091
    100      1      O          -0.00975747     0.05288120    -0.15130856
    101      2      H           0.01450062    -0.02047184     0.01253997
    102      2      H          -0.04386302    -0.03774531     0.03352006
    103      1      O          -0.04435253     0.00690137    -0.08853774
    104      2      H           0.01001797    -0.02149601    -0.03974163
    105      2      H           0.02467812     0.02499137    -0.03607943
    106      1      O          -0.05628342     0.06870187     0.13346400
    107      2      H           0.01907395     0.01471492     0.00139919
    108      2      H           0.01884567    -0.02711337     0.01489803
    109      1      O          -0.02957633     0.03422566     0.00346657
    110      2      H           0.04192109     0.03964208    -0.06074549
    111      2      H          -0.01139096    -0.00651127    -0.03600725
    112      1      O          -0.06295608     0.05249584    -0.06724676
    113      2      H           0.01442307    -0.01008407     0.08565971
    114      2      H           0.04268394    -0.02019201    -0.03706478
    115      1      O           0.03269075     0.02343520     0.00340235
    116      2      H          -0.01820401     0.03022283     0.02171791
    117      2      H           0.01391897     0.01253733     0.02127023
    118      1      O          -0.04270833     0.07570533     0.00938564
    119      2      H           0.04332829    -0.02065102     0.03380157
    120      2      H           0.00593163    -0.02206135     0.01688873
    121      1      O           0.01115088    -0.02452830    -0.11655473
    122      2      H           0.02482552    -0.06491244     0.00231751
    123      2      H          -0.02806415     0.03355521    -0.02252355
    124      1      O           0.01813253     0.03380153    -0.00137110
    125      2      H          -0.04930502     0.03948402     0.03787714
    126      2      H           0.02725728    -0.02651022     0.04618695
    127      1      O           0.05405750    -0.07535098     0.05817623
    128      2      H          -0.02093316    -0.00927004    -0.00034326
    129      2      H           0.00482572    -0.00521478     0.06242151
    130      1      O          -0.01503859     0.07102630     0.06699212
    131      2      H          -0.02252830     0.01104133    -0.01545858
    132      2      H           0.01098001    -0.01892932    -0.02788519
    133      1      O           0.03186908     0.08664767     0.08420675
    134      2      H          -0.01238145    -0.01202362    -0.00699052
    135      2      H          -0.02055466    -0.00411175    -0.04799746
    136      1      O          -0.12180236    -0.01080327     0.08050441
    137      2      H           0.08418149     0.09317357    -0.05085897
    138      2      H           0.00649200    -0.01163677    -0.04136937
    139      1      O           0.01596580     0.06930653    -0.07630719
    140      2      H          -0.03708673    -0.00665783     0.00598421
    141      2      H           0.00642167    -0.00517353     0.05049483
    142      1      O          -0.00068781    -0.00895769    -0.01958300
    143      2      H          -0.01766599     0.03795573     0.00988540
    144      2      H          -0.00651340    -0.01767489    -0.03861410
    145      1      O          -0.01265936     0.04266573    -0.10271046
    146      2      H          -0.02034806    -0.00841629    -0.02799541
    147      2      H          -0.00749079    -0.02337468     0.01322091
    148      1      O          -0.07153193    -0.09980430    -0.03523388
    149      2      H          -0.01630772     0.00246671     0.03070369
    150      2      H           0.08157272     0.04961329     0.00155967
    151      1      O          -0.01588648    -0.08375819    -0.00837488
    152      2      H           0.00953017    -0.01087615    -0.03000650
    153      2      H          -0.01953193    -0.00385869    -0.04036179
    154      1      O          -0.00569612    -0.01405802    -0.06399534
    155      2      H          -0.02039482     0.00169109     0.04314009
    156      2      H          -0.00647993    -0.04534354    -0.00783623
    157      1      O          -0.06197298     0.10168034    -0.06529983
    158      2      H           0.01125341     0.00993353     0.03337624
    159      2      H          -0.00180709     0.00874297    -0.03397990
    160      1      O           0.01562813    -0.03716985     0.04483974
    161      2      H          -0.00628324    -0.03272310    -0.00120500
    162      2      H          -0.01514284    -0.00868798     0.05817970
    163      1      O           0.00127922    -0.06680653    -0.05783271
    164      2      H          -0.00791902    -0.01971307     0.02562216
    165      2      H          -0.01193931     0.01031453    -0.05534941
    166      1      O           0.01616217     0.09743217     0.10648848
    167      2      H          -0.00475034     0.02194741    -0.02985510
    168      2      H           0.00710696    -0.04963160     0.02442989
    169      1      O           0.02083649    -0.01734889     0.01652994
    170      2      H          -0.04737843    -0.01778700     0.02478043
    171      2      H           0.02698876     0.04373252    -0.04797929
    172      1      O          -0.06304713     0.06610742     0.08777958
    173      2      H           0.04272173    -0.03849016     0.03818392
    174      2      H           0.00746612    -0.00321934     0.03475770
    175      1      O           0.00892906    -0.08293464    -0.12690394
    176      2      H           0.00714662    -0.02831220    -0.02386609
    177      2      H           0.01976973     0.03429448     0.02744841
    178      1      O          -0.06771600    -0.02442747     0.14760724
    179      2      H           0.04124034     0.06514605    -0.04791148
    180      2      H          -0.01230271    -0.02437744    -0.02008049
    181      1      O           0.08338849     0.09872574    -0.03750196
    182      2      H          -0.00095307     0.01507005    -0.03654512
    183      2      H          -0.07338720    -0.01373560    -0.06305522
    184      1      O          -0.03359257    -0.06849088     0.11319782
    185      2      H           0.00949634    -0.02466638    -0.01882701
    186      2      H           0.00570289    -0.01310670    -0.03039810
    187      1      O           0.04516461    -0.04786013     0.01313104
    188      2      H          -0.04192245    -0.01346801    -0.02231848
    189      2      H           0.01886160     0.02241950    -0.01073876
    190      1      O           0.04819667    -0.07695956    -0.07093344
    191      2      H          -0.05453672     0.11069754    -0.06178109
    192      2      H           0.00378113    -0.01110622     0.10177358
 SUM OF ATOMIC FORCES          -0.05913822     0.31953032    -0.84081739     0.90142711

 -------------------------------------------------------------------------------
 -                                                                             -
 -                                DBCSR STATISTICS                             -
 -                                                                             -
 -------------------------------------------------------------------------------
 COUNTER                                    TOTAL       BLAS       SMM       ACC
 flops     5 x     5 x   256            908262400       0.0%    100.0%      0.0%
 flops    13 x     5 x   256           1133783040       0.0%    100.0%      0.0%
 flops     5 x    13 x   256           1154150400       0.0%    100.0%      0.0%
 flops    13 x    13 x   256           1588654080       0.0%    100.0%      0.0%
 flops inhomo. stacks                           0       0.0%      0.0%      0.0%
 flops total                         4.784850E+09       0.0%    100.0%      0.0%
 flops max/rank                      4.784850E+09       0.0%    100.0%      0.0%
 matmuls inhomo. stacks                         0       0.0%      0.0%      0.0%
 matmuls total                             158066       0.0%    100.0%      0.0%
 number of processed stacks                  2652       0.0%    100.0%      0.0%
 average stack size                                     0.0      59.6       0.0
 marketing flops                    37.719376E+09
 -------------------------------------------------------------------------------
 # multiplications                             34
 max memory usage/rank              25.808097E+09
 # max total images/rank                        1
 # max 3D layers                                1
 # MPI messages exchanged                       0
 MPI messages size (bytes):
  total size                         0.000000E+00
  min size                           0.000000E+00
  max size                           0.000000E+00
  average size                       0.000000E+00
 MPI breakdown and total messages size (bytes):
             size <=      128                   0                        0
       128 < size <=     8192                   0                        0
      8192 < size <=    32768                   0                        0
     32768 < size <=   131072                   0                        0
    131072 < size <=  4194304                   0                        0
   4194304 < size <= 16777216                   0                        0
  16777216 < size                               0                        0
 -------------------------------------------------------------------------------

 MEMORY| Estimated peak process memory [MiB]                               24615

 -------------------------------------------------------------------------------
 -                                                                             -
 -                           R E F E R E N C E S                               -
 -                                                                             -
 -------------------------------------------------------------------------------
 
 CP2K version 7.1, the CP2K developers group (2019).
 CP2K is freely available from https://www.cp2k.org/ .

 Schuett, Ole; Messmer, Peter; Hutter, Juerg; VandeVondele, Joost. 
 Electronic Structure Calculations on Graphics Processing Units, John
 Wiley & Sons, Ltd, 173-190 (2016). 
 GPU-Accelerated Sparse Matrix-Matrix Multiplication for
 Linear Scaling Density Functional Theory.
 https://dx.doi.org/10.1002/9781118670712.ch8

 Borstnik, U; VandeVondele, J; Weber, V; Hutter, J. 
 PARALLEL COMPUTING, 40 (5-6), 47-58 (2014). 
 Sparse matrix multiplication: The distributed block-compressed sparse
 row library.
 https://dx.doi.org/10.1016/j.parco.2014.03.012

 Hutter, J; Iannuzzi, M; Schiffmann, F; VandeVondele, J. 
 WIREs Comput Mol Sci., 4 (1), 15-25 (2014). 
 CP2K: atomistic simulations of condensed matter systems.
 https://dx.doi.org/10.1002/wcms.1159

 Krack, M. 
 THEORETICAL CHEMISTRY ACCOUNTS, 114 (1-3), 145-152 (2005). 
 Pseudopotentials for H to Kr optimized for gradient-corrected
 exchange-correlation functionals.
 https://dx.doi.org/10.1007/s00214-005-0655-y

 VandeVondele, J; Krack, M; Mohamed, F; Parrinello, M; Chassaing, T;
 Hutter, J. COMPUTER PHYSICS COMMUNICATIONS, 167 (2), 103-128 (2005). 
 QUICKSTEP: Fast and accurate density functional calculations using a
 mixed Gaussian and plane waves approach.
 https://dx.doi.org/10.1016/j.cpc.2004.12.014

 Frigo, M; Johnson, SG. 
 PROCEEDINGS OF THE IEEE, 93 (2), 216-231 (2005). 
 The design and implementation of FFTW3.
 https://dx.doi.org/10.1109/JPROC.2004.840301

 Hartwigsen, C; Goedecker, S; Hutter, J. 
 PHYSICAL REVIEW B, 58 (7), 3641-3662 (1998). 
 Relativistic separable dual-space Gaussian pseudopotentials from H to Rn.
 https://dx.doi.org/10.1103/PhysRevB.58.3641

 Lippert, G; Hutter, J; Parrinello, M. 
 MOLECULAR PHYSICS, 92 (3), 477-487 (1997). 
 A hybrid Gaussian and plane wave density functional scheme.
 https://dx.doi.org/10.1080/002689797170220

 Goedecker, S; Teter, M; Hutter, J. 
 PHYSICAL REVIEW B, 54 (3), 1703-1710 (1996). 
 Separable dual-space Gaussian pseudopotentials.
 https://dx.doi.org/10.1103/PhysRevB.54.1703


 -------------------------------------------------------------------------------
 -                                                                             -
 -                                T I M I N G                                  -
 -                                                                             -
 -------------------------------------------------------------------------------
 SUBROUTINE                       CALLS  ASD         SELF TIME        TOTAL TIME
                                MAXIMUM       AVERAGE  MAXIMUM  AVERAGE  MAXIMUM
 CP2K                                 1  1.0    0.664    0.664  797.339  797.339
 qs_forces                            1  2.0    0.000    0.000  786.329  786.329
 qs_energies                          1  3.0    0.000    0.000  781.883  781.883
 scf_env_do_scf                       1  4.0    0.000    0.000  770.426  770.426
 scf_env_do_scf_inner_loop           33  5.0    0.005    0.005  770.426  770.426
 gspace_mixing                       32  6.0    4.492    4.492  300.041  300.041
 broyden_mixing                      32  7.0  267.935  267.935  267.935  267.935
 qs_scf_new_mos                      33  6.0    0.001    0.001  215.683  215.683
 eigensolver                         33  7.0    0.004    0.004  205.009  205.009
 pw_transfer                        441  9.9    0.042    0.042  151.413  151.413
 fft_wrap_pw1pw2                    373 10.9    0.005    0.005  147.242  147.242
 rebuild_ks_matrix                   34  6.9    0.000    0.000  146.207  146.207
 qs_ks_build_kohn_sham_matrix        34  7.9    0.010    0.010  146.207  146.207
 qs_ks_update_qs_env                 33  6.0    0.000    0.000  142.002  142.002
 cp_fm_syevd                         33  8.0  140.050  140.050  140.189  140.189
 fft_wrap_pw1pw2_70                 169 11.2   10.804   10.804  132.551  132.551
 qs_rho_update_rho                   34  6.0    0.000    0.000  115.365  115.365
 calculate_rho_elec                  34  7.0   42.052   42.052  115.365  115.365
 fft3d_s                            374 12.8   73.644   73.644   73.661   73.661
 density_rs2pw                       34  8.0    0.003    0.003   72.131   72.131
 cp_fm_cholesky_restore              99  8.0   64.703   64.703   64.703   64.703
 sum_up_and_integrate                34  8.9    2.304    2.304   48.285   48.285
 integrate_v_rspace                  34  9.9    3.001    3.001   45.981   45.981
 pw_scatter_s                       202 13.1   45.673   45.673   45.673   45.673
 pw_poisson_solve                    34  8.9   37.203   37.203   41.626   41.626
 potential_pw2rs                     34 10.9    0.286    0.286   39.151   39.151
 qs_vxc_create                       34  8.9    0.001    0.001   21.182   21.182
 xc_vxc_pw_create                    34  9.9    4.774    4.774   21.181   21.181
 xc_rho_set_and_dset_create          34 10.9    0.001    0.001   16.407   16.407
 -------------------------------------------------------------------------------

 The number of warnings for this run is : 0
 
 -------------------------------------------------------------------------------
  **** **** ******  **  PROGRAM ENDED AT                 2020-05-21 02:42:37.217
 ***** ** ***  *** **   PROGRAM RAN ON                                   gnode39
 **    ****   ******    PROGRAM RAN BY                               mayank.modi
 ***** **    ** ** **   PROGRAM PROCESS ID                                 27050
  **** **  *******  **  PROGRAM STOPPED IN /home/mayank.modi/ab-initio-thermodyn
                                           amics-of-water/mayank/cp2k_energy_cal
                                           culations
