 DBCSR| CPU Multiplication driver                                           XSMM
 DBCSR| Multrec recursion limit                                              512
 DBCSR| Multiplication stack size                                           1000
 DBCSR| Maximum elements for images                                    UNLIMITED
 DBCSR| Multiplicative factor virtual images                                   1
 DBCSR| Use multiplication densification                                       T
 DBCSR| Multiplication size stacks                                             3


  **** **** ******  **  PROGRAM STARTED AT               2020-05-21 06:20:22.976
 ***** ** ***  *** **   PROGRAM STARTED ON                               gnode39
 **    ****   ******    PROGRAM STARTED BY                           mayank.modi
 ***** **    ** ** **   PROGRAM PROCESS ID                                 29997
  **** **  *******  **  PROGRAM STARTED IN /home/mayank.modi/ab-initio-thermodyn
                                           amics-of-water/mayank/cp2k_energy_cal
                                           culations

 CP2K| version string:                                          CP2K version 7.1
 CP2K| source code revision number:                                  git:e635599
 CP2K| cp2kflags: omp libint fftw3 libxc xsmm spglib                            
 CP2K| is freely available from                            https://www.cp2k.org/
 CP2K| Program compiled at                          Mon Dec 23 19:23:12 CET 2019
 CP2K| Program compiled on                                                pc9404
 CP2K| Program compiled for                                Linux-x86-64-gfortran
 CP2K| Data directory path                                        /opt/cp2k/data
 CP2K| Input file name                                              ./input61.in

 GLOBAL| Force Environment number                                              1
 GLOBAL| Basis set file name                                           BASIS_SET
 GLOBAL| Potential file name                                      GTH_POTENTIALS
 GLOBAL| MM Potential file name                                     MM_POTENTIAL
 GLOBAL| Coordinate file name                                      __STD_INPUT__
 GLOBAL| Method name                                                        CP2K
 GLOBAL| Project name                                                   H2O_bulk
 GLOBAL| Preferred FFT library                                             FFTW3
 GLOBAL| Preferred diagonalization lib.                                       SL
 GLOBAL| Run type                                                   ENERGY_FORCE
 GLOBAL| All-to-all communication in single precision                          F
 GLOBAL| FFTs using library dependent lengths                                  F
 GLOBAL| Global print level                                                  LOW
 GLOBAL| MPI I/O enabled                                                       T
 GLOBAL| Total number of message passing processes                             1
 GLOBAL| Number of threads for this process                                   20
 GLOBAL| This output is from process                                           0
 GLOBAL| CPU model name                Intel(R) Xeon(R) CPU E5-2640 v4 @ 2.40GHz
 GLOBAL| CPUID                                                              1002
 GLOBAL| Compiled for CPUID                                                    0

 MEMORY| system memory details [Kb]
 MEMORY|                        rank 0           min           max       average
 MEMORY| MemTotal            131898148     131898148     131898148     131898148
 MEMORY| MemFree              88701996      88701996      88701996      88701996
 MEMORY| Buffers               3187100       3187100       3187100       3187100
 MEMORY| Cached               34124620      34124620      34124620      34124620
 MEMORY| Slab                  3916308       3916308       3916308       3916308
 MEMORY| SReclaimable          3255884       3255884       3255884       3255884
 MEMORY| MemLikelyFree       129269600     129269600     129269600     129269600


 GENERATE|  Preliminary Number of Bonds generated:                             0
 GENERATE|  Achieved consistency in connectivity generation.

 *******************************************************************************
 *******************************************************************************
 **                                                                           **
 **     #####                         ##              ##                      **
 **    ##   ##            ##          ##              ##                      **
 **   ##     ##                       ##            ######                    **
 **   ##     ##  ##   ##  ##   #####  ##  ##   ####   ##    #####    #####    **
 **   ##     ##  ##   ##  ##  ##      ## ##   ##      ##   ##   ##  ##   ##   **
 **   ##  ## ##  ##   ##  ##  ##      ####     ###    ##   ######   ######    **
 **    ##  ###   ##   ##  ##  ##      ## ##      ##   ##   ##       ##        **
 **     #######   #####   ##   #####  ##  ##  ####    ##    #####   ##        **
 **           ##                                                    ##        **
 **                                                                           **
 **                                                ... make the atoms dance   **
 **                                                                           **
 **            Copyright (C) by CP2K developers group (2000 - 2019)           **
 **                                                                           **
 *******************************************************************************


 TOTAL NUMBERS AND MAXIMUM NUMBERS

  Total number of            - Atomic kinds:                                   2
                             - Atoms:                                        192
                             - Shell sets:                                   384
                             - Shells:                                       704
                             - Primitive Cartesian functions:                960
                             - Cartesian basis functions:                   1536
                             - Spherical basis functions:                   1472

  Maximum angular momentum of- Orbital basis functions:                        2
                             - Local part of the GTH pseudopotential:          2
                             - Non-local part of the GTH pseudopotential:      0


 SCF PARAMETERS         Density guess:                                    ATOMIC
                        --------------------------------------------------------
                        max_scf:                                             300
                        max_scf_history:                                       0
                        max_diis:                                              4
                        --------------------------------------------------------
                        eps_scf:                                        1.00E-07
                        eps_scf_history:                                0.00E+00
                        eps_diis:                                       1.00E-01
                        eps_eigval:                                     1.00E-05
                        --------------------------------------------------------
                        level_shift [a.u.]:                                 0.00
                        --------------------------------------------------------
                        Mixing method:                            BROYDEN_MIXING
                                                charge density mixing in g-space
                        --------------------------------------------------------
                        No outer SCF

 Number of electrons:                                                        512
 Number of occupied orbitals:                                                256
 Number of molecular orbitals:                                               256

 Number of orbital functions:                                               1472
 Number of independent orbital functions:                                   1472

 Extrapolation method: initial_guess


 SCF WAVEFUNCTION OPTIMIZATION

  Step     Update method      Time    Convergence         Total energy    Change
  ------------------------------------------------------------------------------
     1 NoMix/Diag. 0.40E+00   10.9     1.01352476     -1087.4258210605 -1.09E+03
     2 Broy./Diag. 0.40E+00   16.2     0.29434496     -1013.5398964052  7.39E+01
     3 Broy./Diag. 0.40E+00   17.3     0.02955086     -1094.7479432602 -8.12E+01
     4 Broy./Diag. 0.40E+00   18.4     0.02784058     -1094.3588462350  3.89E-01
     5 Broy./Diag. 0.40E+00   19.5     0.00231298     -1095.2461636203 -8.87E-01
     6 Broy./Diag. 0.40E+00   20.4     0.00453846     -1095.2643968788 -1.82E-02
     7 Broy./Diag. 0.40E+00   21.4     0.00291429     -1095.4125312391 -1.48E-01
     8 Broy./Diag. 0.40E+00   22.0     0.00421321     -1095.5337223270 -1.21E-01
     9 Broy./Diag. 0.40E+00   23.8     0.00325819     -1095.6208782591 -8.72E-02
    10 Broy./Diag. 0.40E+00   25.0     0.00180272     -1095.6518765901 -3.10E-02
    11 Broy./Diag. 0.40E+00   24.6     0.00155560     -1095.6213302904  3.05E-02
    12 Broy./Diag. 0.40E+00   26.2     0.00054984     -1095.6271376360 -5.81E-03
    13 Broy./Diag. 0.40E+00   26.3     0.00051294     -1095.6483134399 -2.12E-02
    14 Broy./Diag. 0.40E+00   24.7     0.00023650     -1095.6510109399 -2.70E-03
    15 Broy./Diag. 0.40E+00   24.0     0.00027156     -1095.6435404121  7.47E-03
    16 Broy./Diag. 0.40E+00   24.4     0.00013552     -1095.6433359859  2.04E-04
    17 Broy./Diag. 0.40E+00   26.4     0.00007017     -1095.6444300677 -1.09E-03
    18 Broy./Diag. 0.40E+00   24.5     0.00004130     -1095.6450944179 -6.64E-04
    19 Broy./Diag. 0.40E+00   25.1     0.00002106     -1095.6451416328 -4.72E-05
    20 Broy./Diag. 0.40E+00   24.2     0.00001555     -1095.6444111117  7.31E-04
    21 Broy./Diag. 0.40E+00   24.4     0.00001461     -1095.6444757021 -6.46E-05
    22 Broy./Diag. 0.40E+00   25.0     0.00000577     -1095.6445816300 -1.06E-04
    23 Broy./Diag. 0.40E+00   24.4     0.00000748     -1095.6445827652 -1.14E-06
    24 Broy./Diag. 0.40E+00   24.5     0.00000239     -1095.6445353868  4.74E-05
    25 Broy./Diag. 0.40E+00   25.3     0.00000304     -1095.6445138470  2.15E-05
    26 Broy./Diag. 0.40E+00   24.5     0.00000124     -1095.6445622860 -4.84E-05
    27 Broy./Diag. 0.40E+00   24.5     0.00000101     -1095.6445858926 -2.36E-05
    28 Broy./Diag. 0.40E+00   25.4     0.00000089     -1095.6445954749 -9.58E-06
    29 Broy./Diag. 0.40E+00   24.3     0.00000038     -1095.6445897166  5.76E-06
    30 Broy./Diag. 0.40E+00   25.0     0.00000023     -1095.6445859491  3.77E-06
    31 Broy./Diag. 0.40E+00   25.4     0.00000020     -1095.6445867959 -8.47E-07
    32 Broy./Diag. 0.40E+00   24.5     0.00000008     -1095.6445885183 -1.72E-06

  *** SCF run converged in    32 steps ***


  Electronic density on regular grids:       -511.9997464544        0.0002535456
  Core density on regular grids:              511.9998583762       -0.0001416238
  Total charge density on r-space grids:        0.0001119217
  Total charge density g-space grids:           0.0001119217

  Overlap energy of the core charge distribution:               0.00000497131176
  Self energy of the core charge distribution:              -2838.21791979120962
  Core Hamiltonian energy:                                    821.53379725228558
  Hartree energy:                                            1185.82633091566527
  Exchange-correlation energy:                               -264.78680186637456

  Total energy:                                             -1095.64458851832160

 ENERGY| Total FORCE_EVAL ( QS ) energy (a.u.):            -1095.644589798289189


 ATOMIC FORCES in [a.u.]

 # Atom   Kind   Element          X              Y              Z
      1      1      O           0.00258694     0.08254533    -0.10161258
      2      2      H           0.00027908     0.01020643    -0.01245909
      3      2      H          -0.00653911    -0.00093836    -0.02807636
      4      1      O           0.02254930     0.02308284     0.08002177
      5      2      H          -0.02999583     0.05552675    -0.00482736
      6      2      H          -0.00302644     0.00871382     0.01733623
      7      1      O          -0.00844120    -0.02150377    -0.08344725
      8      2      H           0.01921290    -0.02572504     0.02437537
      9      2      H          -0.00600061     0.01401478    -0.02746650
     10      1      O          -0.04617358     0.06621491    -0.08236579
     11      2      H           0.05080000    -0.02853226     0.08766062
     12      2      H           0.02775806     0.00609294    -0.06320263
     13      1      O           0.01790498    -0.09650594     0.03718551
     14      2      H          -0.00184325     0.03864159     0.04108069
     15      2      H          -0.03431582     0.00757501    -0.03006369
     16      1      O          -0.01159431     0.05368223    -0.11104711
     17      2      H           0.01134368     0.00586692    -0.03523028
     18      2      H          -0.01670838     0.00025940     0.05063628
     19      1      O           0.02474639     0.05784430     0.03730716
     20      2      H          -0.00102635     0.02218262     0.02424491
     21      2      H          -0.01746142     0.03339038     0.04314021
     22      1      O           0.01716295    -0.01725812    -0.11555146
     23      2      H          -0.01200297    -0.01137923     0.02941282
     24      2      H          -0.00319757    -0.01902558     0.04744623
     25      1      O           0.03271334    -0.00396460     0.07133994
     26      2      H           0.01471992    -0.01014781    -0.01293067
     27      2      H          -0.01843810    -0.02412526    -0.01257380
     28      1      O           0.01563795    -0.02706521     0.00503548
     29      2      H          -0.00567852    -0.01935694     0.04632619
     30      2      H           0.01206230     0.00407692    -0.02904025
     31      1      O          -0.03074574     0.01507791    -0.08975303
     32      2      H           0.01454663     0.00177991     0.02940579
     33      2      H           0.00397175    -0.02449099    -0.06219049
     34      1      O          -0.01425322     0.09411561     0.10386032
     35      2      H           0.00101901    -0.02614175     0.01890809
     36      2      H          -0.00165985    -0.00885249    -0.02898374
     37      1      O           0.02237111    -0.05265986     0.10718232
     38      2      H          -0.03306205     0.01935249    -0.02615319
     39      2      H          -0.02572186    -0.04091327    -0.02521655
     40      1      O          -0.07007537    -0.04709781     0.01642787
     41      2      H           0.03005346    -0.03254890     0.03325475
     42      2      H           0.02179047    -0.00069521    -0.01229184
     43      1      O          -0.00559486    -0.00332786     0.10973866
     44      2      H           0.01303925    -0.02557092    -0.02023593
     45      2      H           0.02661671     0.00350700     0.00190875
     46      1      O           0.03257933    -0.01482746     0.11269135
     47      2      H           0.01364402    -0.06167430    -0.02196855
     48      2      H          -0.00872851     0.02647854     0.00885789
     49      1      O          -0.03102017     0.04289805    -0.11079103
     50      2      H          -0.00950119     0.00904302    -0.01614011
     51      2      H           0.04588635    -0.03357116    -0.00119519
     52      1      O           0.03850405     0.07696948     0.11863851
     53      2      H           0.01212868    -0.03308594    -0.04143832
     54      2      H          -0.02794904     0.00451691    -0.00184802
     55      1      O           0.00373651    -0.01426575     0.09081096
     56      2      H           0.00461175     0.00496564     0.00566546
     57      2      H          -0.02934526     0.01615454     0.02429594
     58      1      O           0.11677842     0.05997480     0.07318923
     59      2      H          -0.06381956     0.02451228     0.02172108
     60      2      H          -0.02499384    -0.01050174    -0.07479084
     61      1      O           0.01535317     0.08528504     0.06954347
     62      2      H          -0.00221126    -0.02429746    -0.03176526
     63      2      H           0.01019573    -0.02147155    -0.01229612
     64      1      O          -0.02401820     0.05458781    -0.07468433
     65      2      H           0.02858093    -0.02152870    -0.03361637
     66      2      H          -0.00711291    -0.03141817    -0.03566101
     67      1      O          -0.03417376    -0.02180775    -0.12491276
     68      2      H          -0.01858387     0.01346347     0.05810073
     69      2      H           0.02984228    -0.00895217     0.04704524
     70      1      O           0.00375047    -0.07947612     0.11794341
     71      2      H          -0.00927718    -0.02721949     0.02659810
     72      2      H           0.03089200     0.03891108    -0.06301974
     73      1      O          -0.01666095     0.09008453     0.10341194
     74      2      H           0.01990810    -0.03199946    -0.03469155
     75      2      H          -0.00461501    -0.04028677     0.00214971
     76      1      O           0.02852461     0.10128139    -0.01866166
     77      2      H           0.01325463    -0.03306741    -0.06018555
     78      2      H          -0.00721857    -0.04871565     0.04924902
     79      1      O          -0.02298973     0.04891212    -0.03424974
     80      2      H           0.01933844     0.04447856    -0.04390171
     81      2      H          -0.01370635    -0.01055792    -0.02110350
     82      1      O          -0.06504193    -0.04774699    -0.11864306
     83      2      H           0.00830982    -0.03126729    -0.03296628
     84      2      H           0.01615518     0.00019345     0.01193291
     85      1      O          -0.01161050    -0.00601778     0.12903869
     86      2      H           0.06539260     0.01525896     0.00937435
     87      2      H          -0.01750491     0.07508205    -0.01954891
     88      1      O          -0.00057292    -0.08744944     0.02683648
     89      2      H          -0.01834264     0.02309673     0.03065491
     90      2      H           0.03268298     0.00182897    -0.03843412
     91      1      O          -0.01195372     0.03705883     0.06738556
     92      2      H          -0.01731614     0.03160914    -0.01697946
     93      2      H          -0.00410110    -0.02738610    -0.01521626
     94      1      O          -0.03700545     0.01395924    -0.01051446
     95      2      H           0.04536780    -0.03773898     0.04843557
     96      2      H          -0.01107390    -0.04965117    -0.02626149
     97      1      O          -0.09359016    -0.02055807    -0.01516697
     98      2      H          -0.00023072     0.02575872     0.01304991
     99      2      H           0.08665613    -0.03715422    -0.02748458
    100      1      O          -0.06864845    -0.07434062    -0.16951902
    101      2      H           0.08714699    -0.00704165     0.02242184
    102      2      H          -0.04287745     0.02544683     0.01347649
    103      1      O           0.01774064    -0.09378018    -0.02038703
    104      2      H           0.01673280    -0.02285246    -0.04039530
    105      2      H           0.01221646     0.00576280     0.02639199
    106      1      O          -0.01058774     0.11236592     0.02763588
    107      2      H          -0.00122970    -0.01939702     0.01454334
    108      2      H           0.03951092    -0.06688337    -0.01964187
    109      1      O          -0.01953421    -0.03191056    -0.03841708
    110      2      H           0.01819660     0.03586961    -0.03426446
    111      2      H          -0.00914414    -0.01548120    -0.02689244
    112      1      O          -0.02016367    -0.04310588     0.00051759
    113      2      H           0.00031677     0.01105425    -0.00793800
    114      2      H           0.03355447     0.00684529    -0.00677748
    115      1      O           0.00355747     0.02327096    -0.01264628
    116      2      H          -0.02402939     0.02636954     0.03865395
    117      2      H           0.01095660    -0.02365305     0.00916477
    118      1      O          -0.06234997     0.02558108    -0.07849664
    119      2      H           0.01767050     0.03068902     0.00622855
    120      2      H           0.02990837    -0.00029596    -0.06800350
    121      1      O           0.01075292    -0.02382121     0.06880046
    122      2      H           0.01994586    -0.01986772     0.04861360
    123      2      H          -0.00858747    -0.02615527     0.01724609
    124      1      O          -0.00028683     0.09662114     0.07742383
    125      2      H          -0.04205069    -0.02927232    -0.00786671
    126      2      H           0.00398439     0.00146132     0.03728874
    127      1      O           0.03899987    -0.00479240     0.08889636
    128      2      H          -0.02226047     0.00670525     0.02620034
    129      2      H          -0.00444878     0.00143201     0.04930128
    130      1      O           0.02220105     0.00038541    -0.12357068
    131      2      H          -0.01480517    -0.01656510     0.05354272
    132      2      H           0.03506511     0.00438555     0.01742423
    133      1      O          -0.02367657     0.01322724     0.10402341
    134      2      H           0.01068041    -0.02202768     0.02238289
    135      2      H           0.01484333    -0.00857542    -0.05472589
    136      1      O          -0.05280681    -0.03245923    -0.06363623
    137      2      H           0.02481082     0.02638219    -0.00822204
    138      2      H           0.00095054     0.00022117     0.01545250
    139      1      O           0.05116961     0.07214168    -0.05002118
    140      2      H          -0.04562303    -0.04309422     0.06460359
    141      2      H          -0.00667019    -0.04505346    -0.03258216
    142      1      O          -0.01584556    -0.01287786     0.12692428
    143      2      H          -0.01047383    -0.00914840     0.02863077
    144      2      H           0.02825550     0.00293672    -0.05741411
    145      1      O          -0.02068566     0.00720635    -0.16708833
    146      2      H           0.00671510    -0.02469427     0.01276065
    147      2      H           0.04011907     0.02669508     0.06792711
    148      1      O           0.02403287    -0.11860959     0.13081387
    149      2      H          -0.02514738    -0.02848861     0.01566107
    150      2      H           0.02181467     0.07587840    -0.07268932
    151      1      O          -0.05444356    -0.05350187     0.16964115
    152      2      H           0.04963305    -0.01798431    -0.06491841
    153      2      H          -0.01388058     0.08489278    -0.05800930
    154      1      O           0.00444458    -0.02425723     0.11844014
    155      2      H           0.03906147     0.02132085    -0.00331368
    156      2      H          -0.04542189    -0.02842731     0.00332319
    157      1      O           0.00761059     0.08755708     0.06312741
    158      2      H           0.04472562     0.01858533     0.03086046
    159      2      H          -0.01475144    -0.03385547     0.03888537
    160      1      O          -0.00267088    -0.06103059     0.15110494
    161      2      H           0.00343005    -0.01548594     0.01503501
    162      2      H          -0.03272126    -0.00741738    -0.11088791
    163      1      O          -0.05340687    -0.09249779     0.12434254
    164      2      H          -0.00394373     0.03449719     0.04522149
    165      2      H           0.02994293     0.03505718    -0.05017923
    166      1      O          -0.01136077     0.07741001    -0.08818439
    167      2      H           0.02341650     0.03465790    -0.04923052
    168      2      H           0.01101640    -0.04404928     0.01339993
    169      1      O          -0.00904159    -0.08053107    -0.06909694
    170      2      H          -0.01174189    -0.02282659    -0.03317266
    171      2      H           0.02135015     0.01261064    -0.04291099
    172      1      O          -0.00598885     0.04781207     0.13530760
    173      2      H          -0.01317130    -0.01645696    -0.00532108
    174      2      H           0.03317844     0.06883763    -0.04759744
    175      1      O          -0.08945161     0.00823801    -0.03863374
    176      2      H          -0.01079286     0.01066050    -0.03317092
    177      2      H           0.07647705     0.01989298     0.08069833
    178      1      O           0.06923577     0.05292008     0.20610600
    179      2      H           0.00455330     0.04265764    -0.07571909
    180      2      H          -0.05485795    -0.08886352    -0.04392617
    181      1      O           0.02789812    -0.09905340    -0.12393457
    182      2      H           0.01149122     0.00082685    -0.03903012
    183      2      H          -0.02546418     0.00649656     0.02326249
    184      1      O          -0.02218621     0.05371437    -0.10317885
    185      2      H          -0.03143135     0.01143774    -0.02161107
    186      2      H           0.02054657     0.01537211    -0.01035731
    187      1      O           0.08636037    -0.06701977     0.09931159
    188      2      H           0.00746979     0.04354291    -0.00005035
    189      2      H          -0.05234254     0.01793461    -0.01410647
    190      1      O           0.01786610    -0.09643867     0.04375073
    191      2      H          -0.02682391     0.06254114     0.03575655
    192      2      H          -0.02233150     0.01764953    -0.01583961
 SUM OF ATOMIC FORCES           0.14853216    -0.07929211     0.46395039     0.49355750

 -------------------------------------------------------------------------------
 -                                                                             -
 -                                DBCSR STATISTICS                             -
 -                                                                             -
 -------------------------------------------------------------------------------
 COUNTER                                    TOTAL       BLAS       SMM       ACC
 flops     5 x     5 x   256            863808000       0.0%    100.0%      0.0%
 flops     5 x    13 x   256           1090552320       0.0%    100.0%      0.0%
 flops    13 x     5 x   256           1090552320       0.0%    100.0%      0.0%
 flops    13 x    13 x   256           1493386752       0.0%    100.0%      0.0%
 flops inhomo. stacks                           0       0.0%      0.0%      0.0%
 flops total                         4.538299E+09       0.0%    100.0%      0.0%
 flops max/rank                      4.538299E+09       0.0%    100.0%      0.0%
 matmuls inhomo. stacks                         0       0.0%      0.0%      0.0%
 matmuls total                             150282       0.0%    100.0%      0.0%
 number of processed stacks                  2574       0.0%    100.0%      0.0%
 average stack size                                     0.0      58.4       0.0
 marketing flops                    36.609982E+09
 -------------------------------------------------------------------------------
 # multiplications                             33
 max memory usage/rank              25.807757E+09
 # max total images/rank                        1
 # max 3D layers                                1
 # MPI messages exchanged                       0
 MPI messages size (bytes):
  total size                         0.000000E+00
  min size                           0.000000E+00
  max size                           0.000000E+00
  average size                       0.000000E+00
 MPI breakdown and total messages size (bytes):
             size <=      128                   0                        0
       128 < size <=     8192                   0                        0
      8192 < size <=    32768                   0                        0
     32768 < size <=   131072                   0                        0
    131072 < size <=  4194304                   0                        0
   4194304 < size <= 16777216                   0                        0
  16777216 < size                               0                        0
 -------------------------------------------------------------------------------

 MEMORY| Estimated peak process memory [MiB]                               24614

 -------------------------------------------------------------------------------
 -                                                                             -
 -                           R E F E R E N C E S                               -
 -                                                                             -
 -------------------------------------------------------------------------------
 
 CP2K version 7.1, the CP2K developers group (2019).
 CP2K is freely available from https://www.cp2k.org/ .

 Schuett, Ole; Messmer, Peter; Hutter, Juerg; VandeVondele, Joost. 
 Electronic Structure Calculations on Graphics Processing Units, John
 Wiley & Sons, Ltd, 173-190 (2016). 
 GPU-Accelerated Sparse Matrix-Matrix Multiplication for
 Linear Scaling Density Functional Theory.
 https://dx.doi.org/10.1002/9781118670712.ch8

 Borstnik, U; VandeVondele, J; Weber, V; Hutter, J. 
 PARALLEL COMPUTING, 40 (5-6), 47-58 (2014). 
 Sparse matrix multiplication: The distributed block-compressed sparse
 row library.
 https://dx.doi.org/10.1016/j.parco.2014.03.012

 Hutter, J; Iannuzzi, M; Schiffmann, F; VandeVondele, J. 
 WIREs Comput Mol Sci., 4 (1), 15-25 (2014). 
 CP2K: atomistic simulations of condensed matter systems.
 https://dx.doi.org/10.1002/wcms.1159

 Krack, M. 
 THEORETICAL CHEMISTRY ACCOUNTS, 114 (1-3), 145-152 (2005). 
 Pseudopotentials for H to Kr optimized for gradient-corrected
 exchange-correlation functionals.
 https://dx.doi.org/10.1007/s00214-005-0655-y

 VandeVondele, J; Krack, M; Mohamed, F; Parrinello, M; Chassaing, T;
 Hutter, J. COMPUTER PHYSICS COMMUNICATIONS, 167 (2), 103-128 (2005). 
 QUICKSTEP: Fast and accurate density functional calculations using a
 mixed Gaussian and plane waves approach.
 https://dx.doi.org/10.1016/j.cpc.2004.12.014

 Frigo, M; Johnson, SG. 
 PROCEEDINGS OF THE IEEE, 93 (2), 216-231 (2005). 
 The design and implementation of FFTW3.
 https://dx.doi.org/10.1109/JPROC.2004.840301

 Hartwigsen, C; Goedecker, S; Hutter, J. 
 PHYSICAL REVIEW B, 58 (7), 3641-3662 (1998). 
 Relativistic separable dual-space Gaussian pseudopotentials from H to Rn.
 https://dx.doi.org/10.1103/PhysRevB.58.3641

 Lippert, G; Hutter, J; Parrinello, M. 
 MOLECULAR PHYSICS, 92 (3), 477-487 (1997). 
 A hybrid Gaussian and plane wave density functional scheme.
 https://dx.doi.org/10.1080/002689797170220

 Goedecker, S; Teter, M; Hutter, J. 
 PHYSICAL REVIEW B, 54 (3), 1703-1710 (1996). 
 Separable dual-space Gaussian pseudopotentials.
 https://dx.doi.org/10.1103/PhysRevB.54.1703


 -------------------------------------------------------------------------------
 -                                                                             -
 -                                T I M I N G                                  -
 -                                                                             -
 -------------------------------------------------------------------------------
 SUBROUTINE                       CALLS  ASD         SELF TIME        TOTAL TIME
                                MAXIMUM       AVERAGE  MAXIMUM  AVERAGE  MAXIMUM
 CP2K                                 1  1.0    0.650    0.650  773.088  773.088
 qs_forces                            1  2.0    0.000    0.000  762.190  762.190
 qs_energies                          1  3.0    0.000    0.000  757.712  757.712
 scf_env_do_scf                       1  4.0    0.000    0.000  746.194  746.194
 scf_env_do_scf_inner_loop           32  5.0    0.005    0.005  746.194  746.194
 gspace_mixing                       31  6.0    4.322    4.322  289.621  289.621
 broyden_mixing                      31  7.0  258.355  258.355  258.355  258.355
 qs_scf_new_mos                      32  6.0    0.001    0.001  209.694  209.694
 eigensolver                         32  7.0    0.004    0.004  198.353  198.353
 pw_transfer                        428  9.9    0.040    0.040  146.248  146.248
 fft_wrap_pw1pw2                    362 10.9    0.006    0.006  142.203  142.203
 rebuild_ks_matrix                   33  6.9    0.000    0.000  141.255  141.255
 qs_ks_build_kohn_sham_matrix        33  7.9    0.009    0.009  141.254  141.254
 qs_ks_update_qs_env                 32  6.0    0.000    0.000  136.974  136.974
 cp_fm_syevd                         32  8.0  134.709  134.709  134.855  134.855
 fft_wrap_pw1pw2_70                 164 11.2   10.404   10.404  128.315  128.315
 qs_rho_update_rho                   33  6.0    0.000    0.000  112.633  112.633
 calculate_rho_elec                  33  7.0   41.349   41.349  112.633  112.633
 fft3d_s                            363 12.8   71.275   71.275   71.299   71.299
 density_rs2pw                       33  8.0    0.004    0.004   70.047   70.047
 cp_fm_cholesky_restore              96  8.0   63.385   63.385   63.385   63.385
 sum_up_and_integrate                33  8.9    2.260    2.260   47.123   47.123
 integrate_v_rspace                  33  9.9    2.984    2.984   44.863   44.863
 pw_scatter_s                       196 13.1   44.174   44.174   44.174   44.174
 pw_poisson_solve                    33  8.9   35.954   35.954   40.255   40.255
 potential_pw2rs                     33 10.9    0.260    0.260   37.728   37.728
 qs_vxc_create                       33  8.9    0.001    0.001   20.232   20.232
 xc_vxc_pw_create                    33  9.9    4.610    4.610   20.231   20.231
 xc_rho_set_and_dset_create          33 10.9    0.001    0.001   15.621   15.621
 -------------------------------------------------------------------------------

 The number of warnings for this run is : 0
 
 -------------------------------------------------------------------------------
  **** **** ******  **  PROGRAM ENDED AT                 2020-05-21 06:33:16.172
 ***** ** ***  *** **   PROGRAM RAN ON                                   gnode39
 **    ****   ******    PROGRAM RAN BY                               mayank.modi
 ***** **    ** ** **   PROGRAM PROCESS ID                                 29997
  **** **  *******  **  PROGRAM STOPPED IN /home/mayank.modi/ab-initio-thermodyn
                                           amics-of-water/mayank/cp2k_energy_cal
                                           culations
