 DBCSR| CPU Multiplication driver                                           XSMM
 DBCSR| Multrec recursion limit                                              512
 DBCSR| Multiplication stack size                                           1000
 DBCSR| Maximum elements for images                                    UNLIMITED
 DBCSR| Multiplicative factor virtual images                                   1
 DBCSR| Use multiplication densification                                       T
 DBCSR| Multiplication size stacks                                             3


  **** **** ******  **  PROGRAM STARTED AT               2021-02-23 00:36:16.926
 ***** ** ***  *** **   PROGRAM STARTED ON                               gnode68
 **    ****   ******    PROGRAM STARTED BY                           mayank.modi
 ***** **    ** ** **   PROGRAM PROCESS ID                                 27971
  **** **  *******  **  PROGRAM STARTED IN /home/mayank.modi/ab-initio-thermodyn
                                           amics-of-water/mayank/cp2k_energy_cal
                                           culations

 CP2K| version string:                                          CP2K version 7.1
 CP2K| source code revision number:                                  git:e635599
 CP2K| cp2kflags: omp libint fftw3 libxc xsmm spglib                            
 CP2K| is freely available from                            https://www.cp2k.org/
 CP2K| Program compiled at                          Mon Dec 23 19:23:12 CET 2019
 CP2K| Program compiled on                                                pc9404
 CP2K| Program compiled for                                Linux-x86-64-gfortran
 CP2K| Data directory path                                        /opt/cp2k/data
 CP2K| Input file name                  input_training_correct_cell/input1440.in

 GLOBAL| Force Environment number                                              1
 GLOBAL| Basis set file name                                           BASIS_SET
 GLOBAL| Potential file name                                      GTH_POTENTIALS
 GLOBAL| MM Potential file name                                     MM_POTENTIAL
 GLOBAL| Coordinate file name                                      __STD_INPUT__
 GLOBAL| Method name                                                        CP2K
 GLOBAL| Project name                                                   H2O_bulk
 GLOBAL| Preferred FFT library                                             FFTW3
 GLOBAL| Preferred diagonalization lib.                                       SL
 GLOBAL| Run type                                                   ENERGY_FORCE
 GLOBAL| All-to-all communication in single precision                          F
 GLOBAL| FFTs using library dependent lengths                                  F
 GLOBAL| Global print level                                                  LOW
 GLOBAL| MPI I/O enabled                                                       T
 GLOBAL| Total number of message passing processes                             1
 GLOBAL| Number of threads for this process                                   36
 GLOBAL| This output is from process                                           0
 GLOBAL| CPU model name                Intel(R) Xeon(R) CPU E5-2640 v4 @ 2.40GHz
 GLOBAL| CPUID                                                              1002
 GLOBAL| Compiled for CPUID                                                    0

 MEMORY| system memory details [Kb]
 MEMORY|                        rank 0           min           max       average
 MEMORY| MemTotal            131893512     131893512     131893512     131893512
 MEMORY| MemFree             119708724     119708724     119708724     119708724
 MEMORY| Buffers               1024336       1024336       1024336       1024336
 MEMORY| Cached                9706064       9706064       9706064       9706064
 MEMORY| Slab                  1017692       1017692       1017692       1017692
 MEMORY| SReclaimable           622820        622820        622820        622820
 MEMORY| MemLikelyFree       131061944     131061944     131061944     131061944


 GENERATE|  Preliminary Number of Bonds generated:                             0
 GENERATE|  Achieved consistency in connectivity generation.

 *******************************************************************************
 *******************************************************************************
 **                                                                           **
 **     #####                         ##              ##                      **
 **    ##   ##            ##          ##              ##                      **
 **   ##     ##                       ##            ######                    **
 **   ##     ##  ##   ##  ##   #####  ##  ##   ####   ##    #####    #####    **
 **   ##     ##  ##   ##  ##  ##      ## ##   ##      ##   ##   ##  ##   ##   **
 **   ##  ## ##  ##   ##  ##  ##      ####     ###    ##   ######   ######    **
 **    ##  ###   ##   ##  ##  ##      ## ##      ##   ##   ##       ##        **
 **     #######   #####   ##   #####  ##  ##  ####    ##    #####   ##        **
 **           ##                                                    ##        **
 **                                                                           **
 **                                                ... make the atoms dance   **
 **                                                                           **
 **            Copyright (C) by CP2K developers group (2000 - 2019)           **
 **                                                                           **
 *******************************************************************************


 TOTAL NUMBERS AND MAXIMUM NUMBERS

  Total number of            - Atomic kinds:                                   2
                             - Atoms:                                        192
                             - Shell sets:                                   384
                             - Shells:                                       704
                             - Primitive Cartesian functions:                960
                             - Cartesian basis functions:                   1536
                             - Spherical basis functions:                   1472

  Maximum angular momentum of- Orbital basis functions:                        2
                             - Local part of the GTH pseudopotential:          2
                             - Non-local part of the GTH pseudopotential:      0


 SCF PARAMETERS         Density guess:                                    ATOMIC
                        --------------------------------------------------------
                        max_scf:                                             300
                        max_scf_history:                                       0
                        max_diis:                                              4
                        --------------------------------------------------------
                        eps_scf:                                        1.00E-07
                        eps_scf_history:                                0.00E+00
                        eps_diis:                                       1.00E-01
                        eps_eigval:                                     1.00E-05
                        --------------------------------------------------------
                        level_shift [a.u.]:                                 0.00
                        --------------------------------------------------------
                        Mixing method:                            BROYDEN_MIXING
                                                charge density mixing in g-space
                        --------------------------------------------------------
                        No outer SCF

 Number of electrons:                                                        512
 Number of occupied orbitals:                                                256
 Number of molecular orbitals:                                               256

 Number of orbital functions:                                               1472
 Number of independent orbital functions:                                   1472

 Extrapolation method: initial_guess


 SCF WAVEFUNCTION OPTIMIZATION

  Step     Update method      Time    Convergence         Total energy    Change
  ------------------------------------------------------------------------------
     1 NoMix/Diag. 0.40E+00    7.2     0.63324628     -1064.0473428295 -1.06E+03
     2 Broy./Diag. 0.40E+00    7.8     1.88292111      -994.2510033274  6.98E+01
     3 Broy./Diag. 0.40E+00    8.1     1.94493537     -1269.7991515345 -2.76E+02
     4 Broy./Diag. 0.40E+00    8.3     1.83029325     -1119.9300871075  1.50E+02
     5 Broy./Diag. 0.40E+00    8.4     1.65803396     -1093.5470538197  2.64E+01
     6 Broy./Diag. 0.40E+00    8.8     1.83530610     -1097.3845661398 -3.84E+00
     7 Broy./Diag. 0.40E+00    8.9     1.73715821     -1097.1552054835  2.29E-01
     8 Broy./Diag. 0.40E+00    9.2     0.39409514     -1082.4654278078  1.47E+01
     9 Broy./Diag. 0.40E+00    9.3     0.22020712     -1071.7753591468  1.07E+01
    10 Broy./Diag. 0.40E+00    9.7     0.07433559     -1072.1247380440 -3.49E-01
    11 Broy./Diag. 0.40E+00    9.5     0.07841088     -1073.5214917322 -1.40E+00
    12 Broy./Diag. 0.40E+00    9.6     0.12782684     -1073.6836375716 -1.62E-01
    13 Broy./Diag. 0.40E+00    9.3     0.09609518     -1072.6001100262  1.08E+00
    14 Broy./Diag. 0.40E+00    9.6     0.06664114     -1076.1270240974 -3.53E+00
    15 Broy./Diag. 0.40E+00    9.4     0.02363768     -1076.5998438422 -4.73E-01
    16 Broy./Diag. 0.40E+00    9.6     0.02828073     -1076.0482463008  5.52E-01
    17 Broy./Diag. 0.40E+00    9.4     0.01540480     -1076.2403326866 -1.92E-01
    18 Broy./Diag. 0.40E+00    9.3     0.01619870     -1075.9951872533  2.45E-01
    19 Broy./Diag. 0.40E+00    9.4     0.01465550     -1075.8702064389  1.25E-01
    20 Broy./Diag. 0.40E+00    9.5     0.00870927     -1075.8545609714  1.56E-02
    21 Broy./Diag. 0.40E+00    9.3     0.00925766     -1075.8127320446  4.18E-02
    22 Broy./Diag. 0.40E+00    9.6     0.00641292     -1075.9116762494 -9.89E-02
    23 Broy./Diag. 0.40E+00    9.6     0.00817556     -1075.9217986319 -1.01E-02
    24 Broy./Diag. 0.40E+00    9.5     1.53226745     -1075.8230191890  9.88E-02
    25 Broy./Diag. 0.40E+00    9.6     1.54105190     -1077.4590617940 -1.64E+00
    26 Broy./Diag. 0.40E+00    9.4     0.02468848     -1075.8185499055  1.64E+00
    27 Broy./Diag. 0.40E+00    9.6     0.00985304     -1075.8038519543  1.47E-02
    28 Broy./Diag. 0.40E+00    9.6     0.01006277     -1075.9510708526 -1.47E-01
    29 Broy./Diag. 0.40E+00    9.5     0.00491331     -1075.8640606689  8.70E-02
    30 Broy./Diag. 0.40E+00    9.7     0.00360554     -1075.8590257077  5.03E-03
    31 Broy./Diag. 0.40E+00    9.7     0.00247011     -1075.8577954704  1.23E-03
    32 Broy./Diag. 0.40E+00    9.6     0.00259311     -1075.8669767446 -9.18E-03
    33 Broy./Diag. 0.40E+00    9.4     0.00226289     -1075.8668645474  1.12E-04
    34 Broy./Diag. 0.40E+00    9.6     1.53708800     -1075.8512637433  1.56E-02
    35 Broy./Diag. 0.40E+00    9.5     1.54640148     -1077.4544630383 -1.60E+00
    36 Broy./Diag. 0.40E+00    9.6     0.03240482     -1075.8050331937  1.65E+00
    37 Broy./Diag. 0.40E+00    9.5     0.01777853     -1075.7950865706  9.95E-03
    38 Broy./Diag. 0.40E+00    9.8     0.00625997     -1075.8765063409 -8.14E-02
    39 Broy./Diag. 0.40E+00    9.5     0.00188305     -1075.8449339104  3.16E-02
    40 Broy./Diag. 0.40E+00    9.6     0.00138430     -1075.8425962007  2.34E-03
    41 Broy./Diag. 0.40E+00    9.6     0.00120739     -1075.8539056577 -1.13E-02
    42 Broy./Diag. 0.40E+00    9.6     0.00119300     -1075.8575879033 -3.68E-03
    43 Broy./Diag. 0.40E+00    9.5     0.00045694     -1075.8510656117  6.52E-03
    44 Broy./Diag. 0.40E+00    9.4     0.01334573     -1075.8612054784 -1.01E-02
    45 Broy./Diag. 0.40E+00    9.2     0.00456418     -1075.8888533314 -2.76E-02
    46 Broy./Diag. 0.40E+00    8.9     0.00370659     -1075.8715919796  1.73E-02
    47 Broy./Diag. 0.40E+00    9.6     1.53247519     -1075.8782819712 -6.69E-03
    48 Broy./Diag. 0.40E+00    9.5     1.55812924     -1077.5015841557 -1.62E+00
    49 Broy./Diag. 0.40E+00    9.4     0.02022680     -1075.7897932445  1.71E+00
    50 Broy./Diag. 0.40E+00    9.6     0.01708856     -1075.7801703895  9.62E-03
    51 Broy./Diag. 0.40E+00    9.7     0.00385459     -1075.8486566933 -6.85E-02
    52 Broy./Diag. 0.40E+00    9.7     0.00325083     -1075.8330783085  1.56E-02
    53 Broy./Diag. 0.40E+00    9.4     0.00107188     -1075.8440652099 -1.10E-02
    54 Broy./Diag. 0.40E+00    9.5     0.00105357     -1075.8549569081 -1.09E-02
    55 Broy./Diag. 0.40E+00    9.6     0.00055044     -1075.8430382664  1.19E-02
    56 Broy./Diag. 0.40E+00    9.6     0.00046018     -1075.8505074260 -7.47E-03
    57 Broy./Diag. 0.40E+00    9.5     0.01073368     -1075.8477771338  2.73E-03
    58 Broy./Diag. 0.40E+00    9.4     1.53103884     -1075.8765910929 -2.88E-02
    59 Broy./Diag. 0.40E+00    9.5     1.54842092     -1077.4151872156 -1.54E+00
    60 Broy./Diag. 0.40E+00    9.6     0.02841254     -1075.8025611498  1.61E+00
    61 Broy./Diag. 0.40E+00    9.6     0.02064428     -1075.8836892867 -8.11E-02
    62 Broy./Diag. 0.40E+00    9.7     0.00387838     -1075.8726604655  1.10E-02
    63 Broy./Diag. 0.40E+00    9.4     0.00283327     -1075.8117137197  6.09E-02
    64 Broy./Diag. 0.40E+00    9.7     0.00204416     -1075.8475979923 -3.59E-02
    65 Broy./Diag. 0.40E+00    9.6     0.00099015     -1075.8570106256 -9.41E-03
    66 Broy./Diag. 0.40E+00    9.6     0.00084302     -1075.8538790619  3.13E-03
    67 Broy./Diag. 0.40E+00    9.3     0.00070055     -1075.8483707865  5.51E-03
    68 Broy./Diag. 0.40E+00    9.6     1.54033940     -1075.8521293522 -3.76E-03
    69 Broy./Diag. 0.40E+00    9.4     1.55010755     -1077.5196702793 -1.67E+00
    70 Broy./Diag. 0.40E+00    9.4     0.02505297     -1075.8455969802  1.67E+00
    71 Broy./Diag. 0.40E+00    9.4     0.01208769     -1075.7649466613  8.07E-02
    72 Broy./Diag. 0.40E+00    9.6     0.00465707     -1075.8575046533 -9.26E-02
    73 Broy./Diag. 0.40E+00    9.6     0.00318686     -1075.8345852743  2.29E-02
    74 Broy./Diag. 0.40E+00    9.5     0.00201827     -1075.8388079166 -4.22E-03
    75 Broy./Diag. 0.40E+00    9.6     0.00146702     -1075.8425023964 -3.69E-03
    76 Broy./Diag. 0.40E+00    9.4     0.00093318     -1075.8434360215 -9.34E-04
    77 Broy./Diag. 0.40E+00    9.4     0.00074787     -1075.8410207672  2.42E-03
    78 Broy./Diag. 0.40E+00    9.6     0.01323742     -1075.8422718932 -1.25E-03
    79 Broy./Diag. 0.40E+00    9.6     0.00720024     -1075.8762049184 -3.39E-02
    80 Broy./Diag. 0.40E+00    9.5     0.00690508     -1075.8540960114  2.21E-02
    81 Broy./Diag. 0.40E+00   10.3     1.52998378     -1075.8954629783 -4.14E-02
    82 Broy./Diag. 0.40E+00    9.5     1.55506664     -1077.4081721910 -1.51E+00
    83 Broy./Diag. 0.40E+00    9.3     0.02393401     -1075.7599813599  1.65E+00
    84 Broy./Diag. 0.40E+00    9.4     0.01633179     -1075.9600842115 -2.00E-01
    85 Broy./Diag. 0.40E+00    9.9     0.00575606     -1075.8198690549  1.40E-01
    86 Broy./Diag. 0.40E+00    9.6     0.00354750     -1075.8199749296 -1.06E-04
    87 Broy./Diag. 0.40E+00    9.5     0.00182285     -1075.8375683683 -1.76E-02
    88 Broy./Diag. 0.40E+00    9.4     0.00083277     -1075.8389613723 -1.39E-03
    89 Broy./Diag. 0.40E+00    9.7     0.00108882     -1075.8378081300  1.15E-03
    90 Broy./Diag. 0.40E+00    9.4     0.00178537     -1075.8347939468  3.01E-03
    91 Broy./Diag. 0.40E+00    9.4     1.54297072     -1075.8437605255 -8.97E-03
    92 Broy./Diag. 0.40E+00    9.7     1.55327807     -1077.5219898974 -1.68E+00
    93 Broy./Diag. 0.40E+00    9.4     0.02330833     -1075.8135644622  1.71E+00
    94 Broy./Diag. 0.40E+00    9.7     0.01194551     -1075.8665618221 -5.30E-02
    95 Broy./Diag. 0.40E+00    9.5     0.00355565     -1075.8450243634  2.15E-02
    96 Broy./Diag. 0.40E+00    9.4     0.00211155     -1075.8333862683  1.16E-02
    97 Broy./Diag. 0.40E+00    9.7     0.00133701     -1075.8475252895 -1.41E-02
    98 Broy./Diag. 0.40E+00    9.9     0.00122685     -1075.8439503804  3.57E-03
    99 Broy./Diag. 0.40E+00    9.5     0.00113296     -1075.8382822234  5.67E-03
   100 Broy./Diag. 0.40E+00    9.6     0.00173720     -1075.8471850773 -8.90E-03
   101 Broy./Diag. 0.40E+00    9.4     1.54195116     -1075.8419236471  5.26E-03
   102 Broy./Diag. 0.40E+00    9.5     1.54949123     -1077.4006826850 -1.56E+00
   103 Broy./Diag. 0.40E+00    9.5     0.02115017     -1075.8205379953  1.58E+00
   104 Broy./Diag. 0.40E+00    9.5     0.01445066     -1075.8871496130 -6.66E-02
   105 Broy./Diag. 0.40E+00    9.4     0.00528563     -1075.8455677268  4.16E-02
   106 Broy./Diag. 0.40E+00    9.6     0.00405558     -1075.8431406310  2.43E-03
   107 Broy./Diag. 0.40E+00    9.6     0.00208348     -1075.8405785282  2.56E-03
   108 Broy./Diag. 0.40E+00    9.3     0.00171641     -1075.8459035997 -5.33E-03
   109 Broy./Diag. 0.40E+00    9.6     0.00132680     -1075.8350426193  1.09E-02
   110 Broy./Diag. 0.40E+00    9.5     0.00069672     -1075.8454063205 -1.04E-02
   111 Broy./Diag. 0.40E+00    9.6     1.54336926     -1075.8372083036  8.20E-03
   112 Broy./Diag. 0.40E+00    9.6     1.55498512     -1077.4687327451 -1.63E+00
   113 Broy./Diag. 0.40E+00    9.5     0.02035242     -1075.7650835567  1.70E+00
   114 Broy./Diag. 0.40E+00    9.4     0.01660146     -1075.9320891225 -1.67E-01
   115 Broy./Diag. 0.40E+00    9.4     0.00443357     -1075.8442632467  8.78E-02
   116 Broy./Diag. 0.40E+00    9.4     0.00417918     -1075.7939888272  5.03E-02
   117 Broy./Diag. 0.40E+00    9.6     0.00270584     -1075.8431304271 -4.91E-02
   118 Broy./Diag. 0.40E+00    9.6     0.00238590     -1075.8322420089  1.09E-02
   119 Broy./Diag. 0.40E+00    9.3     0.00179701     -1075.8339325536 -1.69E-03
   120 Broy./Diag. 0.40E+00    9.0     0.00181495     -1075.8384060835 -4.47E-03
   121 Broy./Diag. 0.40E+00    9.5     1.54318834     -1075.8375372849  8.69E-04
   122 Broy./Diag. 0.40E+00    9.5     1.55613758     -1077.3949059604 -1.56E+00
   123 Broy./Diag. 0.40E+00    9.6     0.03717329     -1075.8095312777  1.59E+00
   124 Broy./Diag. 0.40E+00    9.6     0.02540465     -1075.8602839437 -5.08E-02
   125 Broy./Diag. 0.40E+00    9.5     0.01059872     -1075.7943105998  6.60E-02
   126 Broy./Diag. 0.40E+00    9.4     0.00508751     -1075.8611108603 -6.68E-02
   127 Broy./Diag. 0.40E+00    9.3     0.00368009     -1075.8221404110  3.90E-02
   128 Broy./Diag. 0.40E+00    9.2     0.00195013     -1075.8322182062 -1.01E-02
   129 Broy./Diag. 0.40E+00    9.5     0.00168034     -1075.8374864858 -5.27E-03
   130 Broy./Diag. 0.40E+00    9.5     0.00158521     -1075.8359010461  1.59E-03
   131 Broy./Diag. 0.40E+00    9.3     1.54537265     -1075.8336879998  2.21E-03
   132 Broy./Diag. 0.40E+00    9.6     1.55210537     -1077.5094696055 -1.68E+00
   133 Broy./Diag. 0.40E+00    9.7     0.02535456     -1075.8305416259  1.68E+00
   134 Broy./Diag. 0.40E+00    9.7     0.02063238     -1075.7633758220  6.72E-02
   135 Broy./Diag. 0.40E+00    9.5     0.00382141     -1075.8480836583 -8.47E-02
   136 Broy./Diag. 0.40E+00    9.4     0.00447407     -1075.8264481839  2.16E-02
   137 Broy./Diag. 0.40E+00    9.4     0.00218667     -1075.8375494840 -1.11E-02
   138 Broy./Diag. 0.40E+00    9.5     0.00163837     -1075.8365374460  1.01E-03
   139 Broy./Diag. 0.40E+00    9.6     0.00169711     -1075.8478842760 -1.13E-02
   140 Broy./Diag. 0.40E+00    9.3     0.00143567     -1075.8429757154  4.91E-03
   141 Broy./Diag. 0.40E+00    9.5     1.54279566     -1075.8397853541  3.19E-03
   142 Broy./Diag. 0.40E+00    9.6     1.55405116     -1077.4096419396 -1.57E+00
   143 Broy./Diag. 0.40E+00    9.5     0.02450671     -1075.8250532754  1.58E+00
   144 Broy./Diag. 0.40E+00    9.3     0.01944333     -1075.7532925260  7.18E-02
   145 Broy./Diag. 0.40E+00    9.6     0.00509648     -1075.8588226807 -1.06E-01
   146 Broy./Diag. 0.40E+00    9.5     0.00338077     -1075.8101301307  4.87E-02
   147 Broy./Diag. 0.40E+00    9.4     0.00312908     -1075.8337336084 -2.36E-02
   148 Broy./Diag. 0.40E+00    9.6     0.00118215     -1075.8306184589  3.12E-03
   149 Broy./Diag. 0.40E+00    9.9     0.00093156     -1075.8399531038 -9.33E-03
   150 Broy./Diag. 0.40E+00    9.4     0.00157715     -1075.8360199923  3.93E-03
   151 Broy./Diag. 0.40E+00    9.6     1.54502536     -1075.8290703258  6.95E-03
   152 Broy./Diag. 0.40E+00    9.3     1.55542587     -1077.4860162394 -1.66E+00
   153 Broy./Diag. 0.40E+00    9.0     0.02759513     -1075.7727898415  1.71E+00
   154 Broy./Diag. 0.40E+00    9.5     0.02175522     -1075.8881106502 -1.15E-01
   155 Broy./Diag. 0.40E+00    9.3     0.00633519     -1075.8391683506  4.89E-02
   156 Broy./Diag. 0.40E+00    9.6     0.00492974     -1075.8019619475  3.72E-02
   157 Broy./Diag. 0.40E+00    9.5     0.00280202     -1075.8324755391 -3.05E-02
   158 Broy./Diag. 0.40E+00    9.7     0.00315604     -1075.8332466176 -7.71E-04
   159 Broy./Diag. 0.40E+00    9.5     0.00238002     -1075.8434715734 -1.02E-02
   160 Broy./Diag. 0.40E+00    9.3     0.00174264     -1075.8337271314  9.74E-03
   161 Broy./Diag. 0.40E+00    9.1     1.54381873     -1075.8378529563 -4.13E-03
   162 Broy./Diag. 0.40E+00    9.4     1.55505619     -1077.3833224082 -1.55E+00
   163 Broy./Diag. 0.40E+00    9.2     0.03641058     -1075.7874790149  1.60E+00
   164 Broy./Diag. 0.40E+00    9.5     0.02737859     -1075.8938279066 -1.06E-01
   165 Broy./Diag. 0.40E+00    9.6     0.00961853     -1075.8041391222  8.97E-02
   166 Broy./Diag. 0.40E+00    9.6     0.00446650     -1075.8593612498 -5.52E-02
   167 Broy./Diag. 0.40E+00    9.4     0.00308535     -1075.8224920554  3.69E-02
   168 Broy./Diag. 0.40E+00    9.4     0.00169347     -1075.8323495537 -9.86E-03
   169 Broy./Diag. 0.40E+00    9.5     0.00309853     -1075.8511115269 -1.88E-02
   170 Broy./Diag. 0.40E+00    9.6     0.00201464     -1075.8292460045  2.19E-02
   171 Broy./Diag. 0.40E+00    9.6     1.54557285     -1075.8372194265 -7.97E-03
   172 Broy./Diag. 0.40E+00    9.6     1.55469205     -1077.5094562282 -1.67E+00
   173 Broy./Diag. 0.40E+00    9.3     0.02596913     -1075.8287592699  1.68E+00
   174 Broy./Diag. 0.40E+00    9.5     0.01565951     -1075.7708143245  5.79E-02
   175 Broy./Diag. 0.40E+00    9.7     0.00324251     -1075.8391233760 -6.83E-02
   176 Broy./Diag. 0.40E+00    9.5     0.00274639     -1075.8494875039 -1.04E-02
   177 Broy./Diag. 0.40E+00    9.3     0.00250459     -1075.8185297786  3.10E-02
   178 Broy./Diag. 0.40E+00    9.5     0.00261390     -1075.8368406020 -1.83E-02
   179 Broy./Diag. 0.40E+00    9.6     0.00131665     -1075.8421151730 -5.27E-03
   180 Broy./Diag. 0.40E+00    9.6     0.00131574     -1075.8340807910  8.03E-03
   181 Broy./Diag. 0.40E+00    9.4     1.54393570     -1075.8377695431 -3.69E-03
   182 Broy./Diag. 0.40E+00    9.6     1.55583552     -1077.3833567792 -1.55E+00
   183 Broy./Diag. 0.40E+00    9.5     0.03355929     -1075.7701547204  1.61E+00
   184 Broy./Diag. 0.40E+00    9.3     0.02186041     -1075.9110881093 -1.41E-01
   185 Broy./Diag. 0.40E+00    9.4     0.00580453     -1075.8268029209  8.43E-02
   186 Broy./Diag. 0.40E+00    9.7     0.00525638     -1075.8366064996 -9.80E-03
   187 Broy./Diag. 0.40E+00    9.6     0.00271025     -1075.8276040455  9.00E-03
   188 Broy./Diag. 0.40E+00    9.4     0.00217269     -1075.8324134153 -4.81E-03
   189 Broy./Diag. 0.40E+00    9.9     0.00139928     -1075.8365922792 -4.18E-03
   190 Broy./Diag. 0.40E+00    9.6     0.00219592     -1075.8326055534  3.99E-03
   191 Broy./Diag. 0.40E+00    9.5     1.54524161     -1075.8340490891 -1.44E-03
   192 Broy./Diag. 0.40E+00    9.3     1.55591001     -1077.4886516230 -1.65E+00
   193 Broy./Diag. 0.40E+00    9.1     0.02747885     -1075.7871316015  1.70E+00
   194 Broy./Diag. 0.40E+00    9.2     0.01955165     -1075.8674994318 -8.04E-02
   195 Broy./Diag. 0.40E+00    9.5     0.00651310     -1075.8270449071  4.05E-02
   196 Broy./Diag. 0.40E+00    9.7     0.00665644     -1075.8259229410  1.12E-03
   197 Broy./Diag. 0.40E+00    9.6     0.00302752     -1075.8349100392 -8.99E-03
   198 Broy./Diag. 0.40E+00    9.7     0.00240706     -1075.8289915780  5.92E-03
   199 Broy./Diag. 0.40E+00    9.3     0.00261112     -1075.8400458634 -1.11E-02
   200 Broy./Diag. 0.40E+00    9.3     0.00168057     -1075.8366791703  3.37E-03
   201 Broy./Diag. 0.40E+00    9.6     0.01919141     -1075.8354717027  1.21E-03
   202 Broy./Diag. 0.40E+00    9.6     0.00713164     -1075.8874965278 -5.20E-02
   203 Broy./Diag. 0.40E+00    9.4     0.00357594     -1075.8656329655  2.19E-02
   204 Broy./Diag. 0.40E+00    9.3     0.00286845     -1075.8676688382 -2.04E-03
   205 Broy./Diag. 0.40E+00    9.6     1.53133116     -1075.8735366687 -5.87E-03
   206 Broy./Diag. 0.40E+00    9.5     1.54921789     -1077.4076026107 -1.53E+00
   207 Broy./Diag. 0.40E+00    9.6     0.02289847     -1075.8164701961  1.59E+00
   208 Broy./Diag. 0.40E+00   10.1     0.01527426     -1075.8696304844 -5.32E-02
   209 Broy./Diag. 0.40E+00    9.7     0.00623525     -1075.8464096526  2.32E-02
   210 Broy./Diag. 0.40E+00    9.4     0.00220506     -1075.8525698290 -6.16E-03
   211 Broy./Diag. 0.40E+00    9.4     0.00168972     -1075.8437778489  8.79E-03
   212 Broy./Diag. 0.40E+00    9.5     0.00068237     -1075.8494057409 -5.63E-03
   213 Broy./Diag. 0.40E+00    9.5     0.00079539     -1075.8505400412 -1.13E-03
   214 Broy./Diag. 0.40E+00    9.6     0.00083291     -1075.8483920282  2.15E-03
   215 Broy./Diag. 0.40E+00    9.9     1.54034912     -1075.8505439975 -2.15E-03
   216 Broy./Diag. 0.40E+00    9.6     1.54894735     -1077.5139413215 -1.66E+00
   217 Broy./Diag. 0.40E+00    9.6     0.02595032     -1075.8130092876  1.70E+00
   218 Broy./Diag. 0.40E+00    9.6     0.01092404     -1075.9014903262 -8.85E-02
   219 Broy./Diag. 0.40E+00    9.7     0.00555803     -1075.8427038435  5.88E-02
   220 Broy./Diag. 0.40E+00    9.5     0.00307591     -1075.8579163435 -1.52E-02
   221 Broy./Diag. 0.40E+00    9.4     0.00127266     -1075.8459457221  1.20E-02
   222 Broy./Diag. 0.40E+00    9.3     0.00094488     -1075.8500157497 -4.07E-03
   223 Broy./Diag. 0.40E+00    9.6     0.00097816     -1075.8536413933 -3.63E-03
   224 Broy./Diag. 0.40E+00    9.4     0.00117530     -1075.8475113904  6.13E-03
   225 Broy./Diag. 0.40E+00    9.6     1.54049171     -1075.8488796509 -1.37E-03
   226 Broy./Diag. 0.40E+00    9.6     1.54902533     -1077.4025866981 -1.55E+00
   227 Broy./Diag. 0.40E+00    9.3     1.24432169     -1075.8012532481  1.60E+00
   228 Broy./Diag. 0.40E+00    9.5     1.25593351     -1077.5669835032 -1.77E+00
   229 Broy./Diag. 0.40E+00    9.5     0.03754839     -1075.8770036928  1.69E+00
   230 Broy./Diag. 0.40E+00    9.5     0.02983198     -1075.6706433178  2.06E-01
   231 Broy./Diag. 0.40E+00    9.6     0.00838605     -1075.8902991392 -2.20E-01
   232 Broy./Diag. 0.40E+00    9.8     0.00337527     -1075.8210557691  6.92E-02
   233 Broy./Diag. 0.40E+00    9.7     0.00144152     -1075.8337601434 -1.27E-02
   234 Broy./Diag. 0.40E+00    9.3     0.00078270     -1075.8351317144 -1.37E-03
   235 Broy./Diag. 0.40E+00    9.2     0.02829271     -1075.8388702251 -3.74E-03
   236 Broy./Diag. 0.40E+00    9.4     0.01662946     -1075.8907358881 -5.19E-02
   237 Broy./Diag. 0.40E+00    9.4     0.00751285     -1075.8608045556  2.99E-02
   238 Broy./Diag. 0.40E+00    9.6     1.53144916     -1075.8817925657 -2.10E-02
   239 Broy./Diag. 0.40E+00    9.7     1.54920383     -1077.4955564952 -1.61E+00
   240 Broy./Diag. 0.40E+00    9.5     0.02847650     -1075.8152422039  1.68E+00
   241 Broy./Diag. 0.40E+00    9.4     0.02166432     -1075.9187540097 -1.04E-01
   242 Broy./Diag. 0.40E+00    9.5     0.00814383     -1075.8185174428  1.00E-01
   243 Broy./Diag. 0.40E+00    9.1     0.00449591     -1075.8642629704 -4.57E-02
   244 Broy./Diag. 0.40E+00    9.6     0.00257126     -1075.8482489471  1.60E-02
   245 Broy./Diag. 0.40E+00    9.7     0.00121379     -1075.8457849837  2.46E-03
   246 Broy./Diag. 0.40E+00    9.4     0.00108626     -1075.8472361633 -1.45E-03
   247 Broy./Diag. 0.40E+00    9.5     0.00202617     -1075.8470088972  2.27E-04
   248 Broy./Diag. 0.40E+00    9.6     1.54022162     -1075.8495627842 -2.55E-03
   249 Broy./Diag. 0.40E+00    9.5     1.55244134     -1077.3990640235 -1.55E+00
   250 Broy./Diag. 0.40E+00    9.4     0.03644787     -1075.8081721421  1.59E+00
   251 Broy./Diag. 0.40E+00    9.3     0.01835155     -1075.9166317022 -1.08E-01
   252 Broy./Diag. 0.40E+00    9.7     0.00894623     -1075.7987918614  1.18E-01
   253 Broy./Diag. 0.40E+00    9.7     0.00386159     -1075.8463937144 -4.76E-02
   254 Broy./Diag. 0.40E+00    9.3     0.00219699     -1075.8394364412  6.96E-03
   255 Broy./Diag. 0.40E+00    9.3     0.00228899     -1075.8458367981 -6.40E-03
   256 Broy./Diag. 0.40E+00    9.5     0.00325412     -1075.8445603067  1.28E-03
   257 Broy./Diag. 0.40E+00    9.6     0.00173055     -1075.8388916079  5.67E-03
   258 Broy./Diag. 0.40E+00    9.6     1.54330712     -1075.8487507339 -9.86E-03
   259 Broy./Diag. 0.40E+00    9.3     1.55402289     -1077.5604727777 -1.71E+00
   260 Broy./Diag. 0.40E+00    9.5     0.02930433     -1075.8425289239  1.72E+00
   261 Broy./Diag. 0.40E+00    9.6     0.02362183     -1075.7676381725  7.49E-02
   262 Broy./Diag. 0.40E+00    9.7     0.00542460     -1075.8357026124 -6.81E-02
   263 Broy./Diag. 0.40E+00    9.6     0.00402713     -1075.8261751569  9.53E-03
   264 Broy./Diag. 0.40E+00    9.4     0.00213826     -1075.8281302413 -1.96E-03
   265 Broy./Diag. 0.40E+00    9.4     0.00171431     -1075.8386260564 -1.05E-02
   266 Broy./Diag. 0.40E+00   10.1     0.00140652     -1075.8367632380  1.86E-03
   267 Broy./Diag. 0.40E+00    9.2     0.00168597     -1075.8349296517  1.83E-03
   268 Broy./Diag. 0.40E+00    9.6     1.54342604     -1075.8395805625 -4.65E-03
   269 Broy./Diag. 0.40E+00    9.4     1.55658531     -1077.4344617796 -1.59E+00
   270 Broy./Diag. 0.40E+00    9.5     0.02032994     -1075.8252335181  1.61E+00
   271 Broy./Diag. 0.40E+00    9.7     0.00814321     -1075.7908977363  3.43E-02
   272 Broy./Diag. 0.40E+00    9.6     0.00268266     -1075.8317814232 -4.09E-02
   273 Broy./Diag. 0.40E+00    9.3     0.00205196     -1075.8176401736  1.41E-02
   274 Broy./Diag. 0.40E+00    9.4     0.00259690     -1075.8304313698 -1.28E-02
   275 Broy./Diag. 0.40E+00    9.5     0.00256352     -1075.8262911431  4.14E-03
   276 Broy./Diag. 0.40E+00    9.5     0.00116978     -1075.8338816137 -7.59E-03
   277 Broy./Diag. 0.40E+00    9.4     0.00132369     -1075.8310000031  2.88E-03
   278 Broy./Diag. 0.40E+00    9.5     1.24557157     -1075.8326447534 -1.64E-03
   279 Broy./Diag. 0.40E+00    9.4     1.25611579     -1077.4946900157 -1.66E+00
   280 Broy./Diag. 0.40E+00    9.4     0.02163727     -1075.8400959569  1.65E+00
   281 Broy./Diag. 0.40E+00    9.6     0.01083564     -1075.8672959516 -2.72E-02
   282 Broy./Diag. 0.40E+00   10.3     0.00487442     -1075.8801282496 -1.28E-02
   283 Broy./Diag. 0.40E+00    9.5     0.00284357     -1075.8469862146  3.31E-02
   284 Broy./Diag. 0.40E+00    9.6     0.00233531     -1075.8666228459 -1.96E-02
   285 Broy./Diag. 0.40E+00    9.6     0.00366343     -1075.8585605427  8.06E-03
   286 Broy./Diag. 0.40E+00    9.6     0.00351118     -1075.8604576788 -1.90E-03
   287 Broy./Diag. 0.40E+00    9.5     1.53154602     -1075.8558781906  4.58E-03
   288 Broy./Diag. 0.40E+00    9.6     1.54244128     -1077.4044995503 -1.55E+00
   289 Broy./Diag. 0.40E+00    9.5     0.03117285     -1075.8399965909  1.56E+00
   290 Broy./Diag. 0.40E+00    9.7     0.01569587     -1075.8994011224 -5.94E-02
   291 Broy./Diag. 0.40E+00    9.6     0.00656273     -1075.8608231909  3.86E-02
   292 Broy./Diag. 0.40E+00    9.6     0.00506046     -1075.8440027599  1.68E-02
   293 Broy./Diag. 0.40E+00    9.5     0.00215811     -1075.8749473185 -3.09E-02
   294 Broy./Diag. 0.40E+00    9.6     0.00212055     -1075.8542197787  2.07E-02
   295 Broy./Diag. 0.40E+00    9.6     0.00167027     -1075.8567932799 -2.57E-03
   296 Broy./Diag. 0.40E+00    9.7     0.00164522     -1075.8576925628 -8.99E-04
   297 Broy./Diag. 0.40E+00    9.4     1.53810344     -1075.8644755307 -6.78E-03
   298 Broy./Diag. 0.40E+00    9.5     1.54537159     -1077.5197268164 -1.66E+00
   299 Broy./Diag. 0.40E+00    9.6     0.02760468     -1075.8280202978  1.69E+00
   300 Broy./Diag. 0.40E+00   10.0     0.01608534     -1075.8798943775 -5.19E-02

  Leaving inner SCF loop after reaching   300 steps.


  Electronic density on regular grids:       -511.9994213673        0.0005786327
  Core density on regular grids:              512.0000879170        0.0000879170
  Total charge density on r-space grids:        0.0006665497
  Total charge density g-space grids:           0.0006665497

  Overlap energy of the core charge distribution:               0.00000000000000
  Self energy of the core charge distribution:              -2838.21791979120962
  Core Hamiltonian energy:                                    759.77902364073350
  Hartree energy:                                            1241.08499354754008
  Exchange-correlation energy:                               -238.52599177452652

  Total energy:                                             -1075.87989437746251

 *** WARNING in qs_scf.F:542 :: SCF run NOT converged ***


 ENERGY| Total FORCE_EVAL ( QS ) energy (a.u.):            -1075.871250373113298


 ATOMIC FORCES in [a.u.]

 # Atom   Kind   Element          X              Y              Z
      1      1      O          -0.03727976    -0.06621334     0.12025583
      2      2      H          -0.06972272     0.02636411    -0.05971660
      3      2      H           0.06741494    -0.00548106    -0.02881056
      4      1      O           0.11211242     0.00513559    -0.03811015
      5      2      H          -0.03611974     0.02015841    -0.01114229
      6      2      H           0.00295364    -0.00369121     0.09637822
      7      1      O          -0.01020719    -0.08508558    -0.11541258
      8      2      H          -0.02626016     0.02384016     0.02278001
      9      2      H           0.05912545    -0.02309520     0.04751096
     10      1      O          -0.01876177    -0.01662031     0.06212150
     11      2      H           0.00283075    -0.06666524     0.03289859
     12      2      H          -0.00577307     0.03179120    -0.11083555
     13      1      O           0.03930504    -0.00454286    -0.04532820
     14      2      H          -0.02128916    -0.05873406     0.04351579
     15      2      H          -0.03804009     0.05075367    -0.02234953
     16      1      O           0.08956931    -0.02530672     0.03534057
     17      2      H          -0.01362999     0.03533619     0.06253815
     18      2      H          -0.03952527    -0.02915027    -0.04339670
     19      1      O           0.02280064    -0.07131475    -0.05692519
     20      2      H          -0.05558607     0.01670168     0.05563775
     21      2      H           0.04086247     0.03587456    -0.05124471
     22      1      O          -0.11544775     0.07720258    -0.06277121
     23      2      H           0.02386540     0.03699273     0.05173478
     24      2      H           0.03670830    -0.04330368    -0.01651376
     25      1      O          -0.00200142     0.06020294     0.02485521
     26      2      H          -0.06978482     0.02407311    -0.01725818
     27      2      H           0.01743636    -0.08791767     0.01187600
     28      1      O          -0.00706227    -0.03215656     0.08980523
     29      2      H          -0.05528131     0.03148183     0.00321547
     30      2      H           0.01889725     0.01678962    -0.02531253
     31      1      O          -0.05181291    -0.06303924    -0.11268562
     32      2      H           0.05645068     0.01612317     0.01144354
     33      2      H          -0.04296034     0.01286444     0.06104390
     34      1      O          -0.06044323    -0.06990435     0.10187074
     35      2      H           0.02019410     0.08662048    -0.00927307
     36      2      H           0.04225527    -0.05972721     0.00111574
     37      1      O           0.05280496    -0.06268604    -0.02359292
     38      2      H          -0.09600529     0.02353741    -0.02885567
     39      2      H           0.05866907     0.00435032     0.08229056
     40      1      O           0.01788093    -0.08019477     0.08256676
     41      2      H          -0.04639378     0.00559294     0.01313722
     42      2      H          -0.02737242     0.06430617    -0.05794702
     43      1      O           0.00660423     0.02437294    -0.00581999
     44      2      H          -0.07741010    -0.03781995     0.02149794
     45      2      H           0.01691303     0.05939933    -0.03196087
     46      1      O          -0.08557671    -0.05323252    -0.10613273
     47      2      H          -0.02417266     0.02755595     0.05510259
     48      2      H           0.08794854    -0.00860641    -0.00571532
     49      1      O          -0.09455464     0.04410993    -0.02705301
     50      2      H           0.06257572     0.01444209     0.02066749
     51      2      H           0.02197779    -0.04363460    -0.07170395
     52      1      O          -0.08329550     0.03974218     0.05388335
     53      2      H           0.03715649    -0.01211982    -0.04073732
     54      2      H           0.06143076     0.02370744     0.02371465
     55      1      O           0.04340803    -0.04462458    -0.08382744
     56      2      H           0.02856526    -0.01855464     0.06200030
     57      2      H          -0.04384594     0.05587440     0.01438886
     58      1      O          -0.06683863     0.11237085     0.02006337
     59      2      H           0.01898375    -0.00662099    -0.06935840
     60      2      H           0.03205246    -0.01018649     0.04894975
     61      1      O           0.03044839    -0.05510466     0.05052472
     62      2      H          -0.01980538     0.06660773    -0.00072911
     63      2      H          -0.03144629    -0.01331224    -0.02849509
     64      1      O           0.06726619    -0.09388674    -0.00181789
     65      2      H           0.05981013     0.06883807     0.03761626
     66      2      H          -0.07231877     0.01163401     0.02768988
     67      1      O           0.06816232    -0.03733027    -0.08547515
     68      2      H          -0.01210752     0.07840423    -0.01212407
     69      2      H           0.00855030    -0.00756880     0.07392789
     70      1      O           0.05423076     0.04419008    -0.10903559
     71      2      H           0.02555085    -0.07111780     0.02635738
     72      2      H          -0.01799332     0.04491736     0.03421450
     73      1      O          -0.00779910    -0.04639055    -0.04789204
     74      2      H           0.06381042     0.08506540     0.05743066
     75      2      H          -0.05304347    -0.05955732     0.02667247
     76      1      O          -0.00066853    -0.09474170     0.10119436
     77      2      H           0.05394076     0.07855449    -0.03532484
     78      2      H          -0.06581588    -0.00946338    -0.03721541
     79      1      O          -0.00541663     0.04279311     0.03509779
     80      2      H           0.05560334    -0.05092600     0.04350570
     81      2      H          -0.01647637    -0.04473037    -0.01773555
     82      1      O          -0.01952257    -0.06281580    -0.03724707
     83      2      H          -0.02848458     0.04159130     0.07782583
     84      2      H          -0.02953642     0.06746027    -0.01522653
     85      1      O          -0.03063743    -0.00928637     0.00417420
     86      2      H          -0.01704585     0.05320246     0.04152924
     87      2      H           0.08119343    -0.00542118    -0.01715589
     88      1      O          -0.00208836    -0.05478601     0.03983422
     89      2      H           0.06064779     0.04525533     0.01272494
     90      2      H          -0.04884963    -0.00237569     0.02130484
     91      1      O          -0.03571631    -0.09758096    -0.07861424
     92      2      H          -0.04054625     0.09084792     0.01436955
     93      2      H           0.03542304     0.01412864     0.02673838
     94      1      O          -0.08716821     0.02485032    -0.00897993
     95      2      H           0.06834644     0.06758011     0.05421284
     96      2      H           0.02978189    -0.00889282    -0.07899909
     97      1      O           0.05340770    -0.11533742    -0.00582644
     98      2      H           0.02806208     0.06690686     0.01853095
     99      2      H          -0.05925440     0.00996398    -0.05066005
    100      1      O          -0.03657439    -0.10293110     0.06781077
    101      2      H          -0.04037441     0.07606779     0.02051600
    102      2      H           0.06535525    -0.00720813    -0.03891538
    103      1      O           0.01839701    -0.02612486     0.05377746
    104      2      H           0.05295357     0.01752975    -0.00654451
    105      2      H          -0.05884537     0.04926566    -0.03256628
    106      1      O           0.03061515     0.12155613     0.00226341
    107      2      H          -0.09832220    -0.02098082     0.01240476
    108      2      H           0.00244315    -0.04630472     0.03739815
    109      1      O          -0.05546944    -0.08598403     0.00088729
    110      2      H          -0.01857082     0.01449364     0.08920618
    111      2      H          -0.00638671     0.02455556    -0.05645475
    112      1      O          -0.04066109     0.10242271    -0.01502899
    113      2      H           0.06328860    -0.04994933     0.01896201
    114      2      H          -0.05760381    -0.00055426    -0.00271943
    115      1      O          -0.00573013    -0.09063962    -0.01165089
    116      2      H          -0.03227383     0.09663391     0.00709545
    117      2      H           0.07202634     0.01331458     0.02030018
    118      1      O           0.03534890     0.00825685     0.02860441
    119      2      H          -0.09750110     0.02451291    -0.02551905
    120      2      H           0.00660245     0.03643528     0.03714330
    121      1      O          -0.03440590     0.10393743    -0.01420825
    122      2      H          -0.02368628    -0.02979981    -0.06974327
    123      2      H          -0.01504989    -0.00623571     0.06691461
    124      1      O          -0.02045869    -0.08600535     0.08096155
    125      2      H           0.02257445    -0.01755065    -0.06702088
    126      2      H           0.01903979     0.05708891    -0.02209886
    127      1      O           0.07444788    -0.09245234     0.00568357
    128      2      H          -0.08385631    -0.00427876    -0.01150666
    129      2      H           0.00348890     0.04891710     0.07296783
    130      1      O           0.02101698    -0.01797648     0.07131573
    131      2      H          -0.08611534     0.00716987     0.01022059
    132      2      H           0.01200244     0.05517747    -0.03763658
    133      1      O           0.04019867     0.01651442    -0.13695552
    134      2      H          -0.00498908    -0.06122062     0.08081494
    135      2      H          -0.02957857     0.05853611     0.03303186
    136      1      O          -0.01834739    -0.09274571     0.06534907
    137      2      H           0.03488468     0.06695182     0.03831465
    138      2      H          -0.00822437     0.03332518    -0.05865347
    139      1      O           0.00600410     0.02133490    -0.00252128
    140      2      H          -0.03802192    -0.01284919    -0.07054825
    141      2      H          -0.02117389     0.05237480     0.04414030
    142      1      O           0.05532761     0.00051118     0.04008606
    143      2      H          -0.06930960    -0.02509476     0.08129935
    144      2      H          -0.00800140     0.04886418    -0.04247960
    145      1      O           0.04345465     0.03803754     0.05167632
    146      2      H          -0.06306221     0.03471648    -0.01865705
    147      2      H           0.02711812    -0.02423775    -0.04000365
    148      1      O          -0.02698929    -0.08044400     0.06932853
    149      2      H           0.07038954    -0.01721287    -0.02886074
    150      2      H          -0.03921396     0.07181031    -0.03049579
    151      1      O          -0.09829896    -0.01952719    -0.02191789
    152      2      H          -0.01126236     0.04337655    -0.05774286
    153      2      H           0.03540492     0.01743792     0.06896666
    154      1      O          -0.07865944    -0.08006692    -0.11129340
    155      2      H           0.04263929     0.04627883    -0.02012455
    156      2      H          -0.00806675    -0.00655632     0.06556980
    157      1      O          -0.04953601     0.08515918    -0.03801096
    158      2      H          -0.06503346     0.01939510     0.07267062
    159      2      H           0.06961134    -0.08559277     0.00407032
    160      1      O           0.00261388    -0.02357830     0.09505743
    161      2      H           0.03477616    -0.05717459    -0.03915936
    162      2      H           0.02986759     0.05654157    -0.00514420
    163      1      O           0.07700332    -0.06638316     0.06018522
    164      2      H          -0.01575729     0.07644581    -0.03903387
    165      2      H          -0.03810154    -0.03999814     0.00583676
    166      1      O           0.02939065    -0.03530709     0.07958222
    167      2      H           0.04145672     0.08467917     0.02600126
    168      2      H          -0.01929524    -0.01342170    -0.05278874
    169      1      O           0.10020004     0.00009842     0.02170904
    170      2      H           0.01606751     0.05416271    -0.05976747
    171      2      H          -0.06721972    -0.06327513     0.01845538
    172      1      O          -0.08915543     0.02331821     0.05797648
    173      2      H          -0.00882466     0.04119490     0.06610468
    174      2      H           0.03234697     0.02482648    -0.05876435
    175      1      O           0.04138073     0.00485892    -0.08417771
    176      2      H          -0.00533364     0.08158381    -0.04439446
    177      2      H          -0.08607020    -0.02823361     0.07213769
    178      1      O           0.00617836     0.02776524     0.04565038
    179      2      H          -0.06409230    -0.03202274     0.01139023
    180      2      H          -0.04145320     0.08157342    -0.09382594
    181      1      O          -0.09592215    -0.07981766    -0.05620968
    182      2      H          -0.01109953     0.08169424     0.06381477
    183      2      H           0.07331880    -0.00549960    -0.04276875
    184      1      O          -0.09096014     0.03359585    -0.08667014
    185      2      H           0.08415269     0.01591254    -0.02304481
    186      2      H          -0.00737765    -0.03838006     0.06761386
    187      1      O           0.07217103    -0.05108596    -0.04765034
    188      2      H          -0.03903677    -0.06107041    -0.01380762
    189      2      H           0.01682295     0.04608534     0.01107632
    190      1      O           0.06102526    -0.06183951    -0.12361623
    191      2      H          -0.04281620    -0.02594536     0.04874931
    192      2      H          -0.02377974     0.04410137     0.00269011
 SUM OF ATOMIC FORCES          -0.63275042     0.39644474     0.42441288     0.85887591

 -------------------------------------------------------------------------------
 -                                                                             -
 -                                DBCSR STATISTICS                             -
 -                                                                             -
 -------------------------------------------------------------------------------
 COUNTER                                    TOTAL       BLAS       SMM       ACC
 flops     5 x     5 x   256           5074137600       0.0%    100.0%      0.0%
 flops    13 x     5 x   256           6160627200       0.0%    100.0%      0.0%
 flops     5 x    13 x   256           6220730880       0.0%    100.0%      0.0%
 flops    13 x    13 x   256           7683253760       0.0%    100.0%      0.0%
 flops inhomo. stacks                           0       0.0%      0.0%      0.0%
 flops total                        25.138749E+09       0.0%    100.0%      0.0%
 flops max/rank                     25.138749E+09       0.0%    100.0%      0.0%
 matmuls inhomo. stacks                         0       0.0%      0.0%      0.0%
 matmuls total                             857248       0.0%    100.0%      0.0%
 number of processed stacks                 42140       0.0%    100.0%      0.0%
 average stack size                                     0.0      20.3       0.0
 marketing flops                   333.927416E+09
 -------------------------------------------------------------------------------
 # multiplications                            301
 max memory usage/rank               4.993221E+09
 # max total images/rank                        1
 # max 3D layers                                1
 # MPI messages exchanged                       0
 MPI messages size (bytes):
  total size                         0.000000E+00
  min size                           0.000000E+00
  max size                           0.000000E+00
  average size                       0.000000E+00
 MPI breakdown and total messages size (bytes):
             size <=      128                   0                        0
       128 < size <=     8192                   0                        0
      8192 < size <=    32768                   0                        0
     32768 < size <=   131072                   0                        0
    131072 < size <=  4194304                   0                        0
   4194304 < size <= 16777216                   0                        0
  16777216 < size                               0                        0
 -------------------------------------------------------------------------------

 MEMORY| Estimated peak process memory [MiB]                                4756

 -------------------------------------------------------------------------------
 -                                                                             -
 -                           R E F E R E N C E S                               -
 -                                                                             -
 -------------------------------------------------------------------------------
 
 CP2K version 7.1, the CP2K developers group (2019).
 CP2K is freely available from https://www.cp2k.org/ .

 Schuett, Ole; Messmer, Peter; Hutter, Juerg; VandeVondele, Joost. 
 Electronic Structure Calculations on Graphics Processing Units, John
 Wiley & Sons, Ltd, 173-190 (2016). 
 GPU-Accelerated Sparse Matrix-Matrix Multiplication for
 Linear Scaling Density Functional Theory.
 https://dx.doi.org/10.1002/9781118670712.ch8

 Borstnik, U; VandeVondele, J; Weber, V; Hutter, J. 
 PARALLEL COMPUTING, 40 (5-6), 47-58 (2014). 
 Sparse matrix multiplication: The distributed block-compressed sparse
 row library.
 https://dx.doi.org/10.1016/j.parco.2014.03.012

 Hutter, J; Iannuzzi, M; Schiffmann, F; VandeVondele, J. 
 WIREs Comput Mol Sci., 4 (1), 15-25 (2014). 
 CP2K: atomistic simulations of condensed matter systems.
 https://dx.doi.org/10.1002/wcms.1159

 Krack, M. 
 THEORETICAL CHEMISTRY ACCOUNTS, 114 (1-3), 145-152 (2005). 
 Pseudopotentials for H to Kr optimized for gradient-corrected
 exchange-correlation functionals.
 https://dx.doi.org/10.1007/s00214-005-0655-y

 VandeVondele, J; Krack, M; Mohamed, F; Parrinello, M; Chassaing, T;
 Hutter, J. COMPUTER PHYSICS COMMUNICATIONS, 167 (2), 103-128 (2005). 
 QUICKSTEP: Fast and accurate density functional calculations using a
 mixed Gaussian and plane waves approach.
 https://dx.doi.org/10.1016/j.cpc.2004.12.014

 Frigo, M; Johnson, SG. 
 PROCEEDINGS OF THE IEEE, 93 (2), 216-231 (2005). 
 The design and implementation of FFTW3.
 https://dx.doi.org/10.1109/JPROC.2004.840301

 Hartwigsen, C; Goedecker, S; Hutter, J. 
 PHYSICAL REVIEW B, 58 (7), 3641-3662 (1998). 
 Relativistic separable dual-space Gaussian pseudopotentials from H to Rn.
 https://dx.doi.org/10.1103/PhysRevB.58.3641

 Lippert, G; Hutter, J; Parrinello, M. 
 MOLECULAR PHYSICS, 92 (3), 477-487 (1997). 
 A hybrid Gaussian and plane wave density functional scheme.
 https://dx.doi.org/10.1080/002689797170220

 Goedecker, S; Teter, M; Hutter, J. 
 PHYSICAL REVIEW B, 54 (3), 1703-1710 (1996). 
 Separable dual-space Gaussian pseudopotentials.
 https://dx.doi.org/10.1103/PhysRevB.54.1703


 -------------------------------------------------------------------------------
 -                                                                             -
 -                                T I M I N G                                  -
 -                                                                             -
 -------------------------------------------------------------------------------
 SUBROUTINE                       CALLS  ASD         SELF TIME        TOTAL TIME
                                MAXIMUM       AVERAGE  MAXIMUM  AVERAGE  MAXIMUM
 CP2K                                 1  1.0    0.184    0.184 2850.793 2850.793
 qs_forces                            1  2.0    0.000    0.000 2848.800 2848.800
 qs_energies                          1  3.0    0.000    0.000 2848.051 2848.051
 scf_env_do_scf                       1  4.0    0.001    0.001 2845.556 2845.556
 scf_env_do_scf_inner_loop          300  5.0    0.063    0.063 2845.555 2845.555
 qs_scf_new_mos                     300  6.0    0.012    0.012 1994.736 1994.736
 eigensolver                        300  7.0    0.051    0.051 1958.108 1958.108
 cp_fm_syevd                        300  8.0 1270.987 1270.987 1272.799 1272.799
 cp_fm_cholesky_restore             900  8.0  684.224  684.224  684.224  684.224
 gspace_mixing                      299  6.0    6.801    6.801  473.497  473.497
 broyden_mixing                     299  7.0  427.699  427.699  427.702  427.702
 rebuild_ks_matrix                  301  7.0    0.001    0.001  196.091  196.091
 qs_ks_build_kohn_sham_matrix       301  8.0    0.081    0.081  196.090  196.090
 qs_ks_update_qs_env                300  6.0    0.003    0.003  195.852  195.852
 pw_transfer                       3912  9.9    0.323    0.323  187.298  187.298
 fft_wrap_pw1pw2                   3310 10.9    0.045    0.045  181.626  181.626
 qs_rho_update_rho                  301  6.0    0.003    0.003  180.318  180.318
 calculate_rho_elec                 301  7.0   85.615   85.615  180.315  180.315
 fft_wrap_pw1pw2_70                1504 11.2   19.386   19.386  166.297  166.297
 density_rs2pw                      301  8.0    0.026    0.026   91.431   91.431
 fft3d_s                           3311 12.9   83.569   83.569   83.596   83.596
 pw_scatter_s                      1804 13.2   62.030   62.030   62.030   62.030
 pw_poisson_solve                   301  9.0   55.142   55.142   60.596   60.596
 -------------------------------------------------------------------------------

 The number of warnings for this run is : 1
 
 -------------------------------------------------------------------------------
  **** **** ******  **  PROGRAM ENDED AT                 2021-02-23 01:23:47.980
 ***** ** ***  *** **   PROGRAM RAN ON                                   gnode68
 **    ****   ******    PROGRAM RAN BY                               mayank.modi
 ***** **    ** ** **   PROGRAM PROCESS ID                                 27971
  **** **  *******  **  PROGRAM STOPPED IN /home/mayank.modi/ab-initio-thermodyn
                                           amics-of-water/mayank/cp2k_energy_cal
                                           culations
