 DBCSR| CPU Multiplication driver                                           XSMM
 DBCSR| Multrec recursion limit                                              512
 DBCSR| Multiplication stack size                                           1000
 DBCSR| Maximum elements for images                                    UNLIMITED
 DBCSR| Multiplicative factor virtual images                                   1
 DBCSR| Use multiplication densification                                       T
 DBCSR| Multiplication size stacks                                             3


  **** **** ******  **  PROGRAM STARTED AT               2021-01-11 17:30:04.647
 ***** ** ***  *** **   PROGRAM STARTED ON                               gnode23
 **    ****   ******    PROGRAM STARTED BY                           mayank.modi
 ***** **    ** ** **   PROGRAM PROCESS ID                                  7777
  **** **  *******  **  PROGRAM STARTED IN /home/mayank.modi/ab-initio-thermodyn
                                           amics-of-water/mayank/cp2k_energy_cal
                                           culations

 CP2K| version string:                                          CP2K version 7.1
 CP2K| source code revision number:                                  git:e635599
 CP2K| cp2kflags: omp libint fftw3 libxc xsmm spglib                            
 CP2K| is freely available from                            https://www.cp2k.org/
 CP2K| Program compiled at                          Mon Dec 23 19:23:12 CET 2019
 CP2K| Program compiled on                                                pc9404
 CP2K| Program compiled for                                Linux-x86-64-gfortran
 CP2K| Data directory path                                        /opt/cp2k/data
 CP2K| Input file name                   input_training_correct_cell/input216.in

 GLOBAL| Force Environment number                                              1
 GLOBAL| Basis set file name                                           BASIS_SET
 GLOBAL| Potential file name                                      GTH_POTENTIALS
 GLOBAL| MM Potential file name                                     MM_POTENTIAL
 GLOBAL| Coordinate file name                                      __STD_INPUT__
 GLOBAL| Method name                                                        CP2K
 GLOBAL| Project name                                                   H2O_bulk
 GLOBAL| Preferred FFT library                                             FFTW3
 GLOBAL| Preferred diagonalization lib.                                       SL
 GLOBAL| Run type                                                   ENERGY_FORCE
 GLOBAL| All-to-all communication in single precision                          F
 GLOBAL| FFTs using library dependent lengths                                  F
 GLOBAL| Global print level                                                  LOW
 GLOBAL| MPI I/O enabled                                                       T
 GLOBAL| Total number of message passing processes                             1
 GLOBAL| Number of threads for this process                                   36
 GLOBAL| This output is from process                                           0
 GLOBAL| CPU model name                Intel(R) Xeon(R) CPU E5-2640 v4 @ 2.40GHz
 GLOBAL| CPUID                                                              1002
 GLOBAL| Compiled for CPUID                                                    0

 MEMORY| system memory details [Kb]
 MEMORY|                        rank 0           min           max       average
 MEMORY| MemTotal            131897972     131897972     131897972     131897972
 MEMORY| MemFree             120557476     120557476     120557476     120557476
 MEMORY| Buffers               1897508       1897508       1897508       1897508
 MEMORY| Cached                4418644       4418644       4418644       4418644
 MEMORY| Slab                  2645208       2645208       2645208       2645208
 MEMORY| SReclaimable          1600780       1600780       1600780       1600780
 MEMORY| MemLikelyFree       128474408     128474408     128474408     128474408


 GENERATE| WARNING:: No connections detected for Hydrogen - Atom Nr:       137 !
 GENERATE| WARNING:: No connections detected for Hydrogen - Atom Nr:       167 !
 GENERATE| WARNING:: No connections detected for Hydrogen - Atom Nr:       176 !
 GENERATE|  Preliminary Number of Bonds generated:                             0
 GENERATE|  Achieved consistency in connectivity generation.

 *******************************************************************************
 *******************************************************************************
 **                                                                           **
 **     #####                         ##              ##                      **
 **    ##   ##            ##          ##              ##                      **
 **   ##     ##                       ##            ######                    **
 **   ##     ##  ##   ##  ##   #####  ##  ##   ####   ##    #####    #####    **
 **   ##     ##  ##   ##  ##  ##      ## ##   ##      ##   ##   ##  ##   ##   **
 **   ##  ## ##  ##   ##  ##  ##      ####     ###    ##   ######   ######    **
 **    ##  ###   ##   ##  ##  ##      ## ##      ##   ##   ##       ##        **
 **     #######   #####   ##   #####  ##  ##  ####    ##    #####   ##        **
 **           ##                                                    ##        **
 **                                                                           **
 **                                                ... make the atoms dance   **
 **                                                                           **
 **            Copyright (C) by CP2K developers group (2000 - 2019)           **
 **                                                                           **
 *******************************************************************************


 TOTAL NUMBERS AND MAXIMUM NUMBERS

  Total number of            - Atomic kinds:                                   2
                             - Atoms:                                        192
                             - Shell sets:                                   384
                             - Shells:                                       704
                             - Primitive Cartesian functions:                960
                             - Cartesian basis functions:                   1536
                             - Spherical basis functions:                   1472

  Maximum angular momentum of- Orbital basis functions:                        2
                             - Local part of the GTH pseudopotential:          2
                             - Non-local part of the GTH pseudopotential:      0


 SCF PARAMETERS         Density guess:                                    ATOMIC
                        --------------------------------------------------------
                        max_scf:                                             300
                        max_scf_history:                                       0
                        max_diis:                                              4
                        --------------------------------------------------------
                        eps_scf:                                        1.00E-07
                        eps_scf_history:                                0.00E+00
                        eps_diis:                                       1.00E-01
                        eps_eigval:                                     1.00E-05
                        --------------------------------------------------------
                        level_shift [a.u.]:                                 0.00
                        --------------------------------------------------------
                        Mixing method:                            BROYDEN_MIXING
                                                charge density mixing in g-space
                        --------------------------------------------------------
                        No outer SCF

 Number of electrons:                                                        512
 Number of occupied orbitals:                                                256
 Number of molecular orbitals:                                               256

 Number of orbital functions:                                               1472
 Number of independent orbital functions:                                   1472

 Extrapolation method: initial_guess


 SCF WAVEFUNCTION OPTIMIZATION

  Step     Update method      Time    Convergence         Total energy    Change
  ------------------------------------------------------------------------------
     1 NoMix/Diag. 0.40E+00    7.5     0.68773485     -1064.4775108035 -1.06E+03
     2 Broy./Diag. 0.40E+00    7.9     1.93591098      -995.2783874790  6.92E+01
     3 Broy./Diag. 0.40E+00    8.6     1.93454407     -1264.4422977163 -2.69E+02
     4 Broy./Diag. 0.40E+00    8.6     1.78822466     -1147.4903712608  1.17E+02
     5 Broy./Diag. 0.40E+00    8.9     1.79363605     -1084.2560812063  6.32E+01
     6 Broy./Diag. 0.40E+00    9.1     1.95886994     -1090.8220976771 -6.57E+00
     7 Broy./Diag. 0.40E+00    9.4     1.84763531     -1102.3207456252 -1.15E+01
     8 Broy./Diag. 0.40E+00    9.4     1.81478783     -1094.9929804340  7.33E+00
     9 Broy./Diag. 0.40E+00    9.5     1.86074490     -1085.1818260120  9.81E+00
    10 Broy./Diag. 0.40E+00    9.8     1.76222826     -1073.2495296607  1.19E+01
    11 Broy./Diag. 0.40E+00   10.1     1.86562164     -1088.1282160107 -1.49E+01
    12 Broy./Diag. 0.40E+00   10.2     1.75669706     -1080.1666094905  7.96E+00
    13 Broy./Diag. 0.40E+00   10.0     1.81584713     -1060.2388278850  1.99E+01
    14 Broy./Diag. 0.40E+00    9.9     1.80171957     -1087.8672374767 -2.76E+01
    15 Broy./Diag. 0.40E+00    9.9     1.85181864     -1080.7320388928  7.14E+00
    16 Broy./Diag. 0.40E+00    9.8     1.80520508     -1080.2696204119  4.62E-01
    17 Broy./Diag. 0.40E+00   10.0     1.90724427     -1076.2179035346  4.05E+00
    18 Broy./Diag. 0.40E+00   10.1     1.74065789     -1083.4381255833 -7.22E+00
    19 Broy./Diag. 0.40E+00   10.2     1.82816711     -1074.4197796974  9.02E+00
    20 Broy./Diag. 0.40E+00   10.1     1.84994308     -1083.2366763364 -8.82E+00
    21 Broy./Diag. 0.40E+00    9.9     1.80624420     -1074.1210910171  9.12E+00
    22 Broy./Diag. 0.40E+00   10.0     1.81736096     -1075.1642697145 -1.04E+00
    23 Broy./Diag. 0.40E+00   10.1     1.63966578     -1073.0218994907  2.14E+00
    24 Broy./Diag. 0.40E+00   10.1     1.70748666     -1077.8494135115 -4.83E+00
    25 Broy./Diag. 0.40E+00   10.2     1.65498878     -1081.4737677192 -3.62E+00
    26 Broy./Diag. 0.40E+00    9.8     1.81668405     -1074.8404571819  6.63E+00
    27 Broy./Diag. 0.40E+00    9.8     1.77995635     -1076.0934393950 -1.25E+00
    28 Broy./Diag. 0.40E+00    9.9     1.85402256     -1078.9928515251 -2.90E+00
    29 Broy./Diag. 0.40E+00    9.9     1.66486493     -1074.3982266532  4.59E+00
    30 Broy./Diag. 0.40E+00    9.9     1.77595091     -1079.2063420509 -4.81E+00
    31 Broy./Diag. 0.40E+00   10.1     1.88731990     -1075.1085332953  4.10E+00
    32 Broy./Diag. 0.40E+00    9.8     1.78797200     -1071.8600750343  3.25E+00
    33 Broy./Diag. 0.40E+00   10.0     1.80864714     -1081.6904973930 -9.83E+00
    34 Broy./Diag. 0.40E+00    9.7     1.78673051     -1076.3384724925  5.35E+00
    35 Broy./Diag. 0.40E+00   10.0     1.68532936     -1081.7492578797 -5.41E+00
    36 Broy./Diag. 0.40E+00    9.8     1.79015160     -1076.2089693629  5.54E+00
    37 Broy./Diag. 0.40E+00   10.1     1.85461145     -1071.9495585922  4.26E+00
    38 Broy./Diag. 0.40E+00    9.9     1.82338092     -1082.1570763897 -1.02E+01
    39 Broy./Diag. 0.40E+00   10.1     1.79194930     -1073.3790642030  8.78E+00
    40 Broy./Diag. 0.40E+00    9.8     1.63698428     -1080.5652576222 -7.19E+00
    41 Broy./Diag. 0.40E+00    9.9     1.86358409     -1073.3742390420  7.19E+00
    42 Broy./Diag. 0.40E+00   10.0     1.78597525     -1071.6031805312  1.77E+00
    43 Broy./Diag. 0.40E+00   10.0     1.82156443     -1081.4673705938 -9.86E+00
    44 Broy./Diag. 0.40E+00   10.4     1.71413468     -1073.6600237815  7.81E+00
    45 Broy./Diag. 0.40E+00    9.7     1.83200349     -1073.7634228891 -1.03E-01
    46 Broy./Diag. 0.40E+00   10.0     1.84132987     -1078.2259783503 -4.46E+00
    47 Broy./Diag. 0.40E+00    9.9     1.75645484     -1079.9544483017 -1.73E+00
    48 Broy./Diag. 0.40E+00   10.0     1.81588231     -1075.8158632206  4.14E+00
    49 Broy./Diag. 0.40E+00   10.0     1.85744640     -1072.9904212428  2.83E+00
    50 Broy./Diag. 0.40E+00   10.6     1.79464601     -1080.6804125379 -7.69E+00
    51 Broy./Diag. 0.40E+00    9.7     1.73518906     -1077.4837270632  3.20E+00
    52 Broy./Diag. 0.40E+00   10.3     1.77036174     -1073.3162500392  4.17E+00
    53 Broy./Diag. 0.40E+00    9.9     1.80806894     -1073.7550441825 -4.39E-01
    54 Broy./Diag. 0.40E+00    9.7     1.84127641     -1075.7581886363 -2.00E+00
    55 Broy./Diag. 0.40E+00   10.0     1.86235465     -1075.2607332729  4.97E-01
    56 Broy./Diag. 0.40E+00   10.2     1.80110978     -1075.5874276828 -3.27E-01
    57 Broy./Diag. 0.40E+00    9.8     1.66677549     -1080.5640169421 -4.98E+00
    58 Broy./Diag. 0.40E+00   10.2     1.81167282     -1075.0914593379  5.47E+00
    59 Broy./Diag. 0.40E+00   10.0     1.84532016     -1074.5698020416  5.22E-01
    60 Broy./Diag. 0.40E+00    9.7     1.37575694     -1075.5125745104 -9.43E-01
    61 Broy./Diag. 0.40E+00   10.1     1.82489801     -1073.6696191749  1.84E+00
    62 Broy./Diag. 0.40E+00    9.9     1.79018138     -1080.5958956332 -6.93E+00
    63 Broy./Diag. 0.40E+00   10.1     1.78874528     -1077.5395995597  3.06E+00
    64 Broy./Diag. 0.40E+00   10.0     1.82177757     -1079.1038598723 -1.56E+00
    65 Broy./Diag. 0.40E+00   10.0     1.82207539     -1073.6578389790  5.45E+00
    66 Broy./Diag. 0.40E+00    9.8     1.82921923     -1084.3967709686 -1.07E+01
    67 Broy./Diag. 0.40E+00   10.1     1.88114129     -1072.2651789350  1.21E+01
    68 Broy./Diag. 0.40E+00   10.0     1.76060712     -1080.1698068443 -7.90E+00
    69 Broy./Diag. 0.40E+00    9.9     1.65995632     -1076.9290128574  3.24E+00
    70 Broy./Diag. 0.40E+00    9.6     1.80400893     -1074.4751326027  2.45E+00
    71 Broy./Diag. 0.40E+00   10.2     1.83205410     -1071.1185651591  3.36E+00
    72 Broy./Diag. 0.40E+00   10.1     1.67786088     -1070.2417992053  8.77E-01
    73 Broy./Diag. 0.40E+00    9.9     1.80089306     -1079.7279023282 -9.49E+00
    74 Broy./Diag. 0.40E+00    9.7     1.81762934     -1082.1734132114 -2.45E+00
    75 Broy./Diag. 0.40E+00    9.8     1.86517545     -1073.0388989714  9.13E+00
    76 Broy./Diag. 0.40E+00   10.2     1.52646227     -1078.1364299937 -5.10E+00
    77 Broy./Diag. 0.40E+00   10.0     1.65314293     -1071.4812978777  6.66E+00
    78 Broy./Diag. 0.40E+00    9.6     1.79392894     -1075.5479162125 -4.07E+00
    79 Broy./Diag. 0.40E+00   10.2     1.82067411     -1082.9908063519 -7.44E+00
    80 Broy./Diag. 0.40E+00   10.0     1.79923580     -1078.6929674841  4.30E+00
    81 Broy./Diag. 0.40E+00   10.2     1.80477001     -1069.0339470506  9.66E+00
    82 Broy./Diag. 0.40E+00    9.9     1.82423020     -1087.2262792306 -1.82E+01
    83 Broy./Diag. 0.40E+00    9.8     1.79420056     -1079.2373293268  7.99E+00
    84 Broy./Diag. 0.40E+00   10.0     1.84084392     -1079.0030041726  2.34E-01
    85 Broy./Diag. 0.40E+00    9.9     1.80374358     -1076.1106840744  2.89E+00
    86 Broy./Diag. 0.40E+00   10.2     1.84096799     -1074.9096240301  1.20E+00
    87 Broy./Diag. 0.40E+00   10.1     1.81691019     -1077.7784632256 -2.87E+00
    88 Broy./Diag. 0.40E+00   10.1     1.81478005     -1076.0533727867  1.73E+00
    89 Broy./Diag. 0.40E+00   10.2     1.88061641     -1077.0395629603 -9.86E-01
    90 Broy./Diag. 0.40E+00    9.9     1.81006802     -1079.9332545092 -2.89E+00
    91 Broy./Diag. 0.40E+00    9.8     1.73701532     -1070.2257056721  9.71E+00
    92 Broy./Diag. 0.40E+00   10.0     1.82693377     -1070.9657704085 -7.40E-01
    93 Broy./Diag. 0.40E+00   10.3     1.81136027     -1084.7394626337 -1.38E+01
    94 Broy./Diag. 0.40E+00    9.8     1.85615105     -1081.7993065681  2.94E+00
    95 Broy./Diag. 0.40E+00    9.7     1.82031455     -1070.2486988073  1.16E+01
    96 Broy./Diag. 0.40E+00   10.4     1.85894992     -1075.3041621521 -5.06E+00
    97 Broy./Diag. 0.40E+00   10.2     1.81152780     -1076.6280655405 -1.32E+00
    98 Broy./Diag. 0.40E+00    9.6     1.66193476     -1082.2215220081 -5.59E+00
    99 Broy./Diag. 0.40E+00   10.1     1.71888083     -1069.5603808660  1.27E+01
   100 Broy./Diag. 0.40E+00   10.1     1.82672379     -1071.1617527368 -1.60E+00
   101 Broy./Diag. 0.40E+00   10.3     1.80189453     -1072.4551877162 -1.29E+00
   102 Broy./Diag. 0.40E+00   10.0     1.80928468     -1074.1035597633 -1.65E+00
   103 Broy./Diag. 0.40E+00   10.1     1.79621652     -1080.7354436807 -6.63E+00
   104 Broy./Diag. 0.40E+00    9.8     1.82892629     -1076.3215782014  4.41E+00
   105 Broy./Diag. 0.40E+00    9.9     1.65586465     -1073.7195562092  2.60E+00
   106 Broy./Diag. 0.40E+00   10.0     1.68496051     -1075.7633148579 -2.04E+00
   107 Broy./Diag. 0.40E+00   10.5     1.78698170     -1081.1997439144 -5.44E+00
   108 Broy./Diag. 0.40E+00   10.0     1.86334928     -1073.7977484127  7.40E+00
   109 Broy./Diag. 0.40E+00    9.9     1.88326649     -1075.4841442213 -1.69E+00
   110 Broy./Diag. 0.40E+00    9.8     1.81460571     -1079.4283377399 -3.94E+00
   111 Broy./Diag. 0.40E+00   10.0     1.81148434     -1081.5040110063 -2.08E+00
   112 Broy./Diag. 0.40E+00   10.1     1.41718996     -1072.3238757623  9.18E+00
   113 Broy./Diag. 0.40E+00   10.0     1.83197009     -1071.2077186445  1.12E+00
   114 Broy./Diag. 0.40E+00    9.8     1.85569876     -1081.1031060572 -9.90E+00
   115 Broy./Diag. 0.40E+00    9.8     1.85659083     -1071.5165199571  9.59E+00
   116 Broy./Diag. 0.40E+00    9.8     1.84642513     -1080.7254077189 -9.21E+00
   117 Broy./Diag. 0.40E+00   10.2     1.63452238     -1075.9913223934  4.73E+00
   118 Broy./Diag. 0.40E+00   10.0     1.78571936     -1080.9236294937 -4.93E+00
   119 Broy./Diag. 0.40E+00    9.8     1.83497639     -1075.2920783734  5.63E+00
   120 Broy./Diag. 0.40E+00   10.1     1.69607766     -1074.6623112213  6.30E-01
   121 Broy./Diag. 0.40E+00    9.9     1.80156037     -1069.4515758171  5.21E+00
   122 Broy./Diag. 0.40E+00    9.9     1.83238929     -1079.0155315151 -9.56E+00
   123 Broy./Diag. 0.40E+00    9.4     1.33797757     -1075.7043196982  3.31E+00
   124 Broy./Diag. 0.40E+00    9.6     1.79584295     -1078.8666827683 -3.16E+00
   125 Broy./Diag. 0.40E+00   10.1     1.86295827     -1079.6746812040 -8.08E-01
   126 Broy./Diag. 0.40E+00    9.9     1.85834126     -1078.3226451563  1.35E+00
   127 Broy./Diag. 0.40E+00   10.1     1.83971566     -1069.0289042109  9.29E+00
   128 Broy./Diag. 0.40E+00   10.1     1.81914687     -1073.9851279505 -4.96E+00
   129 Broy./Diag. 0.40E+00    9.7     1.83381053     -1083.2910868704 -9.31E+00
   130 Broy./Diag. 0.40E+00    9.9     1.56161822     -1071.2057012831  1.21E+01
   131 Broy./Diag. 0.40E+00   10.0     1.41710074     -1072.3632702090 -1.16E+00
   132 Broy./Diag. 0.40E+00    9.9     1.79719006     -1075.3164581482 -2.95E+00
   133 Broy./Diag. 0.40E+00    9.9     1.82532135     -1085.0101301394 -9.69E+00
   134 Broy./Diag. 0.40E+00    9.8     1.82550412     -1079.5297280399  5.48E+00
   135 Broy./Diag. 0.40E+00    9.8     1.86910376     -1075.2278613042  4.30E+00
   136 Broy./Diag. 0.40E+00   10.1     1.87222153     -1074.6791815419  5.49E-01
   137 Broy./Diag. 0.40E+00   10.1     1.47765762     -1072.4538618083  2.23E+00
   138 Broy./Diag. 0.40E+00   10.0     1.79054598     -1074.3834667814 -1.93E+00
   139 Broy./Diag. 0.40E+00   10.2     1.84014177     -1077.9565646969 -3.57E+00
   140 Broy./Diag. 0.40E+00    9.7     1.64908734     -1079.5863815378 -1.63E+00
   141 Broy./Diag. 0.40E+00   10.1     1.82754794     -1073.2636592951  6.32E+00
   142 Broy./Diag. 0.40E+00   10.0     1.78966960     -1074.1260343703 -8.62E-01
   143 Broy./Diag. 0.40E+00   10.1     1.84829861     -1084.7689282104 -1.06E+01
   144 Broy./Diag. 0.40E+00    9.7     1.89806779     -1075.7581091324  9.01E+00
   145 Broy./Diag. 0.40E+00   10.1     1.80700282     -1069.8425112844  5.92E+00
   146 Broy./Diag. 0.40E+00   10.0     1.86679889     -1076.6173172569 -6.77E+00
   147 Broy./Diag. 0.40E+00    9.9     1.75242784     -1076.4333298274  1.84E-01
   148 Broy./Diag. 0.40E+00   10.0     1.62858607     -1076.5371388293 -1.04E-01
   149 Broy./Diag. 0.40E+00    9.8     1.81113714     -1073.9783280465  2.56E+00
   150 Broy./Diag. 0.40E+00    9.8     1.83052909     -1079.9443207125 -5.97E+00
   151 Broy./Diag. 0.40E+00    9.8     1.83184640     -1079.2544254131  6.90E-01
   152 Broy./Diag. 0.40E+00   10.2     1.86934080     -1073.2908809022  5.96E+00
   153 Broy./Diag. 0.40E+00   10.2     1.82343183     -1080.8619668770 -7.57E+00
   154 Broy./Diag. 0.40E+00   10.0     1.65598379     -1073.9054045011  6.96E+00
   155 Broy./Diag. 0.40E+00    9.9     1.82004328     -1080.9292652722 -7.02E+00
   156 Broy./Diag. 0.40E+00   10.0     1.85606770     -1075.1031140989  5.83E+00
   157 Broy./Diag. 0.40E+00   10.4     1.80279687     -1073.0758019916  2.03E+00
   158 Broy./Diag. 0.40E+00   10.1     1.83942353     -1077.8772072479 -4.80E+00
   159 Broy./Diag. 0.40E+00   10.0     1.82893255     -1073.6413988500  4.24E+00
   160 Broy./Diag. 0.40E+00   10.0     1.83705303     -1081.4536624380 -7.81E+00
   161 Broy./Diag. 0.40E+00   10.1     1.77002546     -1074.8455071368  6.61E+00
   162 Broy./Diag. 0.40E+00   10.0     1.69856074     -1077.8653406920 -3.02E+00
   163 Broy./Diag. 0.40E+00   10.0     1.53233393     -1073.4722689116  4.39E+00
   164 Broy./Diag. 0.40E+00   10.2     1.82544445     -1076.5360365690 -3.06E+00
   165 Broy./Diag. 0.40E+00    9.9     1.83579608     -1074.4954999837  2.04E+00
   166 Broy./Diag. 0.40E+00   10.3     1.78693013     -1071.7910158512  2.70E+00
   167 Broy./Diag. 0.40E+00   10.2     1.82435543     -1075.6320792074 -3.84E+00
   168 Broy./Diag. 0.40E+00   10.0     1.80794422     -1078.1499874499 -2.52E+00
   169 Broy./Diag. 0.40E+00    9.8     1.83222062     -1078.1411342766  8.85E-03
   170 Broy./Diag. 0.40E+00    9.9     1.80285302     -1072.8605425888  5.28E+00
   171 Broy./Diag. 0.40E+00   10.0     1.83490705     -1074.1951374619 -1.33E+00
   172 Broy./Diag. 0.40E+00    9.7     1.84155154     -1079.9090579902 -5.71E+00
   173 Broy./Diag. 0.40E+00   10.0     1.82398388     -1078.7380969183  1.17E+00
   174 Broy./Diag. 0.40E+00    9.7     1.83865756     -1073.5918445425  5.15E+00
   175 Broy./Diag. 0.40E+00   10.0     1.89257777     -1074.7801076443 -1.19E+00
   176 Broy./Diag. 0.40E+00    9.9     1.57251855     -1072.0662934764  2.71E+00
   177 Broy./Diag. 0.40E+00    9.7     1.66126613     -1076.7392054874 -4.67E+00
   178 Broy./Diag. 0.40E+00   10.0     1.77952812     -1079.3232530229 -2.58E+00
   179 Broy./Diag. 0.40E+00   10.1     1.86997367     -1079.3994260240 -7.62E-02
   180 Broy./Diag. 0.40E+00    9.7     1.80154937     -1076.0421495865  3.36E+00
   181 Broy./Diag. 0.40E+00   10.0     1.80119507     -1073.2201960808  2.82E+00
   182 Broy./Diag. 0.40E+00   10.0     1.86255777     -1077.5483141105 -4.33E+00
   183 Broy./Diag. 0.40E+00    9.8     1.71886035     -1078.8072742231 -1.26E+00
   184 Broy./Diag. 0.40E+00   10.0     1.81754800     -1073.0959570576  5.71E+00
   185 Broy./Diag. 0.40E+00   10.3     1.85258002     -1075.0242487969 -1.93E+00
   186 Broy./Diag. 0.40E+00    9.9     1.84384183     -1076.2635705494 -1.24E+00
   187 Broy./Diag. 0.40E+00   10.1     1.59602223     -1083.4922858351 -7.23E+00
   188 Broy./Diag. 0.40E+00   10.0     1.79769108     -1069.4589588023  1.40E+01
   189 Broy./Diag. 0.40E+00   10.0     1.85312688     -1073.7301995975 -4.27E+00
   190 Broy./Diag. 0.40E+00   10.0     1.79781811     -1076.1875402921 -2.46E+00
   191 Broy./Diag. 0.40E+00    9.6     1.65753974     -1074.7900295214  1.40E+00
   192 Broy./Diag. 0.40E+00    9.9     1.64739091     -1074.2499801203  5.40E-01
   193 Broy./Diag. 0.40E+00   10.2     1.67176022     -1080.0353644081 -5.79E+00
   194 Broy./Diag. 0.40E+00   10.0     1.79917427     -1073.6528066749  6.38E+00
   195 Broy./Diag. 0.40E+00   10.2     1.84332369     -1079.1984781977 -5.55E+00
   196 Broy./Diag. 0.40E+00    9.8     1.80500665     -1080.7632193136 -1.56E+00
   197 Broy./Diag. 0.40E+00    9.8     1.79735740     -1070.6797297360  1.01E+01
   198 Broy./Diag. 0.40E+00   10.1     1.84201826     -1084.3617883218 -1.37E+01
   199 Broy./Diag. 0.40E+00   10.2     1.85685613     -1078.6204641436  5.74E+00
   200 Broy./Diag. 0.40E+00    9.8     1.70941525     -1071.1654972494  7.45E+00
   201 Broy./Diag. 0.40E+00    9.9     1.68678863     -1073.9436620375 -2.78E+00
   202 Broy./Diag. 0.40E+00   10.0     1.79350080     -1082.1331762714 -8.19E+00
   203 Broy./Diag. 0.40E+00    9.6     1.86742426     -1076.8223606337  5.31E+00
   204 Broy./Diag. 0.40E+00    9.6     1.55378870     -1077.2146163679 -3.92E-01
   205 Broy./Diag. 0.40E+00   10.3     1.62679189     -1069.0418378777  8.17E+00
   206 Broy./Diag. 0.40E+00    9.9     1.62721204     -1080.5644844957 -1.15E+01
   207 Broy./Diag. 0.40E+00   10.0     1.80036600     -1073.2330426387  7.33E+00
   208 Broy./Diag. 0.40E+00   10.0     1.86630338     -1081.9580699779 -8.73E+00
   209 Broy./Diag. 0.40E+00    9.7     1.86643465     -1074.3665091266  7.59E+00
   210 Broy./Diag. 0.40E+00    9.7     1.84800834     -1079.6407733267 -5.27E+00
   211 Broy./Diag. 0.40E+00    9.9     1.78485820     -1079.1713727126  4.69E-01
   212 Broy./Diag. 0.40E+00   10.0     1.39343235     -1072.3565751528  6.81E+00
   213 Broy./Diag. 0.40E+00   10.1     1.80186092     -1072.2259783953  1.31E-01
   214 Broy./Diag. 0.40E+00   10.0     1.81553630     -1085.6583705251 -1.34E+01
   215 Broy./Diag. 0.40E+00   10.0     1.68558827     -1077.8652339437  7.79E+00
   216 Broy./Diag. 0.40E+00   10.3     1.80705748     -1069.3993008684  8.47E+00
   217 Broy./Diag. 0.40E+00    9.9     1.82941873     -1079.6835848291 -1.03E+01
   218 Broy./Diag. 0.40E+00   10.4     1.84757929     -1076.0192659556  3.66E+00
   219 Broy./Diag. 0.40E+00    9.9     1.58777845     -1078.2796412141 -2.26E+00
   220 Broy./Diag. 0.40E+00   10.1     1.79531095     -1074.7719456470  3.51E+00
   221 Broy./Diag. 0.40E+00   10.2     1.84994186     -1076.5556005558 -1.78E+00
   222 Broy./Diag. 0.40E+00    9.8     1.81645533     -1078.2299875058 -1.67E+00
   223 Broy./Diag. 0.40E+00   10.0     1.82032162     -1077.8074886902  4.22E-01
   224 Broy./Diag. 0.40E+00   10.2     1.83853072     -1074.0164750477  3.79E+00
   225 Broy./Diag. 0.40E+00   10.1     1.80957930     -1080.5127716437 -6.50E+00
   226 Broy./Diag. 0.40E+00   10.4     1.79859132     -1068.1789099345  1.23E+01
   227 Broy./Diag. 0.40E+00    9.9     1.79211612     -1071.1911263255 -3.01E+00
   228 Broy./Diag. 0.40E+00    9.8     1.81316771     -1077.2667853345 -6.08E+00
   229 Broy./Diag. 0.40E+00    9.8     1.84811697     -1075.0836943979  2.18E+00
   230 Broy./Diag. 0.40E+00   10.0     1.86880155     -1083.7655493884 -8.68E+00
   231 Broy./Diag. 0.40E+00   10.0     1.58776738     -1081.5085436958  2.26E+00
   232 Broy./Diag. 0.40E+00   10.4     1.84663727     -1075.9471777365  5.56E+00
   233 Broy./Diag. 0.40E+00    9.8     1.81248568     -1075.8239874549  1.23E-01
   234 Broy./Diag. 0.40E+00   10.2     1.67848318     -1078.3957140399 -2.57E+00
   235 Broy./Diag. 0.40E+00   10.0     1.36236955     -1071.6056398379  6.79E+00
   236 Broy./Diag. 0.40E+00    9.8     1.69140359     -1076.4300538263 -4.82E+00
   237 Broy./Diag. 0.40E+00   10.1     1.79907543     -1069.9307093898  6.50E+00
   238 Broy./Diag. 0.40E+00    9.8     1.83528794     -1077.5728455110 -7.64E+00
   239 Broy./Diag. 0.40E+00   10.0     1.82586400     -1079.1323734016 -1.56E+00
   240 Broy./Diag. 0.40E+00   10.0     1.69920472     -1074.6881420183  4.44E+00
   241 Broy./Diag. 0.40E+00   10.3     1.81819851     -1078.7501219550 -4.06E+00
   242 Broy./Diag. 0.40E+00    9.9     1.81352797     -1073.4604453044  5.29E+00
   243 Broy./Diag. 0.40E+00    9.8     1.84466002     -1076.1600325285 -2.70E+00
   244 Broy./Diag. 0.40E+00    9.8     1.76648618     -1076.9361692315 -7.76E-01
   245 Broy./Diag. 0.40E+00    9.6     1.79700563     -1074.8549425978  2.08E+00
   246 Broy./Diag. 0.40E+00   10.4     1.81165784     -1081.7186735157 -6.86E+00
   247 Broy./Diag. 0.40E+00   10.1     1.79658276     -1072.8005440813  8.92E+00
   248 Broy./Diag. 0.40E+00    9.7     1.85017846     -1080.0937919365 -7.29E+00
   249 Broy./Diag. 0.40E+00    9.8     1.72774622     -1070.7315504559  9.36E+00
   250 Broy./Diag. 0.40E+00   10.0     1.87914447     -1078.6300199279 -7.90E+00
   251 Broy./Diag. 0.40E+00    9.8     1.86344878     -1076.3064498795  2.32E+00
   252 Broy./Diag. 0.40E+00    9.7     1.86581654     -1074.2512115377  2.06E+00
   253 Broy./Diag. 0.40E+00    9.8     1.87906216     -1072.8466204799  1.40E+00
   254 Broy./Diag. 0.40E+00    9.8     1.80003889     -1078.5482306343 -5.70E+00
   255 Broy./Diag. 0.40E+00    9.7     1.83965620     -1080.2000317238 -1.65E+00
   256 Broy./Diag. 0.40E+00   10.0     1.66534995     -1079.4359659940  7.64E-01
   257 Broy./Diag. 0.40E+00   10.0     1.70573408     -1073.9861586013  5.45E+00
   258 Broy./Diag. 0.40E+00   10.0     1.77692364     -1076.0256698310 -2.04E+00
   259 Broy./Diag. 0.40E+00    9.8     1.81287251     -1073.0872199296  2.94E+00
   260 Broy./Diag. 0.40E+00    9.8     1.85730404     -1077.4746467813 -4.39E+00
   261 Broy./Diag. 0.40E+00   10.1     1.79212373     -1070.8779495150  6.60E+00
   262 Broy./Diag. 0.40E+00   10.1     1.84530585     -1079.6062461746 -8.73E+00
   263 Broy./Diag. 0.40E+00    9.8     1.60677233     -1073.4925463741  6.11E+00
   264 Broy./Diag. 0.40E+00    9.6     1.78787267     -1076.8056694119 -3.31E+00
   265 Broy./Diag. 0.40E+00   10.2     1.88592843     -1078.6709914334 -1.87E+00
   266 Broy./Diag. 0.40E+00   10.0     1.71886734     -1072.7391491086  5.93E+00
   267 Broy./Diag. 0.40E+00   10.1     1.79665191     -1078.1243071603 -5.39E+00
   268 Broy./Diag. 0.40E+00   10.0     1.83042339     -1076.7576527583  1.37E+00
   269 Broy./Diag. 0.40E+00   10.2     1.84135515     -1080.3761436494 -3.62E+00
   270 Broy./Diag. 0.40E+00   10.1     1.83910819     -1077.4821445299  2.89E+00
   271 Broy./Diag. 0.40E+00    9.6     1.76773897     -1076.4648066396  1.02E+00
   272 Broy./Diag. 0.40E+00    9.9     1.69787684     -1077.3359769398 -8.71E-01
   273 Broy./Diag. 0.40E+00   10.3     1.75762672     -1071.6605134878  5.68E+00
   274 Broy./Diag. 0.40E+00   10.1     1.66780925     -1077.6304981750 -5.97E+00
   275 Broy./Diag. 0.40E+00    9.6     1.76931426     -1072.2096320855  5.42E+00
   276 Broy./Diag. 0.40E+00    9.5     1.81105499     -1080.0712879104 -7.86E+00
   277 Broy./Diag. 0.40E+00    9.7     1.82859812     -1077.6888766605  2.38E+00
   278 Broy./Diag. 0.40E+00    9.7     1.86710105     -1075.9287541356  1.76E+00
   279 Broy./Diag. 0.40E+00    9.9     1.77848999     -1071.1610085512  4.77E+00
   280 Broy./Diag. 0.40E+00   10.0     1.80125744     -1080.4987811896 -9.34E+00
   281 Broy./Diag. 0.40E+00    9.8     1.83274675     -1078.7646319401  1.73E+00
   282 Broy./Diag. 0.40E+00    9.8     1.70698518     -1073.4580927452  5.31E+00
   283 Broy./Diag. 0.40E+00   10.2     1.79578774     -1072.9716438484  4.86E-01
   284 Broy./Diag. 0.40E+00   10.2     1.80912990     -1077.1663340024 -4.19E+00
   285 Broy./Diag. 0.40E+00   10.0     1.82098501     -1076.6878043874  4.79E-01
   286 Broy./Diag. 0.40E+00   10.0     1.63087882     -1074.2012363841  2.49E+00
   287 Broy./Diag. 0.40E+00    9.9     1.82307380     -1077.9198514008 -3.72E+00
   288 Broy./Diag. 0.40E+00   10.3     1.88144576     -1086.2428092392 -8.32E+00
   289 Broy./Diag. 0.40E+00   10.0     1.70269567     -1075.6262247011  1.06E+01
   290 Broy./Diag. 0.40E+00    9.8     1.83568325     -1075.4951659697  1.31E-01
   291 Broy./Diag. 0.40E+00    9.6     1.84968610     -1072.5906913568  2.90E+00
   292 Broy./Diag. 0.40E+00    9.8     1.80056686     -1074.3715464985 -1.78E+00
   293 Broy./Diag. 0.40E+00   10.1     1.77762045     -1081.2106747052 -6.84E+00
   294 Broy./Diag. 0.40E+00    9.9     1.79371619     -1070.9139762155  1.03E+01
   295 Broy./Diag. 0.40E+00    9.9     1.84519310     -1075.0233481466 -4.11E+00
   296 Broy./Diag. 0.40E+00   10.2     1.85529643     -1077.9799612640 -2.96E+00
   297 Broy./Diag. 0.40E+00   10.0     1.74611037     -1079.6853035726 -1.71E+00
   298 Broy./Diag. 0.40E+00   10.1     1.79436387     -1076.5620875357  3.12E+00
   299 Broy./Diag. 0.40E+00   10.2     1.81421803     -1076.7917741546 -2.30E-01
   300 Broy./Diag. 0.40E+00   10.7     1.78696721     -1070.8929702804  5.90E+00

  Leaving inner SCF loop after reaching   300 steps.


  Electronic density on regular grids:       -511.9997418388        0.0002581612
  Core density on regular grids:              512.0005530787        0.0005530787
  Total charge density on r-space grids:        0.0008112399
  Total charge density g-space grids:           0.0008112399

  Overlap energy of the core charge distribution:               0.00000000000000
  Self energy of the core charge distribution:              -2838.21791979120962
  Core Hamiltonian energy:                                    767.23083774849363
  Hartree energy:                                            1239.12378312671058
  Exchange-correlation energy:                               -239.02967136443189

  Total energy:                                             -1070.89297028043711

 *** WARNING in qs_scf.F:542 :: SCF run NOT converged ***


 ENERGY| Total FORCE_EVAL ( QS ) energy (a.u.):            -1061.932919619164750


 ATOMIC FORCES in [a.u.]

 # Atom   Kind   Element          X              Y              Z
      1      1      O           0.02045695    -0.12564661    -0.08554651
      2      2      H           0.01683773    -0.01753457     0.00778844
      3      2      H          -0.06647096     0.05005833    -0.04745469
      4      1      O           0.04965367     0.00806966    -0.10604463
      5      2      H           0.01062609     0.08195338     0.01013249
      6      2      H           0.07791034    -0.04153886     0.04776726
      7      1      O           0.13249312    -0.02825261     0.10886906
      8      2      H          -0.05598426    -0.00297280     0.09692708
      9      2      H          -0.10507504    -0.07459434    -0.03099667
     10      1      O          -0.12545132    -0.08060724     0.06283878
     11      2      H          -0.05540750    -0.00525797     0.00891325
     12      2      H           0.03058117    -0.03015253    -0.08935205
     13      1      O          -0.03124889     0.15573149     0.13920428
     14      2      H          -0.09858247     0.03832787     0.02950239
     15      2      H           0.08535671    -0.12127783     0.02432284
     16      1      O           0.11456561     0.00049768    -0.04059225
     17      2      H           0.04620531     0.03377092    -0.01222101
     18      2      H          -0.02061771     0.00550269     0.06228556
     19      1      O          -0.01098979     0.01515803     0.22138090
     20      2      H           0.04019949    -0.10215926    -0.02329144
     21      2      H           0.13302449     0.07320211     0.01648003
     22      1      O          -0.06799308    -0.17211031     0.04292640
     23      2      H          -0.02542609    -0.01128045     0.03660270
     24      2      H           0.02245855     0.07501533    -0.06162140
     25      1      O           0.29877351     0.05490168    -0.16990110
     26      2      H          -0.03536130    -0.04008519     0.03490004
     27      2      H          -0.26101935    -0.03414120     0.16755839
     28      1      O          -0.00542306     0.06096645    -0.02153659
     29      2      H          -0.03411497     0.05011891    -0.01278610
     30      2      H           0.03769859    -0.03148145     0.06500433
     31      1      O          -0.19664836    -0.12810956    -0.15773882
     32      2      H           0.05840986     0.09397396     0.06353908
     33      2      H           0.04957054    -0.01709060    -0.06497463
     34      1      O           0.12544597     0.00296974     0.06341250
     35      2      H          -0.09994412     0.01052995    -0.02454088
     36      2      H           0.12261667     0.02105193     0.00748196
     37      1      O           0.02490024     0.21614475     0.16734160
     38      2      H           0.05944928    -0.12883936     0.00404439
     39      2      H          -0.06077755    -0.07013813    -0.02992299
     40      1      O           0.04562147     0.03240116     0.03664164
     41      2      H          -0.02633500    -0.03984944     0.04750297
     42      2      H          -0.03263674     0.01122075    -0.10477180
     43      1      O           0.06677677     0.07541312    -0.13841207
     44      2      H           0.04728852    -0.06464043    -0.00087221
     45      2      H           0.06758439    -0.00369078     0.08444614
     46      1      O           0.01170366    -0.02279251     0.00193478
     47      2      H          -0.06460855     0.00428816     0.02474461
     48      2      H           0.10804259     0.02159312     0.00380347
     49      1      O           0.05532179     0.03106383    -0.07719334
     50      2      H           0.03717909    -0.08181859    -0.04101322
     51      2      H          -0.11789522     0.08213027     0.02043542
     52      1      O           0.15862432     0.04859540    -0.18575715
     53      2      H           0.02642523     0.03529781    -0.04710653
     54      2      H          -0.12815342    -0.04366097     0.25779592
     55      1      O          -0.01889135    -0.16445261    -0.05977368
     56      2      H           0.05627652    -0.02754168     0.09093515
     57      2      H           0.04157767     0.01579021    -0.09805676
     58      1      O          -0.04937272    -0.14077717     0.11590754
     59      2      H          -0.03112931    -0.00056952     0.01103175
     60      2      H           0.01311843     0.03008713    -0.04477205
     61      1      O          -0.06837194     0.02271974    -0.15854606
     62      2      H           0.01478075     0.09566261     0.03599254
     63      2      H          -0.06118317     0.00192818     0.00679089
     64      1      O           0.15713749    -0.08053590     0.16470002
     65      2      H          -0.05186207    -0.10337212     0.02314578
     66      2      H          -0.02956449     0.09529789    -0.04474364
     67      1      O          -0.07600685     0.07096946    -0.06676339
     68      2      H           0.06985584    -0.03151949    -0.03547268
     69      2      H          -0.03983727    -0.00766095    -0.07884711
     70      1      O          -0.17790525     0.13960501    -0.10463029
     71      2      H          -0.04300891    -0.06897491     0.04039949
     72      2      H           0.09383299    -0.07453325    -0.02143969
     73      1      O           0.12379170    -0.13915244     0.06485225
     74      2      H           0.04800424     0.07353545     0.06562730
     75      2      H          -0.04697113    -0.03106723     0.04135096
     76      1      O          -0.11283370     0.10352971     0.11824279
     77      2      H           0.07685959    -0.03656820    -0.02323851
     78      2      H           0.00698116     0.04628352    -0.04950811
     79      1      O          -0.08854137    -0.11168995     0.12649014
     80      2      H          -0.00722784    -0.02593410     0.03187669
     81      2      H          -0.03401960    -0.02828604    -0.03608457
     82      1      O          -0.10957615    -0.13655987     0.18563674
     83      2      H          -0.02931036     0.06876711    -0.03712027
     84      2      H           0.02507939    -0.04443781    -0.16049739
     85      1      O           0.11090211     0.09458581    -0.01433019
     86      2      H           0.06515215     0.00264946    -0.01945915
     87      2      H           0.00983373     0.02082357    -0.03629418
     88      1      O          -0.00788821    -0.01671231     0.09686896
     89      2      H           0.00829519    -0.13053171     0.04960094
     90      2      H           0.09347753     0.03577529     0.03376945
     91      1      O           0.09625229    -0.02925651     0.03200724
     92      2      H           0.08553787    -0.02330088    -0.00615422
     93      2      H          -0.03493765    -0.00906780    -0.06677267
     94      1      O          -0.11058598     0.00018462    -0.11835081
     95      2      H          -0.00835629     0.06446787     0.03340165
     96      2      H           0.00262108     0.00390294     0.01664749
     97      1      O           0.06394810     0.18196968     0.09352502
     98      2      H           0.03483679    -0.02598207     0.00459940
     99      2      H           0.06665563    -0.09294917    -0.04347852
    100      1      O           0.14563020     0.12693611     0.05582278
    101      2      H           0.02496301    -0.03211648     0.03591871
    102      2      H          -0.08198787     0.00057430    -0.00051507
    103      1      O           0.01125992    -0.00441654    -0.08472734
    104      2      H          -0.01361951    -0.04103888    -0.01518646
    105      2      H           0.01524544     0.00462270     0.03238646
    106      1      O           0.12213955    -0.16843503    -0.07860142
    107      2      H          -0.06120908     0.06052196     0.01941740
    108      2      H          -0.02433844    -0.03715715     0.00062435
    109      1      O           0.00710160     0.05952428     0.19931484
    110      2      H          -0.02487046     0.04324888    -0.09232092
    111      2      H          -0.06319530     0.01671565    -0.01981894
    112      1      O           0.03246387    -0.13587944    -0.08731897
    113      2      H           0.06672730    -0.00759763     0.06685954
    114      2      H          -0.07688750    -0.00855276     0.07345913
    115      1      O           0.13899454     0.20863400     0.10096063
    116      2      H           0.00769279    -0.10700952     0.03855068
    117      2      H          -0.10551882    -0.03293311     0.09102021
    118      1      O           0.05815366    -0.08208273    -0.07763370
    119      2      H          -0.04389937     0.05495649     0.04022170
    120      2      H           0.04485619     0.06119210     0.01498374
    121      1      O          -0.12692431    -0.00590493    -0.17717521
    122      2      H          -0.01391532     0.01523591     0.00189275
    123      2      H           0.02615960     0.00276874    -0.03707950
    124      1      O          -0.12344091    -0.08422840    -0.00937569
    125      2      H           0.08563167     0.05320562    -0.05018399
    126      2      H          -0.05394238    -0.01676561     0.03954247
    127      1      O           0.11095498     0.16295807     0.15914132
    128      2      H          -0.04375263    -0.05591914    -0.01740709
    129      2      H           0.05172560     0.03664572    -0.11469730
    130      1      O           0.14359816     0.02702198    -0.02397330
    131      2      H          -0.02167066    -0.00388471    -0.09343916
    132      2      H          -0.02790538    -0.10229894     0.04568551
    133      1      O          -0.11955934    -0.14557248     0.07926552
    134      2      H           0.00239026    -0.01304935     0.05697114
    135      2      H           0.01991945     0.03955245    -0.06210283
    136      1      O           0.17456166    -0.12956156    -0.10017329
    137      2      H          -0.05557768    -0.02391487     0.04779759
    138      2      H          -0.19162141     0.14973822    -0.02063658
    139      1      O           0.03000620    -0.07381019     0.18485294
    140      2      H           0.09432372    -0.04130381    -0.01490152
    141      2      H           0.03965311     0.10459123     0.02145506
    142      1      O           0.17184878    -0.10302682     0.08674789
    143      2      H          -0.07261064     0.02684044     0.02327203
    144      2      H          -0.02061613    -0.02906002    -0.03513017
    145      1      O           0.14208615     0.02840453     0.02148213
    146      2      H          -0.02387729    -0.03256185    -0.03470151
    147      2      H           0.04096193    -0.00850637     0.02521770
    148      1      O          -0.13789894    -0.01817927    -0.23074112
    149      2      H           0.09626884     0.08003200     0.08099801
    150      2      H          -0.04534393    -0.12426706     0.04260454
    151      1      O           0.03912693    -0.01212206    -0.06754740
    152      2      H          -0.00340243    -0.06150651     0.10463582
    153      2      H           0.01079628     0.04142878    -0.03180893
    154      1      O           0.01661267     0.06647510     0.03792502
    155      2      H           0.03134475    -0.05405204     0.04712238
    156      2      H           0.05408927     0.07491370    -0.05843467
    157      1      O           0.19387115    -0.13397241     0.16946814
    158      2      H           0.04569459     0.13558111     0.05926796
    159      2      H          -0.10933041    -0.07154844    -0.10638940
    160      1      O           0.14299850     0.15787027     0.11279770
    161      2      H          -0.03128830    -0.05847567     0.05802516
    162      2      H          -0.07134724     0.05812363    -0.03961285
    163      1      O           0.04394182     0.07258808    -0.02299976
    164      2      H          -0.01418403     0.07039476     0.00658117
    165      2      H          -0.09415889    -0.01884486     0.04207341
    166      1      O          -0.16623962     0.11899314    -0.11950165
    167      2      H           0.02487908    -0.04263825     0.07218920
    168      2      H           0.03454639     0.02924246    -0.03270469
    169      1      O          -0.04264556     0.08926676     0.02137527
    170      2      H          -0.01644631    -0.00710296     0.04124390
    171      2      H           0.04952673     0.09069308     0.09060627
    172      1      O          -0.07260961     0.12117911    -0.15584789
    173      2      H           0.02414868    -0.00798080    -0.00471821
    174      2      H           0.00125623     0.04869505     0.04958866
    175      1      O           0.20538520     0.02827367     0.19575233
    176      2      H          -0.02828659     0.04675789    -0.03563284
    177      2      H          -0.11554013    -0.11949343    -0.23766618
    178      1      O           0.00341542     0.06566760    -0.00486908
    179      2      H           0.00800549    -0.02598646     0.06734879
    180      2      H           0.02632758     0.09673903     0.04254704
    181      1      O          -0.08529414    -0.20713180     0.08367313
    182      2      H           0.01579632     0.02244157    -0.07570030
    183      2      H           0.03965472     0.05691318     0.11805708
    184      1      O           0.03521254    -0.16251477    -0.04911839
    185      2      H           0.02017945     0.05283904    -0.08747930
    186      2      H           0.12434710    -0.02677985     0.10308380
    187      1      O          -0.14151194    -0.04304141    -0.08501254
    188      2      H          -0.01606447     0.06223483    -0.08146650
    189      2      H          -0.02316290    -0.00682967     0.07971098
    190      1      O           0.09849656    -0.05808982    -0.14893484
    191      2      H           0.03745772    -0.02005029    -0.02851373
    192      2      H          -0.01562790    -0.01232507     0.06334208
 SUM OF ATOMIC FORCES           1.19416920    -0.39096157     0.95302864     1.57707154

 -------------------------------------------------------------------------------
 -                                                                             -
 -                                DBCSR STATISTICS                             -
 -                                                                             -
 -------------------------------------------------------------------------------
 COUNTER                                    TOTAL       BLAS       SMM       ACC
 flops     5 x     5 x   256           4357516800       0.0%    100.0%      0.0%
 flops     5 x    13 x   256           5118830080       0.0%    100.0%      0.0%
 flops    13 x     5 x   256           5419348480       0.0%    100.0%      0.0%
 flops    13 x    13 x   256           7292579840       0.0%    100.0%      0.0%
 flops inhomo. stacks                           0       0.0%      0.0%      0.0%
 flops total                        22.188275E+09       0.0%    100.0%      0.0%
 flops max/rank                     22.188275E+09       0.0%    100.0%      0.0%
 matmuls inhomo. stacks                         0       0.0%      0.0%      0.0%
 matmuls total                             741363       0.0%    100.0%      0.0%
 number of processed stacks                 42140       0.0%    100.0%      0.0%
 average stack size                                     0.0      17.6       0.0
 marketing flops                   333.927416E+09
 -------------------------------------------------------------------------------
 # multiplications                            301
 max memory usage/rank               5.024961E+09
 # max total images/rank                        1
 # max 3D layers                                1
 # MPI messages exchanged                       0
 MPI messages size (bytes):
  total size                         0.000000E+00
  min size                           0.000000E+00
  max size                           0.000000E+00
  average size                       0.000000E+00
 MPI breakdown and total messages size (bytes):
             size <=      128                   0                        0
       128 < size <=     8192                   0                        0
      8192 < size <=    32768                   0                        0
     32768 < size <=   131072                   0                        0
    131072 < size <=  4194304                   0                        0
   4194304 < size <= 16777216                   0                        0
  16777216 < size                               0                        0
 -------------------------------------------------------------------------------

 MEMORY| Estimated peak process memory [MiB]                                4787

 -------------------------------------------------------------------------------
 -                                                                             -
 -                           R E F E R E N C E S                               -
 -                                                                             -
 -------------------------------------------------------------------------------
 
 CP2K version 7.1, the CP2K developers group (2019).
 CP2K is freely available from https://www.cp2k.org/ .

 Schuett, Ole; Messmer, Peter; Hutter, Juerg; VandeVondele, Joost. 
 Electronic Structure Calculations on Graphics Processing Units, John
 Wiley & Sons, Ltd, 173-190 (2016). 
 GPU-Accelerated Sparse Matrix-Matrix Multiplication for
 Linear Scaling Density Functional Theory.
 https://dx.doi.org/10.1002/9781118670712.ch8

 Borstnik, U; VandeVondele, J; Weber, V; Hutter, J. 
 PARALLEL COMPUTING, 40 (5-6), 47-58 (2014). 
 Sparse matrix multiplication: The distributed block-compressed sparse
 row library.
 https://dx.doi.org/10.1016/j.parco.2014.03.012

 Hutter, J; Iannuzzi, M; Schiffmann, F; VandeVondele, J. 
 WIREs Comput Mol Sci., 4 (1), 15-25 (2014). 
 CP2K: atomistic simulations of condensed matter systems.
 https://dx.doi.org/10.1002/wcms.1159

 Krack, M. 
 THEORETICAL CHEMISTRY ACCOUNTS, 114 (1-3), 145-152 (2005). 
 Pseudopotentials for H to Kr optimized for gradient-corrected
 exchange-correlation functionals.
 https://dx.doi.org/10.1007/s00214-005-0655-y

 VandeVondele, J; Krack, M; Mohamed, F; Parrinello, M; Chassaing, T;
 Hutter, J. COMPUTER PHYSICS COMMUNICATIONS, 167 (2), 103-128 (2005). 
 QUICKSTEP: Fast and accurate density functional calculations using a
 mixed Gaussian and plane waves approach.
 https://dx.doi.org/10.1016/j.cpc.2004.12.014

 Frigo, M; Johnson, SG. 
 PROCEEDINGS OF THE IEEE, 93 (2), 216-231 (2005). 
 The design and implementation of FFTW3.
 https://dx.doi.org/10.1109/JPROC.2004.840301

 Hartwigsen, C; Goedecker, S; Hutter, J. 
 PHYSICAL REVIEW B, 58 (7), 3641-3662 (1998). 
 Relativistic separable dual-space Gaussian pseudopotentials from H to Rn.
 https://dx.doi.org/10.1103/PhysRevB.58.3641

 Lippert, G; Hutter, J; Parrinello, M. 
 MOLECULAR PHYSICS, 92 (3), 477-487 (1997). 
 A hybrid Gaussian and plane wave density functional scheme.
 https://dx.doi.org/10.1080/002689797170220

 Goedecker, S; Teter, M; Hutter, J. 
 PHYSICAL REVIEW B, 54 (3), 1703-1710 (1996). 
 Separable dual-space Gaussian pseudopotentials.
 https://dx.doi.org/10.1103/PhysRevB.54.1703


 -------------------------------------------------------------------------------
 -                                                                             -
 -                                T I M I N G                                  -
 -                                                                             -
 -------------------------------------------------------------------------------
 SUBROUTINE                       CALLS  ASD         SELF TIME        TOTAL TIME
                                MAXIMUM       AVERAGE  MAXIMUM  AVERAGE  MAXIMUM
 CP2K                                 1  1.0    0.190    0.190 2987.984 2987.984
 qs_forces                            1  2.0    0.000    0.000 2985.603 2985.603
 qs_energies                          1  3.0    0.000    0.000 2984.413 2984.413
 scf_env_do_scf                       1  4.0    0.001    0.001 2981.746 2981.746
 scf_env_do_scf_inner_loop          300  5.0    0.060    0.060 2981.746 2981.746
 qs_scf_new_mos                     300  6.0    0.009    0.009 2048.730 2048.730
 eigensolver                        300  7.0    0.060    0.060 1935.952 1935.952
 cp_fm_syevd                        300  8.0 1263.144 1263.144 1264.991 1264.991
 cp_fm_cholesky_restore             900  8.0  669.842  669.842  669.842  669.842
 gspace_mixing                      299  6.0    6.705    6.705  473.010  473.010
 broyden_mixing                     299  7.0  427.383  427.383  427.385  427.385
 rebuild_ks_matrix                  301  7.0    0.001    0.001  247.617  247.617
 qs_ks_build_kohn_sham_matrix       301  8.0    0.084    0.084  247.616  247.616
 qs_ks_update_qs_env                300  6.0    0.003    0.003  247.241  247.241
 pw_transfer                       3912  9.9    0.318    0.318  218.551  218.551
 fft_wrap_pw1pw2                   3310 10.9    0.038    0.038  211.910  211.910
 qs_rho_update_rho                  301  6.0    0.003    0.003  210.728  210.728
 calculate_rho_elec                 301  7.0   94.888   94.888  210.725  210.725
 fft_wrap_pw1pw2_70                1504 11.2   20.827   20.827  172.522  172.522
 density_rs2pw                      301  8.0    0.025    0.025  110.181  110.181
 sum_up_and_integrate               301  9.0    3.408    3.408  106.893  106.893
 fft3d_s                           3311 12.9  105.238  105.238  105.320  105.320
 integrate_v_rspace                 301 10.0    9.738    9.738  103.484  103.484
 calculate_dm_sparse                300  7.0    0.004    0.004   77.726   77.726
 cp_dbcsr_plus_fm_fm_t_native       301  8.0    0.016    0.016   76.075   76.075
 pw_scatter_s                      1804 13.2   62.329   62.329   62.329   62.329
 pw_poisson_solve                   301  9.0   53.915   53.915   60.337   60.337
 potential_pw2rs                    301 11.0    0.533    0.533   59.970   59.970
 -------------------------------------------------------------------------------

 The number of warnings for this run is : 1
 
 -------------------------------------------------------------------------------
  **** **** ******  **  PROGRAM ENDED AT                 2021-01-11 18:19:52.711
 ***** ** ***  *** **   PROGRAM RAN ON                                   gnode23
 **    ****   ******    PROGRAM RAN BY                               mayank.modi
 ***** **    ** ** **   PROGRAM PROCESS ID                                  7777
  **** **  *******  **  PROGRAM STOPPED IN /home/mayank.modi/ab-initio-thermodyn
                                           amics-of-water/mayank/cp2k_energy_cal
                                           culations
