 DBCSR| CPU Multiplication driver                                           XSMM
 DBCSR| Multrec recursion limit                                              512
 DBCSR| Multiplication stack size                                           1000
 DBCSR| Maximum elements for images                                    UNLIMITED
 DBCSR| Multiplicative factor virtual images                                   1
 DBCSR| Use multiplication densification                                       T
 DBCSR| Multiplication size stacks                                             3


  **** **** ******  **  PROGRAM STARTED AT               2021-02-22 06:45:55.632
 ***** ** ***  *** **   PROGRAM STARTED ON                               gnode68
 **    ****   ******    PROGRAM STARTED BY                           mayank.modi
 ***** **    ** ** **   PROGRAM PROCESS ID                                 16398
  **** **  *******  **  PROGRAM STARTED IN /home/mayank.modi/ab-initio-thermodyn
                                           amics-of-water/mayank/cp2k_energy_cal
                                           culations

 CP2K| version string:                                          CP2K version 7.1
 CP2K| source code revision number:                                  git:e635599
 CP2K| cp2kflags: omp libint fftw3 libxc xsmm spglib                            
 CP2K| is freely available from                            https://www.cp2k.org/
 CP2K| Program compiled at                          Mon Dec 23 19:23:12 CET 2019
 CP2K| Program compiled on                                                pc9404
 CP2K| Program compiled for                                Linux-x86-64-gfortran
 CP2K| Data directory path                                        /opt/cp2k/data
 CP2K| Input file name                  input_training_correct_cell/input1312.in

 GLOBAL| Force Environment number                                              1
 GLOBAL| Basis set file name                                           BASIS_SET
 GLOBAL| Potential file name                                      GTH_POTENTIALS
 GLOBAL| MM Potential file name                                     MM_POTENTIAL
 GLOBAL| Coordinate file name                                      __STD_INPUT__
 GLOBAL| Method name                                                        CP2K
 GLOBAL| Project name                                                   H2O_bulk
 GLOBAL| Preferred FFT library                                             FFTW3
 GLOBAL| Preferred diagonalization lib.                                       SL
 GLOBAL| Run type                                                   ENERGY_FORCE
 GLOBAL| All-to-all communication in single precision                          F
 GLOBAL| FFTs using library dependent lengths                                  F
 GLOBAL| Global print level                                                  LOW
 GLOBAL| MPI I/O enabled                                                       T
 GLOBAL| Total number of message passing processes                             1
 GLOBAL| Number of threads for this process                                   36
 GLOBAL| This output is from process                                           0
 GLOBAL| CPU model name                Intel(R) Xeon(R) CPU E5-2640 v4 @ 2.40GHz
 GLOBAL| CPUID                                                              1002
 GLOBAL| Compiled for CPUID                                                    0

 MEMORY| system memory details [Kb]
 MEMORY|                        rank 0           min           max       average
 MEMORY| MemTotal            131893512     131893512     131893512     131893512
 MEMORY| MemFree             119711700     119711700     119711700     119711700
 MEMORY| Buffers               1024256       1024256       1024256       1024256
 MEMORY| Cached                9698620       9698620       9698620       9698620
 MEMORY| Slab                  1013752       1013752       1013752       1013752
 MEMORY| SReclaimable           622484        622484        622484        622484
 MEMORY| MemLikelyFree       131057060     131057060     131057060     131057060


 GENERATE|  Preliminary Number of Bonds generated:                             0
 GENERATE|  Achieved consistency in connectivity generation.

 *******************************************************************************
 *******************************************************************************
 **                                                                           **
 **     #####                         ##              ##                      **
 **    ##   ##            ##          ##              ##                      **
 **   ##     ##                       ##            ######                    **
 **   ##     ##  ##   ##  ##   #####  ##  ##   ####   ##    #####    #####    **
 **   ##     ##  ##   ##  ##  ##      ## ##   ##      ##   ##   ##  ##   ##   **
 **   ##  ## ##  ##   ##  ##  ##      ####     ###    ##   ######   ######    **
 **    ##  ###   ##   ##  ##  ##      ## ##      ##   ##   ##       ##        **
 **     #######   #####   ##   #####  ##  ##  ####    ##    #####   ##        **
 **           ##                                                    ##        **
 **                                                                           **
 **                                                ... make the atoms dance   **
 **                                                                           **
 **            Copyright (C) by CP2K developers group (2000 - 2019)           **
 **                                                                           **
 *******************************************************************************


 TOTAL NUMBERS AND MAXIMUM NUMBERS

  Total number of            - Atomic kinds:                                   2
                             - Atoms:                                        192
                             - Shell sets:                                   384
                             - Shells:                                       704
                             - Primitive Cartesian functions:                960
                             - Cartesian basis functions:                   1536
                             - Spherical basis functions:                   1472

  Maximum angular momentum of- Orbital basis functions:                        2
                             - Local part of the GTH pseudopotential:          2
                             - Non-local part of the GTH pseudopotential:      0


 SCF PARAMETERS         Density guess:                                    ATOMIC
                        --------------------------------------------------------
                        max_scf:                                             300
                        max_scf_history:                                       0
                        max_diis:                                              4
                        --------------------------------------------------------
                        eps_scf:                                        1.00E-07
                        eps_scf_history:                                0.00E+00
                        eps_diis:                                       1.00E-01
                        eps_eigval:                                     1.00E-05
                        --------------------------------------------------------
                        level_shift [a.u.]:                                 0.00
                        --------------------------------------------------------
                        Mixing method:                            BROYDEN_MIXING
                                                charge density mixing in g-space
                        --------------------------------------------------------
                        No outer SCF

 Number of electrons:                                                        512
 Number of occupied orbitals:                                                256
 Number of molecular orbitals:                                               256

 Number of orbital functions:                                               1472
 Number of independent orbital functions:                                   1472

 Extrapolation method: initial_guess


 SCF WAVEFUNCTION OPTIMIZATION

  Step     Update method      Time    Convergence         Total energy    Change
  ------------------------------------------------------------------------------
     1 NoMix/Diag. 0.40E+00    7.1     0.61957275     -1063.9546121871 -1.06E+03
     2 Broy./Diag. 0.40E+00    7.8     1.85427316      -993.6354832737  7.03E+01
     3 Broy./Diag. 0.40E+00    8.1     1.90018887     -1271.4008474816 -2.78E+02
     4 Broy./Diag. 0.40E+00    8.1     1.56098614     -1120.5928839604  1.51E+02
     5 Broy./Diag. 0.40E+00    8.8     1.63740322     -1094.6844075185  2.59E+01
     6 Broy./Diag. 0.40E+00    9.1     1.69367432     -1099.6798336708 -5.00E+00
     7 Broy./Diag. 0.40E+00    9.2     1.71578569     -1097.1693658161  2.51E+00
     8 Broy./Diag. 0.40E+00    9.2     0.43214887     -1079.8381408505  1.73E+01
     9 Broy./Diag. 0.40E+00    9.4     0.20555367     -1071.7199860765  8.12E+00
    10 Broy./Diag. 0.40E+00    9.5     0.11535138     -1072.6797528234 -9.60E-01
    11 Broy./Diag. 0.40E+00    9.5     1.57682459     -1073.6648380394 -9.85E-01
    12 Broy./Diag. 0.40E+00    9.7     1.60225539     -1075.0444213667 -1.38E+00
    13 Broy./Diag. 0.40E+00    9.4     1.23345440     -1070.7053247753  4.34E+00
    14 Broy./Diag. 0.40E+00    9.5     1.26615602     -1078.2104092751 -7.51E+00
    15 Broy./Diag. 0.40E+00    9.5     1.52813787     -1075.9225560282  2.29E+00
    16 Broy./Diag. 0.40E+00    9.6     1.53849141     -1079.8162003133 -3.89E+00
    17 Broy./Diag. 0.40E+00    9.6     0.28989854     -1075.6648302873  4.15E+00
    18 Broy./Diag. 0.40E+00    9.5     0.25318414     -1074.2917222776  1.37E+00
    19 Broy./Diag. 0.40E+00    9.6     0.20687556     -1075.3912884248 -1.10E+00
    20 Broy./Diag. 0.40E+00    9.6     0.11096959     -1075.3535814736  3.77E-02
    21 Broy./Diag. 0.40E+00    9.4     0.14188162     -1075.5342854524 -1.81E-01
    22 Broy./Diag. 0.40E+00    9.6     0.08867777     -1075.7856121212 -2.51E-01
    23 Broy./Diag. 0.40E+00    9.5     0.03251856     -1075.7477097262  3.79E-02
    24 Broy./Diag. 0.40E+00    9.5     0.03711595     -1075.2863189400  4.61E-01
    25 Broy./Diag. 0.40E+00    9.8     1.18478122     -1075.7097224494 -4.23E-01
    26 Broy./Diag. 0.40E+00   10.1     1.20390534     -1077.7323253089 -2.02E+00
    27 Broy./Diag. 0.40E+00   10.0     0.65776522     -1076.6164363970  1.12E+00
    28 Broy./Diag. 0.40E+00    9.5     0.09988463     -1075.5340436388  1.08E+00
    29 Broy./Diag. 0.40E+00    9.6     0.07054678     -1075.8277856770 -2.94E-01
    30 Broy./Diag. 0.40E+00    9.4     0.04044588     -1075.5283572131  2.99E-01
    31 Broy./Diag. 0.40E+00    9.6     0.03553294     -1075.6132595203 -8.49E-02
    32 Broy./Diag. 0.40E+00    9.5     0.02274405     -1075.5853497298  2.79E-02
    33 Broy./Diag. 0.40E+00    9.6     0.00681155     -1075.6606939683 -7.53E-02
    34 Broy./Diag. 0.40E+00    9.6     0.01000319     -1075.6251026970  3.56E-02
    35 Broy./Diag. 0.40E+00    9.6     1.18197856     -1075.6445117671 -1.94E-02
    36 Broy./Diag. 0.40E+00    9.3     1.19973291     -1077.3139635564 -1.67E+00
    37 Broy./Diag. 0.40E+00    9.6     0.42672239     -1076.0916082058  1.22E+00
    38 Broy./Diag. 0.40E+00    9.3     0.08412404     -1075.3633050445  7.28E-01
    39 Broy./Diag. 0.40E+00    9.1     0.03929910     -1075.5846433671 -2.21E-01
    40 Broy./Diag. 0.40E+00    9.5     0.02036862     -1075.5960905292 -1.14E-02
    41 Broy./Diag. 0.40E+00    9.6     0.01892868     -1075.6248634995 -2.88E-02
    42 Broy./Diag. 0.40E+00    9.4     0.02192219     -1075.6437661267 -1.89E-02
    43 Broy./Diag. 0.40E+00    9.7     0.01666345     -1075.5818981798  6.19E-02
    44 Broy./Diag. 0.40E+00    9.6     0.01701869     -1075.6399057602 -5.80E-02
    45 Broy./Diag. 0.40E+00    9.4     1.18302443     -1075.6786938383 -3.88E-02
    46 Broy./Diag. 0.40E+00    9.3     1.19887209     -1077.2218437787 -1.54E+00
    47 Broy./Diag. 0.40E+00    9.1     0.31270721     -1075.8763022507  1.35E+00
    48 Broy./Diag. 0.40E+00    9.0     0.06295705     -1075.6052305833  2.71E-01
    49 Broy./Diag. 0.40E+00    9.6     0.02211476     -1075.5546514184  5.06E-02
    50 Broy./Diag. 0.40E+00    9.5     0.01510217     -1075.5851812339 -3.05E-02
    51 Broy./Diag. 0.40E+00    9.4     0.01601691     -1075.6229551292 -3.78E-02
    52 Broy./Diag. 0.40E+00    9.6     0.03095111     -1075.6340924696 -1.11E-02
    53 Broy./Diag. 0.40E+00    9.6     0.02550994     -1075.7187033353 -8.46E-02
    54 Broy./Diag. 0.40E+00    9.3     0.12101256     -1075.6874466834  3.13E-02
    55 Broy./Diag. 0.40E+00    9.2     1.18071298     -1075.7569572738 -6.95E-02
    56 Broy./Diag. 0.40E+00    9.6     1.20018150     -1077.3075037068 -1.55E+00
    57 Broy./Diag. 0.40E+00    9.4     0.03408990     -1075.6206736601  1.69E+00
    58 Broy./Diag. 0.40E+00    9.6     0.01806812     -1075.6820165523 -6.13E-02
    59 Broy./Diag. 0.40E+00    9.6     0.00684284     -1075.7038553073 -2.18E-02
    60 Broy./Diag. 0.40E+00    9.8     0.00804228     -1075.6606885487  4.32E-02
    61 Broy./Diag. 0.40E+00    9.7     0.00561234     -1075.6790282050 -1.83E-02
    62 Broy./Diag. 0.40E+00    9.3     0.00273006     -1075.6940843950 -1.51E-02
    63 Broy./Diag. 0.40E+00    9.4     0.00267847     -1075.6828253039  1.13E-02
    64 Broy./Diag. 0.40E+00    9.6     0.00216685     -1075.6874518814 -4.63E-03
    65 Broy./Diag. 0.40E+00    9.4     1.17563177     -1075.6869075835  5.44E-04
    66 Broy./Diag. 0.40E+00    9.5     1.20596499     -1077.1983927514 -1.51E+00
    67 Broy./Diag. 0.40E+00    9.3     0.03815173     -1075.6224053283  1.58E+00
    68 Broy./Diag. 0.40E+00    9.4     0.02828680     -1075.6135001254  8.91E-03
    69 Broy./Diag. 0.40E+00    9.8     0.01262077     -1075.6903760347 -7.69E-02
    70 Broy./Diag. 0.40E+00    9.5     0.00823324     -1075.6647061233  2.57E-02
    71 Broy./Diag. 0.40E+00    9.6     0.01091331     -1075.6357528707  2.90E-02
    72 Broy./Diag. 0.40E+00    9.5     0.00568522     -1075.6699458443 -3.42E-02
    73 Broy./Diag. 0.40E+00    9.3     0.00733570     -1075.6699229749  2.29E-05
    74 Broy./Diag. 0.40E+00    8.9     0.00411143     -1075.6825456262 -1.26E-02
    75 Broy./Diag. 0.40E+00    8.8     1.17859279     -1075.6670413322  1.55E-02
    76 Broy./Diag. 0.40E+00    9.1     1.46098345     -1077.1716931377 -1.50E+00
    77 Broy./Diag. 0.40E+00    9.6     1.46216376     -1077.2493649572 -7.77E-02
    78 Broy./Diag. 0.40E+00    9.3     0.11803595     -1075.5954335492  1.65E+00
    79 Broy./Diag. 0.40E+00    9.4     0.12355904     -1075.0294312057  5.66E-01
    80 Broy./Diag. 0.40E+00    9.3     0.03544519     -1075.5905102725 -5.61E-01
    81 Broy./Diag. 0.40E+00    9.6     0.02958634     -1075.6884158834 -9.79E-02
    82 Broy./Diag. 0.40E+00    9.5     0.01999246     -1075.5727475926  1.16E-01
    83 Broy./Diag. 0.40E+00    9.5     0.01143293     -1075.5752336330 -2.49E-03
    84 Broy./Diag. 0.40E+00    9.5     0.01434682     -1075.5870378679 -1.18E-02
    85 Broy./Diag. 0.40E+00    9.5     1.19776340     -1075.6228448152 -3.58E-02
    86 Broy./Diag. 0.40E+00    9.5     1.23370748     -1077.3165453116 -1.69E+00
    87 Broy./Diag. 0.40E+00    9.4     0.04707113     -1075.5848317234  1.73E+00
    88 Broy./Diag. 0.40E+00    9.9     0.03202118     -1075.4882730731  9.66E-02
    89 Broy./Diag. 0.40E+00    9.6     0.03005375     -1075.7039084312 -2.16E-01
    90 Broy./Diag. 0.40E+00    9.3     0.02412635     -1075.5352333906  1.69E-01
    91 Broy./Diag. 0.40E+00    9.6     0.00947181     -1075.6162456464 -8.10E-02
    92 Broy./Diag. 0.40E+00    9.6     0.01215152     -1075.6362648585 -2.00E-02
    93 Broy./Diag. 0.40E+00    9.5     0.00406082     -1075.6566568723 -2.04E-02
    94 Broy./Diag. 0.40E+00    9.4     0.00742283     -1075.6466575415  1.00E-02
    95 Broy./Diag. 0.40E+00    9.4     1.18707135     -1075.6500616598 -3.40E-03
    96 Broy./Diag. 0.40E+00    9.2     1.46397086     -1077.2420562183 -1.59E+00
    97 Broy./Diag. 0.40E+00    9.5     1.47176246     -1076.9541096623  2.88E-01
    98 Broy./Diag. 0.40E+00    9.4     0.15212058     -1075.4089704869  1.55E+00
    99 Broy./Diag. 0.40E+00    9.5     0.14385453     -1075.7767441682 -3.68E-01
   100 Broy./Diag. 0.40E+00    9.7     0.02433161     -1075.3610438185  4.16E-01
   101 Broy./Diag. 0.40E+00    9.6     0.02164951     -1075.6850392114 -3.24E-01
   102 Broy./Diag. 0.40E+00    9.3     0.01473556     -1075.5247974189  1.60E-01
   103 Broy./Diag. 0.40E+00    9.6     0.01548305     -1075.5326790884 -7.88E-03
   104 Broy./Diag. 0.40E+00    9.5     0.02326464     -1075.5773997402 -4.47E-02
   105 Broy./Diag. 0.40E+00    9.5     1.20399536     -1075.6265826015 -4.92E-02
   106 Broy./Diag. 0.40E+00    9.7     1.27231535     -1077.1605741055 -1.53E+00
   107 Broy./Diag. 0.40E+00    9.5     1.44601229     -1077.1959309681 -3.54E-02
   108 Broy./Diag. 0.40E+00    9.5     1.50224778     -1076.7834464736  4.12E-01
   109 Broy./Diag. 0.40E+00    9.4     0.17235064     -1075.1837805748  1.60E+00
   110 Broy./Diag. 0.40E+00    9.5     0.14257123     -1075.4498998896 -2.66E-01
   111 Broy./Diag. 0.40E+00    9.6     0.04740840     -1075.2809295326  1.69E-01
   112 Broy./Diag. 0.40E+00    9.3     0.03280410     -1075.5714211115 -2.90E-01
   113 Broy./Diag. 0.40E+00    9.6     0.02564495     -1075.5010660205  7.04E-02
   114 Broy./Diag. 0.40E+00    9.5     0.02471014     -1075.4167406503  8.43E-02
   115 Broy./Diag. 0.40E+00    9.4     1.20901258     -1075.5460816650 -1.29E-01
   116 Broy./Diag. 0.40E+00    9.3     1.23943960     -1077.1739653404 -1.63E+00
   117 Broy./Diag. 0.40E+00    9.5     0.17439618     -1075.7307673434  1.44E+00
   118 Broy./Diag. 0.40E+00    9.6     0.09242546     -1075.2586903697  4.72E-01
   119 Broy./Diag. 0.40E+00    9.4     0.04494084     -1075.4456332791 -1.87E-01
   120 Broy./Diag. 0.40E+00    9.5     0.03599190     -1075.6839252845 -2.38E-01
   121 Broy./Diag. 0.40E+00    9.5     0.01800966     -1075.6670695432  1.69E-02
   122 Broy./Diag. 0.40E+00    9.4     0.03325794     -1075.6028574053  6.42E-02
   123 Broy./Diag. 0.40E+00    9.6     0.02050111     -1075.6673454652 -6.45E-02
   124 Broy./Diag. 0.40E+00    9.4     0.01435992     -1075.6655988846  1.75E-03
   125 Broy./Diag. 0.40E+00    9.6     1.18846509     -1075.6263920680  3.92E-02
   126 Broy./Diag. 0.40E+00    9.5     1.22273107     -1077.2628793224 -1.64E+00
   127 Broy./Diag. 0.40E+00    9.7     0.05452417     -1075.5996761975  1.66E+00
   128 Broy./Diag. 0.40E+00    9.6     0.04314512     -1075.5560806663  4.36E-02
   129 Broy./Diag. 0.40E+00    9.4     0.02203055     -1075.6316675638 -7.56E-02
   130 Broy./Diag. 0.40E+00    9.6     0.01899832     -1075.6574653749 -2.58E-02
   131 Broy./Diag. 0.40E+00    9.4     0.01930024     -1075.6163232499  4.11E-02
   132 Broy./Diag. 0.40E+00    9.6     0.03058750     -1075.6557718057 -3.94E-02
   133 Broy./Diag. 0.40E+00    9.5     0.02575145     -1075.6095307303  4.62E-02
   134 Broy./Diag. 0.40E+00    9.4     0.00688809     -1075.6558770072 -4.63E-02
   135 Broy./Diag. 0.40E+00    9.5     1.18728843     -1075.6548580422  1.02E-03
   136 Broy./Diag. 0.40E+00    9.5     1.22283043     -1077.1706075464 -1.52E+00
   137 Broy./Diag. 0.40E+00    9.4     0.03476420     -1075.6483430042  1.52E+00
   138 Broy./Diag. 0.40E+00    9.6     0.03288330     -1075.4448295862  2.04E-01
   139 Broy./Diag. 0.40E+00    9.4     0.01199508     -1075.6555732040 -2.11E-01
   140 Broy./Diag. 0.40E+00    9.6     0.00923715     -1075.6081477977  4.74E-02
   141 Broy./Diag. 0.40E+00    9.6     0.00563124     -1075.6221649070 -1.40E-02
   142 Broy./Diag. 0.40E+00    9.4     0.00660594     -1075.6359607386 -1.38E-02
   143 Broy./Diag. 0.40E+00    9.7     0.00427741     -1075.6495167227 -1.36E-02
   144 Broy./Diag. 0.40E+00    9.5     0.01164054     -1075.6374423638  1.21E-02
   145 Broy./Diag. 0.40E+00    9.4     1.18542486     -1075.6502051295 -1.28E-02
   146 Broy./Diag. 0.40E+00    9.1     1.19531132     -1077.3487426077 -1.70E+00
   147 Broy./Diag. 0.40E+00    9.5     0.25152695     -1075.7783701853  1.57E+00
   148 Broy./Diag. 0.40E+00    9.4     0.10314915     -1075.5016835313  2.77E-01
   149 Broy./Diag. 0.40E+00    9.4     0.02794118     -1075.5410223391 -3.93E-02
   150 Broy./Diag. 0.40E+00    9.6     0.02164130     -1075.6840766025 -1.43E-01
   151 Broy./Diag. 0.40E+00    9.4     0.01370751     -1075.6380051206  4.61E-02
   152 Broy./Diag. 0.40E+00    9.5     0.03550665     -1075.6629242942 -2.49E-02
   153 Broy./Diag. 0.40E+00    9.6     0.01571249     -1075.6502644977  1.27E-02
   154 Broy./Diag. 0.40E+00    9.5     0.01018291     -1075.7070253359 -5.68E-02
   155 Broy./Diag. 0.40E+00    9.5     1.17329520     -1075.6846885588  2.23E-02
   156 Broy./Diag. 0.40E+00    9.3     1.19460647     -1077.2202652424 -1.54E+00
   157 Broy./Diag. 0.40E+00    9.7     0.05986648     -1075.6071522841  1.61E+00
   158 Broy./Diag. 0.40E+00    9.6     0.05978179     -1075.7810911570 -1.74E-01
   159 Broy./Diag. 0.40E+00    9.4     0.02976287     -1075.6521533064  1.29E-01
   160 Broy./Diag. 0.40E+00    9.6     0.01472081     -1075.6351268266  1.70E-02
   161 Broy./Diag. 0.40E+00    9.6     0.01286884     -1075.6939955167 -5.89E-02
   162 Broy./Diag. 0.40E+00    9.6     0.00924804     -1075.6753927245  1.86E-02
   163 Broy./Diag. 0.40E+00    9.5     0.01171542     -1075.6717822954  3.61E-03
   164 Broy./Diag. 0.40E+00    9.6     0.00521703     -1075.7074724319 -3.57E-02
   165 Broy./Diag. 0.40E+00    9.5     1.17523039     -1075.6821682061  2.53E-02
   166 Broy./Diag. 0.40E+00    9.6     1.18039500     -1077.3020303872 -1.62E+00
   167 Broy./Diag. 0.40E+00    9.6     0.16153055     -1075.7030441624  1.60E+00
   168 Broy./Diag. 0.40E+00    9.3     0.09545027     -1075.7394752592 -3.64E-02
   169 Broy./Diag. 0.40E+00    9.4     0.05587991     -1075.5886608932  1.51E-01
   170 Broy./Diag. 0.40E+00    9.8     0.02087968     -1075.7081203901 -1.19E-01
   171 Broy./Diag. 0.40E+00    9.3     0.01485829     -1075.6909300918  1.72E-02
   172 Broy./Diag. 0.40E+00    9.3     0.01779042     -1075.6581633604  3.28E-02
   173 Broy./Diag. 0.40E+00    9.3     0.00795110     -1075.7119131715 -5.37E-02
   174 Broy./Diag. 0.40E+00    9.1     0.00366333     -1075.7026299624  9.28E-03
   175 Broy./Diag. 0.40E+00    9.7     1.17845914     -1075.6924737164  1.02E-02
   176 Broy./Diag. 0.40E+00    9.6     1.19224652     -1077.2329224432 -1.54E+00
   177 Broy./Diag. 0.40E+00    9.8     0.05093022     -1075.7097351597  1.52E+00
   178 Broy./Diag. 0.40E+00    9.6     0.04202821     -1075.5405080034  1.69E-01
   179 Broy./Diag. 0.40E+00    9.6     0.01077447     -1075.7111209379 -1.71E-01
   180 Broy./Diag. 0.40E+00    9.5     0.00832052     -1075.6639964780  4.71E-02
   181 Broy./Diag. 0.40E+00    9.3     0.00487016     -1075.6822654642 -1.83E-02
   182 Broy./Diag. 0.40E+00    9.2     0.00399520     -1075.6794335972  2.83E-03
   183 Broy./Diag. 0.40E+00    9.5     0.00277585     -1075.6864809770 -7.05E-03
   184 Broy./Diag. 0.40E+00    9.6     0.00351907     -1075.6801177068  6.36E-03
   185 Broy./Diag. 0.40E+00    9.6     1.17649489     -1075.6796735435  4.44E-04
   186 Broy./Diag. 0.40E+00    9.5     1.18519828     -1077.3109372729 -1.63E+00
   187 Broy./Diag. 0.40E+00    9.3     0.12496484     -1075.7347293536  1.58E+00
   188 Broy./Diag. 0.40E+00    9.5     0.08481190     -1075.3216144330  4.13E-01
   189 Broy./Diag. 0.40E+00    9.7     0.01607324     -1075.6891755708 -3.68E-01
   190 Broy./Diag. 0.40E+00    9.6     0.03918601     -1075.6833340141  5.84E-03
   191 Broy./Diag. 0.40E+00    9.5     0.01852222     -1075.6488247581  3.45E-02
   192 Broy./Diag. 0.40E+00    9.5     0.00559460     -1075.6679624224 -1.91E-02
   193 Broy./Diag. 0.40E+00    9.4     0.00940750     -1075.6796386364 -1.17E-02
   194 Broy./Diag. 0.40E+00    9.4     0.01078585     -1075.6867362514 -7.10E-03
   195 Broy./Diag. 0.40E+00    9.6     1.18057607     -1075.6640350894  2.27E-02
   196 Broy./Diag. 0.40E+00    9.5     1.19478868     -1077.1453907871 -1.48E+00
   197 Broy./Diag. 0.40E+00    9.3     0.03874034     -1075.6394284727  1.51E+00
   198 Broy./Diag. 0.40E+00    9.2     0.03327950     -1075.8767091889 -2.37E-01
   199 Broy./Diag. 0.40E+00    9.6     0.01301578     -1075.6486600825  2.28E-01
   200 Broy./Diag. 0.40E+00    9.6     0.00955474     -1075.6738649558 -2.52E-02
   201 Broy./Diag. 0.40E+00    9.6     0.00362587     -1075.6522423455  2.16E-02
   202 Broy./Diag. 0.40E+00    9.6     0.00410160     -1075.6951587893 -4.29E-02
   203 Broy./Diag. 0.40E+00    9.5     0.00647155     -1075.6643789796  3.08E-02
   204 Broy./Diag. 0.40E+00    9.5     0.00795044     -1075.6806528494 -1.63E-02
   205 Broy./Diag. 0.40E+00    9.4     1.18199656     -1075.6625697861  1.81E-02
   206 Broy./Diag. 0.40E+00    9.6     1.19118277     -1077.3060588615 -1.64E+00
   207 Broy./Diag. 0.40E+00    9.5     0.06294019     -1075.6968629338  1.61E+00
   208 Broy./Diag. 0.40E+00    9.4     0.06485169     -1075.6601673799  3.67E-02
   209 Broy./Diag. 0.40E+00    9.4     0.03593410     -1075.6727174831 -1.26E-02
   210 Broy./Diag. 0.40E+00    9.6     0.01509166     -1075.6383449410  3.44E-02
   211 Broy./Diag. 0.40E+00    9.4     0.00618871     -1075.6875359951 -4.92E-02
   212 Broy./Diag. 0.40E+00    9.4     0.00259067     -1075.6640871384  2.34E-02
   213 Broy./Diag. 0.40E+00    9.8     0.00820652     -1075.6765019859 -1.24E-02
   214 Broy./Diag. 0.40E+00    9.6     0.01529548     -1075.6595802922  1.69E-02
   215 Broy./Diag. 0.40E+00    9.2     1.18050765     -1075.6863031447 -2.67E-02
   216 Broy./Diag. 0.40E+00    9.1     1.18925921     -1077.2342588731 -1.55E+00
   217 Broy./Diag. 0.40E+00    9.5     0.04513242     -1075.6849385190  1.55E+00
   218 Broy./Diag. 0.40E+00    9.6     0.04338974     -1075.6346448811  5.03E-02
   219 Broy./Diag. 0.40E+00    9.4     0.01309556     -1075.6300679837  4.58E-03
   220 Broy./Diag. 0.40E+00    9.6     0.01326022     -1075.6768681921 -4.68E-02
   221 Broy./Diag. 0.40E+00    9.6     0.01069101     -1075.7037939647 -2.69E-02
   222 Broy./Diag. 0.40E+00    9.6     0.00560439     -1075.6585224839  4.53E-02
   223 Broy./Diag. 0.40E+00    9.4     0.01849968     -1075.6797522792 -2.12E-02
   224 Broy./Diag. 0.40E+00    9.4     0.01222709     -1075.7202644313 -4.05E-02
   225 Broy./Diag. 0.40E+00    9.4     1.17491257     -1075.6910134887  2.93E-02
   226 Broy./Diag. 0.40E+00    9.4     1.18685318     -1077.2948800630 -1.60E+00
   227 Broy./Diag. 0.40E+00    9.6     0.15538215     -1075.6884285975  1.61E+00
   228 Broy./Diag. 0.40E+00    9.6     0.05033549     -1075.6621749581  2.63E-02
   229 Broy./Diag. 0.40E+00    9.5     0.02400864     -1075.6978265053 -3.57E-02
   230 Broy./Diag. 0.40E+00    9.4     0.01005552     -1075.6777140689  2.01E-02
   231 Broy./Diag. 0.40E+00    9.7     0.01999914     -1075.6499200185  2.78E-02
   232 Broy./Diag. 0.40E+00    9.4     0.00377264     -1075.6803730363 -3.05E-02
   233 Broy./Diag. 0.40E+00    9.6     0.00595977     -1075.7169764999 -3.66E-02
   234 Broy./Diag. 0.40E+00    9.6     0.00749074     -1075.6722845947  4.47E-02
   235 Broy./Diag. 0.40E+00    9.4     1.18098272     -1075.7072512293 -3.50E-02
   236 Broy./Diag. 0.40E+00    9.5     1.19813243     -1077.2405779179 -1.53E+00
   237 Broy./Diag. 0.40E+00    9.4     0.06494313     -1075.6102641585  1.63E+00
   238 Broy./Diag. 0.40E+00    9.3     0.06962790     -1075.9383473667 -3.28E-01
   239 Broy./Diag. 0.40E+00    9.2     0.01973157     -1075.6480464277  2.90E-01
   240 Broy./Diag. 0.40E+00    9.5     0.01200715     -1075.6482411379 -1.95E-04
   241 Broy./Diag. 0.40E+00    9.7     0.00606646     -1075.6634423781 -1.52E-02
   242 Broy./Diag. 0.40E+00    9.3     0.00857801     -1075.6667800727 -3.34E-03
   243 Broy./Diag. 0.40E+00    9.5     0.00955403     -1075.6950685334 -2.83E-02
   244 Broy./Diag. 0.40E+00    9.5     0.00897970     -1075.6667431501  2.83E-02
   245 Broy./Diag. 0.40E+00    9.4     1.18114423     -1075.6788407641 -1.21E-02
   246 Broy./Diag. 0.40E+00    9.4     1.19369283     -1077.3238588647 -1.65E+00
   247 Broy./Diag. 0.40E+00    9.7     0.04890398     -1075.6968134079  1.63E+00
   248 Broy./Diag. 0.40E+00    9.6     0.05209238     -1075.6388854368  5.79E-02
   249 Broy./Diag. 0.40E+00    9.7     0.03094819     -1075.6315660571  7.32E-03
   250 Broy./Diag. 0.40E+00    9.6     0.02151922     -1075.7048479132 -7.33E-02
   251 Broy./Diag. 0.40E+00    9.6     0.00655189     -1075.6556885015  4.92E-02
   252 Broy./Diag. 0.40E+00    9.5     0.01473228     -1075.6735064699 -1.78E-02
   253 Broy./Diag. 0.40E+00    9.4     0.00532143     -1075.6528727681  2.06E-02
   254 Broy./Diag. 0.40E+00    9.4     0.00840590     -1075.6649341840 -1.21E-02
   255 Broy./Diag. 0.40E+00    9.6     1.18110516     -1075.6851216889 -2.02E-02
   256 Broy./Diag. 0.40E+00    9.6     1.19467049     -1077.1631461431 -1.48E+00
   257 Broy./Diag. 0.40E+00    9.7     0.03520703     -1075.6418812599  1.52E+00
   258 Broy./Diag. 0.40E+00    9.4     0.03350557     -1075.6449588707 -3.08E-03
   259 Broy./Diag. 0.40E+00    9.4     0.03202172     -1075.6811920420 -3.62E-02
   260 Broy./Diag. 0.40E+00    9.5     0.02692491     -1075.6398935011  4.13E-02
   261 Broy./Diag. 0.40E+00    9.3     0.01331640     -1075.6003151452  3.96E-02
   262 Broy./Diag. 0.40E+00    9.3     0.01484239     -1075.6559150974 -5.56E-02
   263 Broy./Diag. 0.40E+00    9.5     0.01219777     -1075.7009530967 -4.50E-02
   264 Broy./Diag. 0.40E+00    9.5     0.00960399     -1075.6954204154  5.53E-03
   265 Broy./Diag. 0.40E+00    9.6     1.18209055     -1075.6559840921  3.94E-02
   266 Broy./Diag. 0.40E+00    9.6     1.19030297     -1077.2814441751 -1.63E+00
   267 Broy./Diag. 0.40E+00    9.5     0.10649780     -1075.7238595786  1.56E+00
   268 Broy./Diag. 0.40E+00    9.3     0.05327704     -1075.6638373115  6.00E-02
   269 Broy./Diag. 0.40E+00    9.4     0.02080744     -1075.6244611534  3.94E-02
   270 Broy./Diag. 0.40E+00    9.4     0.02031450     -1075.6653763003 -4.09E-02
   271 Broy./Diag. 0.40E+00    9.4     0.01431989     -1075.6702769859 -4.90E-03
   272 Broy./Diag. 0.40E+00    9.5     0.02559107     -1075.6904013441 -2.01E-02
   273 Broy./Diag. 0.40E+00    9.7     0.02480589     -1075.6882682565  2.13E-03
   274 Broy./Diag. 0.40E+00    9.4     0.01250159     -1075.6558304770  3.24E-02
   275 Broy./Diag. 0.40E+00    9.7     1.19342591     -1075.7002890901 -4.45E-02
   276 Broy./Diag. 0.40E+00    9.5     1.20656445     -1077.2329853637 -1.53E+00
   277 Broy./Diag. 0.40E+00    9.5     0.03852660     -1075.6522302769  1.58E+00
   278 Broy./Diag. 0.40E+00    9.6     0.03547026     -1075.6832923810 -3.11E-02
   279 Broy./Diag. 0.40E+00    9.5     0.01735461     -1075.6019445432  8.13E-02
   280 Broy./Diag. 0.40E+00    9.7     0.01774298     -1075.6832158126 -8.13E-02
   281 Broy./Diag. 0.40E+00    9.3     0.01299573     -1075.6604629428  2.28E-02
   282 Broy./Diag. 0.40E+00    9.0     0.00821544     -1075.6523208587  8.14E-03
   283 Broy./Diag. 0.40E+00    9.0     0.00654742     -1075.6495117642  2.81E-03
   284 Broy./Diag. 0.40E+00    8.8     0.00839142     -1075.6845771212 -3.51E-02
   285 Broy./Diag. 0.40E+00    8.7     1.18712356     -1075.6585170448  2.61E-02
   286 Broy./Diag. 0.40E+00    9.0     1.19429059     -1077.3899860183 -1.73E+00
   287 Broy./Diag. 0.40E+00    9.6     0.13125364     -1075.6543798172  1.74E+00
   288 Broy./Diag. 0.40E+00    9.7     0.05419921     -1075.5858543009  6.85E-02
   289 Broy./Diag. 0.40E+00    9.3     0.02675174     -1075.6368565049 -5.10E-02
   290 Broy./Diag. 0.40E+00    9.5     0.01848135     -1075.7531995889 -1.16E-01
   291 Broy./Diag. 0.40E+00    9.5     0.01613042     -1075.6228248782  1.30E-01
   292 Broy./Diag. 0.40E+00    9.5     0.02266753     -1075.6259900468 -3.17E-03
   293 Broy./Diag. 0.40E+00    9.5     0.01276016     -1075.6869718257 -6.10E-02
   294 Broy./Diag. 0.40E+00    9.3     0.00615480     -1075.6811833727  5.79E-03
   295 Broy./Diag. 0.40E+00    9.5     1.19063970     -1075.6653273052  1.59E-02
   296 Broy./Diag. 0.40E+00    9.5     1.20297610     -1077.2891351949 -1.62E+00
   297 Broy./Diag. 0.40E+00    9.3     0.06858879     -1075.7108658997  1.58E+00
   298 Broy./Diag. 0.40E+00    9.3     0.06121670     -1075.4814147506  2.29E-01
   299 Broy./Diag. 0.40E+00    9.5     0.02001779     -1075.7005706242 -2.19E-01
   300 Broy./Diag. 0.40E+00    9.6     0.01375193     -1075.6880777412  1.25E-02

  Leaving inner SCF loop after reaching   300 steps.


  Electronic density on regular grids:       -511.9995574852        0.0004425148
  Core density on regular grids:              511.9999618184       -0.0000381816
  Total charge density on r-space grids:        0.0004043332
  Total charge density g-space grids:           0.0004043332

  Overlap energy of the core charge distribution:               0.00000000000000
  Self energy of the core charge distribution:              -2838.21791979120962
  Core Hamiltonian energy:                                    759.71331467877474
  Hartree energy:                                            1241.20678470918892
  Exchange-correlation energy:                               -238.39025733790697

  Total energy:                                             -1075.68807774115294

 *** WARNING in qs_scf.F:542 :: SCF run NOT converged ***


 ENERGY| Total FORCE_EVAL ( QS ) energy (a.u.):            -1075.727146492270549


 ATOMIC FORCES in [a.u.]

 # Atom   Kind   Element          X              Y              Z
      1      1      O          -0.08508803    -0.03007225    -0.07455287
      2      2      H           0.03073241     0.02167469     0.08393697
      3      2      H           0.01401293     0.04813553    -0.00281529
      4      1      O          -0.02459413    -0.06185202    -0.13655049
      5      2      H          -0.05078728    -0.05507418     0.00499440
      6      2      H           0.03044210     0.04520644     0.05127593
      7      1      O           0.06166825    -0.01023330     0.03817904
      8      2      H          -0.03686765    -0.00715724    -0.05384721
      9      2      H           0.01031007     0.07860194    -0.06579381
     10      1      O           0.09474920     0.09164178    -0.03400839
     11      2      H          -0.07783286     0.00785656     0.05070201
     12      2      H           0.02017171    -0.07297047    -0.03934123
     13      1      O           0.13370607     0.02493545     0.01994019
     14      2      H          -0.08065841    -0.03640659    -0.03055875
     15      2      H          -0.03326912     0.00651435     0.03537277
     16      1      O          -0.12862614     0.00966935     0.07464697
     17      2      H           0.01798479    -0.08180717    -0.03558707
     18      2      H           0.05592926     0.05564814     0.05229522
     19      1      O           0.06493679    -0.03402515    -0.04611608
     20      2      H          -0.08970951     0.02676693    -0.02727221
     21      2      H           0.02343691     0.03316634    -0.00076133
     22      1      O           0.09500528     0.06076148     0.02338804
     23      2      H          -0.08245262     0.00831647    -0.01910965
     24      2      H           0.02692144    -0.03966772     0.03631003
     25      1      O          -0.02683384     0.02179449     0.05478687
     26      2      H           0.06883508    -0.01571622     0.00080914
     27      2      H          -0.04134731     0.07366617    -0.06219997
     28      1      O           0.00417062     0.08405496     0.04134441
     29      2      H          -0.09348593     0.00810091     0.00780023
     30      2      H           0.04418378     0.04040266    -0.11161180
     31      1      O          -0.08911568     0.07839560     0.05352792
     32      2      H           0.00754777    -0.06407995     0.05239081
     33      2      H           0.05253533    -0.00450714    -0.05012440
     34      1      O           0.01797172     0.01236026     0.01045699
     35      2      H           0.10640028     0.03719029     0.03305644
     36      2      H          -0.03318102     0.01173413     0.03368609
     37      1      O          -0.10640727    -0.05061064    -0.06937614
     38      2      H           0.01276614     0.03382798     0.05880980
     39      2      H           0.01697112     0.07188898    -0.05744335
     40      1      O          -0.06656811    -0.01394824    -0.07857403
     41      2      H           0.03298888    -0.01568547    -0.04179689
     42      2      H          -0.01470251     0.03376827     0.06111009
     43      1      O           0.04841448    -0.10137274    -0.05300294
     44      2      H          -0.01449607     0.02117194     0.02234803
     45      2      H          -0.06584955    -0.00454739    -0.05347920
     46      1      O           0.00045193    -0.05036304    -0.00742137
     47      2      H           0.02865879    -0.05885476    -0.01559202
     48      2      H          -0.02363482     0.08931217     0.02366644
     49      1      O           0.07832186    -0.04864350    -0.03231203
     50      2      H          -0.02919786     0.07933600     0.05725678
     51      2      H          -0.08433873    -0.07794060     0.03661255
     52      1      O          -0.10283299    -0.05904651     0.07029372
     53      2      H           0.05406599     0.00349728    -0.03316353
     54      2      H          -0.02617531     0.05695352     0.02969318
     55      1      O          -0.07481474     0.03705101    -0.08006653
     56      2      H           0.01156116    -0.02935629     0.01464347
     57      2      H           0.05096841    -0.00250285    -0.05208998
     58      1      O          -0.06249874    -0.11076020    -0.00907456
     59      2      H           0.02900738     0.02115977    -0.07415334
     60      2      H           0.00753331     0.05061699     0.08555630
     61      1      O           0.07420480    -0.11487643    -0.06296254
     62      2      H          -0.06238428    -0.00372917     0.05172918
     63      2      H          -0.02607123     0.10040403    -0.05192210
     64      1      O           0.08916880     0.05202814    -0.01452453
     65      2      H          -0.03356549    -0.05796327     0.06163292
     66      2      H          -0.04381916     0.03704047    -0.07590034
     67      1      O          -0.01295889    -0.07901797    -0.12109731
     68      2      H           0.00157012    -0.05532689     0.09009763
     69      2      H          -0.06168759     0.04283616    -0.02593468
     70      1      O          -0.04603982     0.00899855     0.07839338
     71      2      H           0.03770421    -0.08048820    -0.07157841
     72      2      H          -0.04221904     0.02965683    -0.04934734
     73      1      O          -0.09998153     0.00994468    -0.03052826
     74      2      H           0.08076186     0.00521552    -0.03107213
     75      2      H           0.03002736    -0.07189633    -0.04382899
     76      1      O          -0.04397180     0.02403086    -0.02421137
     77      2      H           0.06613122    -0.02095942     0.02744947
     78      2      H          -0.04524414     0.04352619     0.06326555
     79      1      O          -0.02951948    -0.01842077     0.07057514
     80      2      H          -0.00355933     0.06562579    -0.01329146
     81      2      H           0.00546594     0.00308371    -0.09941744
     82      1      O          -0.11520491    -0.08093644    -0.03640267
     83      2      H          -0.00245356     0.11021452    -0.01776946
     84      2      H           0.07414737     0.00018952     0.01860264
     85      1      O           0.03346393    -0.09992268    -0.03420525
     86      2      H          -0.01413735    -0.01092566     0.06560935
     87      2      H          -0.05737262     0.10262203    -0.02336350
     88      1      O          -0.08931115    -0.03689683     0.00986456
     89      2      H           0.09130459     0.01108875    -0.03754429
     90      2      H          -0.04829242     0.06413805    -0.03902392
     91      1      O           0.00648958    -0.09204629    -0.04648456
     92      2      H          -0.02848874     0.04234525    -0.00379086
     93      2      H          -0.01413727    -0.04737109     0.02173155
     94      1      O           0.11257298     0.01591597     0.00620000
     95      2      H          -0.04677096     0.05515690     0.04643721
     96      2      H          -0.02595569    -0.03276849    -0.07575630
     97      1      O           0.10822856    -0.05140623     0.03778246
     98      2      H          -0.06443405    -0.06274275     0.06318766
     99      2      H          -0.00518720    -0.00286008    -0.00363253
    100      1      O           0.08705411    -0.04571467     0.01634599
    101      2      H           0.01939244    -0.05769410    -0.04064131
    102      2      H          -0.01445025     0.07423157    -0.01407873
    103      1      O          -0.04292719     0.03855756    -0.05984346
    104      2      H          -0.01188284     0.05402136     0.06720899
    105      2      H           0.08627565    -0.02483876     0.01768451
    106      1      O           0.07177356     0.03591432    -0.03277331
    107      2      H          -0.06117977    -0.02804542    -0.06967005
    108      2      H           0.00835850     0.02497331     0.08517847
    109      1      O          -0.02987957     0.05869926    -0.07742050
    110      2      H           0.05661739     0.02362654     0.04781536
    111      2      H           0.03555379    -0.02642959    -0.07056507
    112      1      O           0.10621315     0.00637574    -0.14126175
    113      2      H           0.00306882     0.04235578     0.02638642
    114      2      H          -0.01969260    -0.03137981     0.04457954
    115      1      O          -0.08114113    -0.08127020     0.01420230
    116      2      H          -0.03939621     0.03611274    -0.00496911
    117      2      H           0.03836247    -0.00083309     0.04767167
    118      1      O          -0.04957160    -0.06842160    -0.01094060
    119      2      H          -0.04003092     0.03983796    -0.04235035
    120      2      H           0.06273305     0.04573322     0.00219721
    121      1      O          -0.03744086    -0.09093703     0.04585536
    122      2      H          -0.00151451     0.07145141     0.01234090
    123      2      H           0.07081087    -0.02634621     0.03188891
    124      1      O          -0.03471340    -0.04682375    -0.05386304
    125      2      H          -0.03415127     0.10087640    -0.03802106
    126      2      H          -0.00033335    -0.03394589     0.10234700
    127      1      O           0.01184594    -0.10687083    -0.02155271
    128      2      H           0.00166539     0.03993204    -0.06286630
    129      2      H           0.02988113     0.00886991     0.04984188
    130      1      O          -0.00702912    -0.14723123    -0.05835554
    131      2      H          -0.08653086     0.01917139     0.02695389
    132      2      H           0.05125310     0.04188034    -0.04003096
    133      1      O          -0.02649121     0.11419776     0.03901637
    134      2      H          -0.03517590    -0.01682585    -0.01688518
    135      2      H           0.05236209     0.00919168    -0.06026455
    136      1      O          -0.01650782    -0.02323132    -0.10418004
    137      2      H           0.02764776     0.00532330     0.08580523
    138      2      H          -0.00989779     0.01690404     0.01680757
    139      1      O          -0.06843891    -0.09486990     0.00833172
    140      2      H           0.04429332     0.00196646    -0.03242601
    141      2      H          -0.02976694     0.04260339     0.03994812
    142      1      O          -0.01429532     0.11554825    -0.06788841
    143      2      H           0.06592269    -0.04395938    -0.08097597
    144      2      H          -0.04012193    -0.03568996     0.09377175
    145      1      O          -0.04386329    -0.00678340     0.03892745
    146      2      H           0.06364044     0.03713404    -0.04198187
    147      2      H          -0.02593842     0.02762753     0.03943847
    148      1      O          -0.05266983    -0.06060574    -0.10529692
    149      2      H           0.03878449    -0.01106562     0.00817285
    150      2      H          -0.04361296    -0.02146107     0.03806099
    151      1      O          -0.09681688    -0.07607713    -0.00332884
    152      2      H           0.04116677    -0.01911414     0.04134927
    153      2      H           0.02090953     0.07243954    -0.01470796
    154      1      O          -0.05158056     0.01188541    -0.04976422
    155      2      H           0.02287448     0.02942869     0.07381238
    156      2      H           0.03640896    -0.03072367    -0.01303080
    157      1      O          -0.10150593     0.00910801    -0.06204868
    158      2      H          -0.00205638     0.09778896    -0.00161130
    159      2      H           0.05215979    -0.03357232     0.03855885
    160      1      O           0.08556627     0.01436385     0.01758985
    161      2      H          -0.06743380    -0.04559533    -0.01905644
    162      2      H           0.00762728     0.03415515    -0.07675546
    163      1      O          -0.06330875    -0.12192724    -0.02748230
    164      2      H          -0.04485885     0.02386393    -0.05354708
    165      2      H           0.07853251     0.04982164     0.01421183
    166      1      O          -0.07635777    -0.05534542     0.09795241
    167      2      H           0.05644856    -0.01318900    -0.01879338
    168      2      H          -0.05288384    -0.02159338    -0.08777337
    169      1      O           0.11972046    -0.00718490     0.10667056
    170      2      H          -0.03510365     0.08051189     0.02784373
    171      2      H          -0.01699090    -0.03878969    -0.04623779
    172      1      O          -0.04093531     0.05203967     0.04495002
    173      2      H           0.03591568     0.00000080    -0.10010261
    174      2      H           0.03639886     0.04846673     0.06529828
    175      1      O          -0.01789271     0.00859746     0.12008272
    176      2      H           0.05587248     0.01134066    -0.02927924
    177      2      H          -0.04435121    -0.04046997    -0.07740251
    178      1      O           0.04490370     0.04967855     0.03798019
    179      2      H          -0.02279404     0.04459399    -0.08683066
    180      2      H          -0.06835743    -0.01380634     0.08048123
    181      1      O           0.04187378    -0.09504373    -0.10351551
    182      2      H           0.07336256     0.02724621     0.01767633
    183      2      H          -0.01657307     0.00417474     0.07832671
    184      1      O          -0.06732298    -0.03544415     0.12493789
    185      2      H           0.06792267    -0.01690975    -0.04338151
    186      2      H          -0.04054878     0.03814619    -0.01687610
    187      1      O           0.01452251     0.03943244    -0.02586906
    188      2      H          -0.07436311    -0.03492381    -0.05122320
    189      2      H          -0.00680602     0.02107991    -0.00162158
    190      1      O           0.01918322     0.03837884     0.02466681
    191      2      H          -0.07880905     0.03312633    -0.00608088
    192      2      H           0.02734570     0.02376001    -0.11224549
 SUM OF ATOMIC FORCES          -0.65760227     0.21704663    -0.96843802     1.19055541

 -------------------------------------------------------------------------------
 -                                                                             -
 -                                DBCSR STATISTICS                             -
 -                                                                             -
 -------------------------------------------------------------------------------
 COUNTER                                    TOTAL       BLAS       SMM       ACC
 flops     5 x     5 x   256           5074137600       0.0%    100.0%      0.0%
 flops     5 x    13 x   256           5980316160       0.0%    100.0%      0.0%
 flops    13 x     5 x   256           5990333440       0.0%    100.0%      0.0%
 flops    13 x    13 x   256           7500939264       0.0%    100.0%      0.0%
 flops inhomo. stacks                           0       0.0%      0.0%      0.0%
 flops total                        24.545726E+09       0.0%    100.0%      0.0%
 flops max/rank                     24.545726E+09       0.0%    100.0%      0.0%
 matmuls inhomo. stacks                         0       0.0%      0.0%      0.0%
 matmuls total                             842800       0.0%    100.0%      0.0%
 number of processed stacks                 42140       0.0%    100.0%      0.0%
 average stack size                                     0.0      20.0       0.0
 marketing flops                   333.927416E+09
 -------------------------------------------------------------------------------
 # multiplications                            301
 max memory usage/rank               4.992758E+09
 # max total images/rank                        1
 # max 3D layers                                1
 # MPI messages exchanged                       0
 MPI messages size (bytes):
  total size                         0.000000E+00
  min size                           0.000000E+00
  max size                           0.000000E+00
  average size                       0.000000E+00
 MPI breakdown and total messages size (bytes):
             size <=      128                   0                        0
       128 < size <=     8192                   0                        0
      8192 < size <=    32768                   0                        0
     32768 < size <=   131072                   0                        0
    131072 < size <=  4194304                   0                        0
   4194304 < size <= 16777216                   0                        0
  16777216 < size                               0                        0
 -------------------------------------------------------------------------------

 MEMORY| Estimated peak process memory [MiB]                                4756

 -------------------------------------------------------------------------------
 -                                                                             -
 -                           R E F E R E N C E S                               -
 -                                                                             -
 -------------------------------------------------------------------------------
 
 CP2K version 7.1, the CP2K developers group (2019).
 CP2K is freely available from https://www.cp2k.org/ .

 Schuett, Ole; Messmer, Peter; Hutter, Juerg; VandeVondele, Joost. 
 Electronic Structure Calculations on Graphics Processing Units, John
 Wiley & Sons, Ltd, 173-190 (2016). 
 GPU-Accelerated Sparse Matrix-Matrix Multiplication for
 Linear Scaling Density Functional Theory.
 https://dx.doi.org/10.1002/9781118670712.ch8

 Borstnik, U; VandeVondele, J; Weber, V; Hutter, J. 
 PARALLEL COMPUTING, 40 (5-6), 47-58 (2014). 
 Sparse matrix multiplication: The distributed block-compressed sparse
 row library.
 https://dx.doi.org/10.1016/j.parco.2014.03.012

 Hutter, J; Iannuzzi, M; Schiffmann, F; VandeVondele, J. 
 WIREs Comput Mol Sci., 4 (1), 15-25 (2014). 
 CP2K: atomistic simulations of condensed matter systems.
 https://dx.doi.org/10.1002/wcms.1159

 Krack, M. 
 THEORETICAL CHEMISTRY ACCOUNTS, 114 (1-3), 145-152 (2005). 
 Pseudopotentials for H to Kr optimized for gradient-corrected
 exchange-correlation functionals.
 https://dx.doi.org/10.1007/s00214-005-0655-y

 VandeVondele, J; Krack, M; Mohamed, F; Parrinello, M; Chassaing, T;
 Hutter, J. COMPUTER PHYSICS COMMUNICATIONS, 167 (2), 103-128 (2005). 
 QUICKSTEP: Fast and accurate density functional calculations using a
 mixed Gaussian and plane waves approach.
 https://dx.doi.org/10.1016/j.cpc.2004.12.014

 Frigo, M; Johnson, SG. 
 PROCEEDINGS OF THE IEEE, 93 (2), 216-231 (2005). 
 The design and implementation of FFTW3.
 https://dx.doi.org/10.1109/JPROC.2004.840301

 Hartwigsen, C; Goedecker, S; Hutter, J. 
 PHYSICAL REVIEW B, 58 (7), 3641-3662 (1998). 
 Relativistic separable dual-space Gaussian pseudopotentials from H to Rn.
 https://dx.doi.org/10.1103/PhysRevB.58.3641

 Lippert, G; Hutter, J; Parrinello, M. 
 MOLECULAR PHYSICS, 92 (3), 477-487 (1997). 
 A hybrid Gaussian and plane wave density functional scheme.
 https://dx.doi.org/10.1080/002689797170220

 Goedecker, S; Teter, M; Hutter, J. 
 PHYSICAL REVIEW B, 54 (3), 1703-1710 (1996). 
 Separable dual-space Gaussian pseudopotentials.
 https://dx.doi.org/10.1103/PhysRevB.54.1703


 -------------------------------------------------------------------------------
 -                                                                             -
 -                                T I M I N G                                  -
 -                                                                             -
 -------------------------------------------------------------------------------
 SUBROUTINE                       CALLS  ASD         SELF TIME        TOTAL TIME
                                MAXIMUM       AVERAGE  MAXIMUM  AVERAGE  MAXIMUM
 CP2K                                 1  1.0    0.176    0.176 2841.561 2841.561
 qs_forces                            1  2.0    0.000    0.000 2839.582 2839.582
 qs_energies                          1  3.0    0.000    0.000 2838.845 2838.845
 scf_env_do_scf                       1  4.0    0.001    0.001 2836.435 2836.435
 scf_env_do_scf_inner_loop          300  5.0    0.066    0.066 2836.434 2836.434
 qs_scf_new_mos                     300  6.0    0.010    0.010 1993.044 1993.044
 eigensolver                        300  7.0    0.049    0.049 1956.986 1956.986
 cp_fm_syevd                        300  8.0 1274.635 1274.635 1276.463 1276.463
 cp_fm_cholesky_restore             900  8.0  679.436  679.436  679.436  679.436
 gspace_mixing                      299  6.0    6.811    6.811  465.666  465.666
 broyden_mixing                     299  7.0  420.139  420.139  420.142  420.142
 rebuild_ks_matrix                  301  7.0    0.001    0.001  195.694  195.694
 qs_ks_build_kohn_sham_matrix       301  8.0    0.079    0.079  195.693  195.693
 qs_ks_update_qs_env                300  6.0    0.003    0.003  195.424  195.424
 pw_transfer                       3912  9.9    0.315    0.315  186.303  186.303
 qs_rho_update_rho                  301  6.0    0.002    0.002  181.175  181.175
 calculate_rho_elec                 301  7.0   86.969   86.969  181.172  181.172
 fft_wrap_pw1pw2                   3310 10.9    0.041    0.041  180.647  180.647
 fft_wrap_pw1pw2_70                1504 11.2   19.531   19.531  165.894  165.894
 density_rs2pw                      301  8.0    0.025    0.025   90.581   90.581
 fft3d_s                           3311 12.9   82.784   82.784   82.810   82.810
 pw_scatter_s                      1804 13.2   61.781   61.781   61.781   61.781
 pw_poisson_solve                   301  9.0   55.189   55.189   60.635   60.635
 -------------------------------------------------------------------------------

 The number of warnings for this run is : 1
 
 -------------------------------------------------------------------------------
  **** **** ******  **  PROGRAM ENDED AT                 2021-02-22 07:33:17.451
 ***** ** ***  *** **   PROGRAM RAN ON                                   gnode68
 **    ****   ******    PROGRAM RAN BY                               mayank.modi
 ***** **    ** ** **   PROGRAM PROCESS ID                                 16398
  **** **  *******  **  PROGRAM STOPPED IN /home/mayank.modi/ab-initio-thermodyn
                                           amics-of-water/mayank/cp2k_energy_cal
                                           culations
