 DBCSR| CPU Multiplication driver                                           XSMM
 DBCSR| Multrec recursion limit                                              512
 DBCSR| Multiplication stack size                                           1000
 DBCSR| Maximum elements for images                                    UNLIMITED
 DBCSR| Multiplicative factor virtual images                                   1
 DBCSR| Use multiplication densification                                       T
 DBCSR| Multiplication size stacks                                             3


  **** **** ******  **  PROGRAM STARTED AT               2021-01-12 01:10:04.376
 ***** ** ***  *** **   PROGRAM STARTED ON                               gnode23
 **    ****   ******    PROGRAM STARTED BY                           mayank.modi
 ***** **    ** ** **   PROGRAM PROCESS ID                                 17985
  **** **  *******  **  PROGRAM STARTED IN /home/mayank.modi/ab-initio-thermodyn
                                           amics-of-water/mayank/cp2k_energy_cal
                                           culations

 CP2K| version string:                                          CP2K version 7.1
 CP2K| source code revision number:                                  git:e635599
 CP2K| cp2kflags: omp libint fftw3 libxc xsmm spglib                            
 CP2K| is freely available from                            https://www.cp2k.org/
 CP2K| Program compiled at                          Mon Dec 23 19:23:12 CET 2019
 CP2K| Program compiled on                                                pc9404
 CP2K| Program compiled for                                Linux-x86-64-gfortran
 CP2K| Data directory path                                        /opt/cp2k/data
 CP2K| Input file name                   input_training_correct_cell/input252.in

 GLOBAL| Force Environment number                                              1
 GLOBAL| Basis set file name                                           BASIS_SET
 GLOBAL| Potential file name                                      GTH_POTENTIALS
 GLOBAL| MM Potential file name                                     MM_POTENTIAL
 GLOBAL| Coordinate file name                                      __STD_INPUT__
 GLOBAL| Method name                                                        CP2K
 GLOBAL| Project name                                                   H2O_bulk
 GLOBAL| Preferred FFT library                                             FFTW3
 GLOBAL| Preferred diagonalization lib.                                       SL
 GLOBAL| Run type                                                   ENERGY_FORCE
 GLOBAL| All-to-all communication in single precision                          F
 GLOBAL| FFTs using library dependent lengths                                  F
 GLOBAL| Global print level                                                  LOW
 GLOBAL| MPI I/O enabled                                                       T
 GLOBAL| Total number of message passing processes                             1
 GLOBAL| Number of threads for this process                                   36
 GLOBAL| This output is from process                                           0
 GLOBAL| CPU model name                Intel(R) Xeon(R) CPU E5-2640 v4 @ 2.40GHz
 GLOBAL| CPUID                                                              1002
 GLOBAL| Compiled for CPUID                                                    0

 MEMORY| system memory details [Kb]
 MEMORY|                        rank 0           min           max       average
 MEMORY| MemTotal            131897972     131897972     131897972     131897972
 MEMORY| MemFree             120588080     120588080     120588080     120588080
 MEMORY| Buffers               1897664       1897664       1897664       1897664
 MEMORY| Cached                4424708       4424708       4424708       4424708
 MEMORY| Slab                  2644288       2644288       2644288       2644288
 MEMORY| SReclaimable          1601372       1601372       1601372       1601372
 MEMORY| MemLikelyFree       128511824     128511824     128511824     128511824


 GENERATE| WARNING:: No connections detected for Hydrogen - Atom Nr:        81 !
 GENERATE|  Preliminary Number of Bonds generated:                             0
 GENERATE|  Achieved consistency in connectivity generation.

 *******************************************************************************
 *******************************************************************************
 **                                                                           **
 **     #####                         ##              ##                      **
 **    ##   ##            ##          ##              ##                      **
 **   ##     ##                       ##            ######                    **
 **   ##     ##  ##   ##  ##   #####  ##  ##   ####   ##    #####    #####    **
 **   ##     ##  ##   ##  ##  ##      ## ##   ##      ##   ##   ##  ##   ##   **
 **   ##  ## ##  ##   ##  ##  ##      ####     ###    ##   ######   ######    **
 **    ##  ###   ##   ##  ##  ##      ## ##      ##   ##   ##       ##        **
 **     #######   #####   ##   #####  ##  ##  ####    ##    #####   ##        **
 **           ##                                                    ##        **
 **                                                                           **
 **                                                ... make the atoms dance   **
 **                                                                           **
 **            Copyright (C) by CP2K developers group (2000 - 2019)           **
 **                                                                           **
 *******************************************************************************


 TOTAL NUMBERS AND MAXIMUM NUMBERS

  Total number of            - Atomic kinds:                                   2
                             - Atoms:                                        192
                             - Shell sets:                                   384
                             - Shells:                                       704
                             - Primitive Cartesian functions:                960
                             - Cartesian basis functions:                   1536
                             - Spherical basis functions:                   1472

  Maximum angular momentum of- Orbital basis functions:                        2
                             - Local part of the GTH pseudopotential:          2
                             - Non-local part of the GTH pseudopotential:      0


 SCF PARAMETERS         Density guess:                                    ATOMIC
                        --------------------------------------------------------
                        max_scf:                                             300
                        max_scf_history:                                       0
                        max_diis:                                              4
                        --------------------------------------------------------
                        eps_scf:                                        1.00E-07
                        eps_scf_history:                                0.00E+00
                        eps_diis:                                       1.00E-01
                        eps_eigval:                                     1.00E-05
                        --------------------------------------------------------
                        level_shift [a.u.]:                                 0.00
                        --------------------------------------------------------
                        Mixing method:                            BROYDEN_MIXING
                                                charge density mixing in g-space
                        --------------------------------------------------------
                        No outer SCF

 Number of electrons:                                                        512
 Number of occupied orbitals:                                                256
 Number of molecular orbitals:                                               256

 Number of orbital functions:                                               1472
 Number of independent orbital functions:                                   1472

 Extrapolation method: initial_guess


 SCF WAVEFUNCTION OPTIMIZATION

  Step     Update method      Time    Convergence         Total energy    Change
  ------------------------------------------------------------------------------
     1 NoMix/Diag. 0.40E+00    7.3     0.68771174     -1064.1008640696 -1.06E+03
     2 Broy./Diag. 0.40E+00    8.1     1.94578044      -993.3286540275  7.08E+01
     3 Broy./Diag. 0.40E+00    8.4     1.94024360     -1269.6301667200 -2.76E+02
     4 Broy./Diag. 0.40E+00    8.6     1.74746918     -1133.8042499428  1.36E+02
     5 Broy./Diag. 0.40E+00    8.8     1.79048966     -1099.6994905059  3.41E+01
     6 Broy./Diag. 0.40E+00    9.0     1.87843813     -1093.1380451825  6.56E+00
     7 Broy./Diag. 0.40E+00    8.9     1.86964206     -1101.1338200196 -8.00E+00
     8 Broy./Diag. 0.40E+00   10.0     1.86560823     -1091.2592420257  9.87E+00
     9 Broy./Diag. 0.40E+00   10.3     1.83111923     -1082.9809891634  8.28E+00
    10 Broy./Diag. 0.40E+00   10.5     1.81479230     -1082.5599429924  4.21E-01
    11 Broy./Diag. 0.40E+00   10.4     1.85193403     -1083.7115312748 -1.15E+00
    12 Broy./Diag. 0.40E+00   10.4     1.92587165     -1083.7314733892 -1.99E-02
    13 Broy./Diag. 0.40E+00   10.6     1.94256066     -1061.1584593834  2.26E+01
    14 Broy./Diag. 0.40E+00   10.5     1.77453182     -1090.7678368709 -2.96E+01
    15 Broy./Diag. 0.40E+00   10.7     1.81249048     -1081.3105235599  9.46E+00
    16 Broy./Diag. 0.40E+00   10.9     1.85513757     -1076.6618185431  4.65E+00
    17 Broy./Diag. 0.40E+00   10.5     1.85139246     -1078.4366367601 -1.77E+00
    18 Broy./Diag. 0.40E+00   10.3     1.83638143     -1075.6361591912  2.80E+00
    19 Broy./Diag. 0.40E+00   10.3     1.84434208     -1080.6645270412 -5.03E+00
    20 Broy./Diag. 0.40E+00   10.6     1.80981084     -1077.3551231330  3.31E+00
    21 Broy./Diag. 0.40E+00   10.8     1.82926804     -1080.4811055569 -3.13E+00
    22 Broy./Diag. 0.40E+00   10.6     1.79653700     -1069.3018795438  1.12E+01
    23 Broy./Diag. 0.40E+00   10.6     1.77783975     -1080.1175913985 -1.08E+01
    24 Broy./Diag. 0.40E+00   10.3     1.82170896     -1078.1742956511  1.94E+00
    25 Broy./Diag. 0.40E+00   10.5     1.72385493     -1078.1457707239  2.85E-02
    26 Broy./Diag. 0.40E+00   10.4     1.76580983     -1075.3532346456  2.79E+00
    27 Broy./Diag. 0.40E+00   10.5     1.83945830     -1075.3036505154  4.96E-02
    28 Broy./Diag. 0.40E+00   10.7     1.84084614     -1079.1120604814 -3.81E+00
    29 Broy./Diag. 0.40E+00   10.5     1.75954181     -1070.8617707689  8.25E+00
    30 Broy./Diag. 0.40E+00   10.8     1.86086689     -1076.0567117292 -5.19E+00
    31 Broy./Diag. 0.40E+00   10.6     1.81955997     -1075.5101603765  5.47E-01
    32 Broy./Diag. 0.40E+00   10.4     1.84282796     -1077.5478904531 -2.04E+00
    33 Broy./Diag. 0.40E+00   10.6     1.82980821     -1082.0292211923 -4.48E+00
    34 Broy./Diag. 0.40E+00   10.8     1.84777196     -1073.5858374267  8.44E+00
    35 Broy./Diag. 0.40E+00   10.7     1.84211207     -1072.4789464726  1.11E+00
    36 Broy./Diag. 0.40E+00   10.8     1.84662811     -1073.3812647448 -9.02E-01
    37 Broy./Diag. 0.40E+00   10.5     1.80961142     -1072.0244263515  1.36E+00
    38 Broy./Diag. 0.40E+00   10.8     1.81350063     -1077.3153185523 -5.29E+00
    39 Broy./Diag. 0.40E+00   10.6     1.82625165     -1076.2790818025  1.04E+00
    40 Broy./Diag. 0.40E+00   10.6     1.84145260     -1078.3608784053 -2.08E+00
    41 Broy./Diag. 0.40E+00   10.6     1.77102470     -1073.2677601086  5.09E+00
    42 Broy./Diag. 0.40E+00   10.9     1.82481954     -1078.1755286504 -4.91E+00
    43 Broy./Diag. 0.40E+00   10.6     1.79682621     -1074.7357924270  3.44E+00
    44 Broy./Diag. 0.40E+00   10.5     1.86828510     -1076.6875242794 -1.95E+00
    45 Broy./Diag. 0.40E+00   10.6     1.78951168     -1080.3949408172 -3.71E+00
    46 Broy./Diag. 0.40E+00   10.8     1.84815452     -1071.1995789479  9.20E+00
    47 Broy./Diag. 0.40E+00   11.1     1.80079123     -1073.1466222279 -1.95E+00
    48 Broy./Diag. 0.40E+00   10.5     1.83843828     -1076.6227063927 -3.48E+00
    49 Broy./Diag. 0.40E+00   10.6     1.76640137     -1077.9357364752 -1.31E+00
    50 Broy./Diag. 0.40E+00   10.8     1.78412146     -1078.2612979348 -3.26E-01
    51 Broy./Diag. 0.40E+00   10.6     1.81148139     -1075.2991098710  2.96E+00
    52 Broy./Diag. 0.40E+00   10.7     1.83957995     -1077.7002361300 -2.40E+00
    53 Broy./Diag. 0.40E+00   10.6     1.80100570     -1068.9754235177  8.72E+00
    54 Broy./Diag. 0.40E+00   10.4     1.87296655     -1079.8913285964 -1.09E+01
    55 Broy./Diag. 0.40E+00   10.3     1.78157891     -1081.7061757860 -1.81E+00
    56 Broy./Diag. 0.40E+00   10.5     1.79621929     -1080.3862599310  1.32E+00
    57 Broy./Diag. 0.40E+00   11.0     1.73186004     -1070.6423060833  9.74E+00
    58 Broy./Diag. 0.40E+00   10.7     1.83299486     -1072.8544593934 -2.21E+00
    59 Broy./Diag. 0.40E+00   10.5     1.83712740     -1077.4823243646 -4.63E+00
    60 Broy./Diag. 0.40E+00   11.1     1.77153447     -1075.1616802388  2.32E+00
    61 Broy./Diag. 0.40E+00   10.4     1.83611047     -1073.8188342247  1.34E+00
    62 Broy./Diag. 0.40E+00   10.4     1.79467135     -1079.0813484516 -5.26E+00
    63 Broy./Diag. 0.40E+00   10.5     1.87447535     -1080.1342941135 -1.05E+00
    64 Broy./Diag. 0.40E+00   10.5     1.89901365     -1077.3929195514  2.74E+00
    65 Broy./Diag. 0.40E+00   10.6     1.81378679     -1077.2414922034  1.51E-01
    66 Broy./Diag. 0.40E+00   11.0     1.72103441     -1069.9942112021  7.25E+00
    67 Broy./Diag. 0.40E+00   10.6     1.80365235     -1073.2594611874 -3.27E+00
    68 Broy./Diag. 0.40E+00   10.4     1.86885136     -1076.2986527027 -3.04E+00
    69 Broy./Diag. 0.40E+00   11.0     1.79951114     -1075.4377624863  8.61E-01
    70 Broy./Diag. 0.40E+00   10.8     1.83581349     -1078.3835430927 -2.95E+00
    71 Broy./Diag. 0.40E+00   10.7     1.74871698     -1074.2798140316  4.10E+00
    72 Broy./Diag. 0.40E+00   10.5     1.79290140     -1073.3984742029  8.81E-01
    73 Broy./Diag. 0.40E+00   10.6     1.81713889     -1076.3577792232 -2.96E+00
    74 Broy./Diag. 0.40E+00   10.8     1.83897343     -1079.8254222231 -3.47E+00
    75 Broy./Diag. 0.40E+00   10.5     1.84829090     -1077.5462386771  2.28E+00
    76 Broy./Diag. 0.40E+00   10.3     1.85182861     -1074.2480925321  3.30E+00
    77 Broy./Diag. 0.40E+00   10.5     1.69859131     -1074.2973523903 -4.93E-02
    78 Broy./Diag. 0.40E+00   11.1     1.71722467     -1074.3905573542 -9.32E-02
    79 Broy./Diag. 0.40E+00   10.6     1.79465959     -1071.2772852938  3.11E+00
    80 Broy./Diag. 0.40E+00   10.8     1.81667550     -1078.0949749435 -6.82E+00
    81 Broy./Diag. 0.40E+00   10.9     1.86343022     -1076.1325635484  1.96E+00
    82 Broy./Diag. 0.40E+00   10.8     1.82215914     -1079.7298808224 -3.60E+00
    83 Broy./Diag. 0.40E+00   10.5     1.86672419     -1075.0884799204  4.64E+00
    84 Broy./Diag. 0.40E+00   10.3     1.82307865     -1071.4465207922  3.64E+00
    85 Broy./Diag. 0.40E+00   10.8     1.79282874     -1076.0506966235 -4.60E+00
    86 Broy./Diag. 0.40E+00   10.3     1.84812219     -1075.8315354029  2.19E-01
    87 Broy./Diag. 0.40E+00   10.7     1.82614127     -1079.5470780893 -3.72E+00
    88 Broy./Diag. 0.40E+00   10.7     1.74172862     -1074.3323019308  5.21E+00
    89 Broy./Diag. 0.40E+00   10.4     1.77669310     -1074.1106102699  2.22E-01
    90 Broy./Diag. 0.40E+00   10.4     1.78465069     -1075.1679025790 -1.06E+00
    91 Broy./Diag. 0.40E+00   10.6     1.84771284     -1072.8319132953  2.34E+00
    92 Broy./Diag. 0.40E+00   10.7     1.86716839     -1077.8728956179 -5.04E+00
    93 Broy./Diag. 0.40E+00   10.8     1.73021173     -1074.0021689571  3.87E+00
    94 Broy./Diag. 0.40E+00   10.3     1.76674991     -1072.0194096352  1.98E+00
    95 Broy./Diag. 0.40E+00   10.8     1.82931442     -1080.3877093062 -8.37E+00
    96 Broy./Diag. 0.40E+00   10.9     1.84220264     -1075.4219892731  4.97E+00
    97 Broy./Diag. 0.40E+00   10.6     1.76276940     -1075.5418056972 -1.20E-01
    98 Broy./Diag. 0.40E+00   10.8     1.82847274     -1073.4105747574  2.13E+00
    99 Broy./Diag. 0.40E+00   10.2     1.79651719     -1079.2497943842 -5.84E+00
   100 Broy./Diag. 0.40E+00   10.8     1.74243159     -1076.5619286514  2.69E+00
   101 Broy./Diag. 0.40E+00   10.2     1.78229928     -1072.9632838146  3.60E+00
   102 Broy./Diag. 0.40E+00   11.1     1.81368925     -1077.5235860662 -4.56E+00
   103 Broy./Diag. 0.40E+00   10.8     1.61048478     -1074.0384415730  3.49E+00
   104 Broy./Diag. 0.40E+00   10.6     1.78129982     -1074.3008417934 -2.62E-01
   105 Broy./Diag. 0.40E+00   10.5     1.85678989     -1079.3855662248 -5.08E+00
   106 Broy./Diag. 0.40E+00   10.5     1.88285904     -1077.2736675960  2.11E+00
   107 Broy./Diag. 0.40E+00   10.8     1.79020162     -1080.7424834675 -3.47E+00
   108 Broy./Diag. 0.40E+00   10.6     1.88840594     -1069.7529041081  1.10E+01
   109 Broy./Diag. 0.40E+00   10.9     1.80887161     -1085.4572244045 -1.57E+01
   110 Broy./Diag. 0.40E+00   10.5     1.85051226     -1072.9725921204  1.25E+01
   111 Broy./Diag. 0.40E+00   10.5     1.83903863     -1074.6012499443 -1.63E+00
   112 Broy./Diag. 0.40E+00   10.5     1.80465701     -1080.0135700673 -5.41E+00
   113 Broy./Diag. 0.40E+00   10.9     1.84635656     -1077.1988499525  2.81E+00
   114 Broy./Diag. 0.40E+00   10.8     1.80387193     -1077.0925090331  1.06E-01
   115 Broy./Diag. 0.40E+00   10.8     1.78662241     -1076.9084533728  1.84E-01
   116 Broy./Diag. 0.40E+00   10.7     1.84997537     -1073.9915536430  2.92E+00
   117 Broy./Diag. 0.40E+00   10.3     1.87021232     -1072.4602203357  1.53E+00
   118 Broy./Diag. 0.40E+00   10.6     1.84734903     -1072.2202147677  2.40E-01
   119 Broy./Diag. 0.40E+00   10.5     1.72766155     -1077.6517616658 -5.43E+00
   120 Broy./Diag. 0.40E+00   10.9     1.78400866     -1073.6612171725  3.99E+00
   121 Broy./Diag. 0.40E+00   10.7     1.77312026     -1078.2874931580 -4.63E+00
   122 Broy./Diag. 0.40E+00   10.4     1.85219693     -1081.9992370259 -3.71E+00
   123 Broy./Diag. 0.40E+00   10.4     1.73465037     -1072.4344233614  9.56E+00
   124 Broy./Diag. 0.40E+00   11.2     1.79925346     -1073.7987664796 -1.36E+00
   125 Broy./Diag. 0.40E+00   10.8     1.78638516     -1078.5839538274 -4.79E+00
   126 Broy./Diag. 0.40E+00   10.5     1.85618949     -1076.1437554610  2.44E+00
   127 Broy./Diag. 0.40E+00   10.8     1.86889495     -1073.5802944828  2.56E+00
   128 Broy./Diag. 0.40E+00   11.0     1.86277670     -1071.6473277286  1.93E+00
   129 Broy./Diag. 0.40E+00   10.7     1.77392923     -1075.3443228412 -3.70E+00
   130 Broy./Diag. 0.40E+00   10.7     1.79888109     -1077.9005301915 -2.56E+00
   131 Broy./Diag. 0.40E+00   10.9     1.82771633     -1076.9172244723  9.83E-01
   132 Broy./Diag. 0.40E+00   10.4     1.78327688     -1078.8251464816 -1.91E+00
   133 Broy./Diag. 0.40E+00   10.3     1.85761748     -1074.0060471706  4.82E+00
   134 Broy./Diag. 0.40E+00   10.8     1.76760116     -1076.2870751004 -2.28E+00
   135 Broy./Diag. 0.40E+00   10.7     1.87317668     -1077.1955993286 -9.09E-01
   136 Broy./Diag. 0.40E+00   10.8     1.82795883     -1076.4305073916  7.65E-01
   137 Broy./Diag. 0.40E+00   10.8     1.82777773     -1070.1666474093  6.26E+00
   138 Broy./Diag. 0.40E+00   10.6     1.87942712     -1072.7745086199 -2.61E+00
   139 Broy./Diag. 0.40E+00   10.3     1.81971931     -1074.1825420867 -1.41E+00
   140 Broy./Diag. 0.40E+00   10.8     1.79341555     -1077.0964471833 -2.91E+00
   141 Broy./Diag. 0.40E+00   10.5     1.84475083     -1079.3886188540 -2.29E+00
   142 Broy./Diag. 0.40E+00   10.3     1.79583048     -1073.7238076351  5.66E+00
   143 Broy./Diag. 0.40E+00   10.6     1.86565491     -1074.9514709764 -1.23E+00
   144 Broy./Diag. 0.40E+00   10.9     1.87401041     -1078.1481316000 -3.20E+00
   145 Broy./Diag. 0.40E+00   10.6     1.89298044     -1076.2759498538  1.87E+00
   146 Broy./Diag. 0.40E+00   10.7     1.82815860     -1075.6771280547  5.99E-01
   147 Broy./Diag. 0.40E+00   11.4     1.90164860     -1069.1095344738  6.57E+00
   148 Broy./Diag. 0.40E+00   10.6     1.84127556     -1082.1699854591 -1.31E+01
   149 Broy./Diag. 0.40E+00   10.7     1.78385484     -1078.1380871055  4.03E+00
   150 Broy./Diag. 0.40E+00   10.7     1.76527490     -1074.3657487942  3.77E+00
   151 Broy./Diag. 0.40E+00   11.0     1.84687806     -1074.3309564274  3.48E-02
   152 Broy./Diag. 0.40E+00   10.6     1.88094249     -1076.2499028600 -1.92E+00
   153 Broy./Diag. 0.40E+00   10.6     1.81463068     -1076.0323211805  2.18E-01
   154 Broy./Diag. 0.40E+00   10.6     1.72044629     -1072.8496142763  3.18E+00
   155 Broy./Diag. 0.40E+00   10.8     1.81123469     -1079.1256854884 -6.28E+00
   156 Broy./Diag. 0.40E+00   10.7     1.69591423     -1074.5651392385  4.56E+00
   157 Broy./Diag. 0.40E+00   10.4     1.82049510     -1075.3979180956 -8.33E-01
   158 Broy./Diag. 0.40E+00   10.2     1.84527454     -1080.6378899362 -5.24E+00
   159 Broy./Diag. 0.40E+00   10.5     1.86190227     -1073.5942777330  7.04E+00
   160 Broy./Diag. 0.40E+00   10.6     1.79083050     -1072.2958393703  1.30E+00
   161 Broy./Diag. 0.40E+00   10.7     1.83274790     -1079.7160815625 -7.42E+00
   162 Broy./Diag. 0.40E+00   10.9     1.85948671     -1073.4067206167  6.31E+00
   163 Broy./Diag. 0.40E+00   10.4     1.81774146     -1071.1348275144  2.27E+00
   164 Broy./Diag. 0.40E+00   10.9     1.82551490     -1077.3947862445 -6.26E+00
   165 Broy./Diag. 0.40E+00   10.6     1.80715760     -1080.0964662531 -2.70E+00
   166 Broy./Diag. 0.40E+00   10.9     1.75493614     -1068.4270757400  1.17E+01
   167 Broy./Diag. 0.40E+00   10.8     1.79673711     -1080.6006390728 -1.22E+01
   168 Broy./Diag. 0.40E+00   10.3     1.86524454     -1085.3185774633 -4.72E+00
   169 Broy./Diag. 0.40E+00   10.2     1.70887286     -1075.5061523723  9.81E+00
   170 Broy./Diag. 0.40E+00   10.8     1.86281772     -1074.4507952142  1.06E+00
   171 Broy./Diag. 0.40E+00   10.7     1.74454612     -1069.6918139604  4.76E+00
   172 Broy./Diag. 0.40E+00   10.5     1.84195600     -1075.8472495952 -6.16E+00
   173 Broy./Diag. 0.40E+00   10.6     1.83076692     -1077.0797670271 -1.23E+00
   174 Broy./Diag. 0.40E+00   10.9     1.86577926     -1079.1353665326 -2.06E+00
   175 Broy./Diag. 0.40E+00   10.7     1.86606581     -1076.7368184761  2.40E+00
   176 Broy./Diag. 0.40E+00   10.5     1.78312091     -1075.2698762618  1.47E+00
   177 Broy./Diag. 0.40E+00   10.8     1.79420681     -1078.6192825973 -3.35E+00
   178 Broy./Diag. 0.40E+00   10.4     1.43610709     -1070.4946477582  8.12E+00
   179 Broy./Diag. 0.40E+00   10.9     1.76712906     -1076.2307283230 -5.74E+00
   180 Broy./Diag. 0.40E+00   10.8     1.86663336     -1071.8152720642  4.42E+00
   181 Broy./Diag. 0.40E+00   10.9     1.81939802     -1078.8395028186 -7.02E+00
   182 Broy./Diag. 0.40E+00   10.3     1.77886443     -1077.0973168618  1.74E+00
   183 Broy./Diag. 0.40E+00   10.6     1.82288114     -1079.2488513300 -2.15E+00
   184 Broy./Diag. 0.40E+00   10.9     1.82058908     -1073.5418611103  5.71E+00
   185 Broy./Diag. 0.40E+00   10.8     1.84867403     -1071.7386777240  1.80E+00
   186 Broy./Diag. 0.40E+00   10.4     1.79272660     -1080.0905536447 -8.35E+00
   187 Broy./Diag. 0.40E+00   10.6     1.83450541     -1077.6445843827  2.45E+00
   188 Broy./Diag. 0.40E+00   10.6     1.88081192     -1073.0670561788  4.58E+00
   189 Broy./Diag. 0.40E+00   10.5     1.84100798     -1085.1672657415 -1.21E+01
   190 Broy./Diag. 0.40E+00   10.7     1.81657950     -1068.0147256194  1.72E+01
   191 Broy./Diag. 0.40E+00   10.5     1.91524135     -1076.6585953353 -8.64E+00
   192 Broy./Diag. 0.40E+00   11.0     1.83616073     -1075.4947907293  1.16E+00
   193 Broy./Diag. 0.40E+00   10.9     1.80893022     -1073.9624854844  1.53E+00
   194 Broy./Diag. 0.40E+00   10.7     1.77747985     -1072.1585270530  1.80E+00
   195 Broy./Diag. 0.40E+00   10.4     1.87376886     -1072.0963063196  6.22E-02
   196 Broy./Diag. 0.40E+00   10.3     1.77973930     -1075.9090773691 -3.81E+00
   197 Broy./Diag. 0.40E+00   10.4     1.87410381     -1079.7075135345 -3.80E+00
   198 Broy./Diag. 0.40E+00   10.8     1.81187299     -1076.2379941743  3.47E+00
   199 Broy./Diag. 0.40E+00   10.9     1.82551198     -1083.7563924367 -7.52E+00
   200 Broy./Diag. 0.40E+00   10.8     1.81419612     -1067.5492754475  1.62E+01
   201 Broy./Diag. 0.40E+00   10.4     1.88451176     -1079.6871683812 -1.21E+01
   202 Broy./Diag. 0.40E+00   10.6     1.87767251     -1078.1685435391  1.52E+00
   203 Broy./Diag. 0.40E+00   10.8     1.87270667     -1076.8315899582  1.34E+00
   204 Broy./Diag. 0.40E+00   10.7     1.86734336     -1070.5882878918  6.24E+00
   205 Broy./Diag. 0.40E+00   10.7     1.80953483     -1072.9860497432 -2.40E+00
   206 Broy./Diag. 0.40E+00   10.8     1.71861565     -1075.8302341343 -2.84E+00
   207 Broy./Diag. 0.40E+00   10.7     1.84656711     -1077.7830657745 -1.95E+00
   208 Broy./Diag. 0.40E+00   10.9     1.84544936     -1081.4217383153 -3.64E+00
   209 Broy./Diag. 0.40E+00   10.2     1.86169734     -1073.1501639495  8.27E+00
   210 Broy./Diag. 0.40E+00   10.4     1.78681630     -1072.9519814686  1.98E-01
   211 Broy./Diag. 0.40E+00   10.7     1.84198462     -1073.9588840403 -1.01E+00
   212 Broy./Diag. 0.40E+00   10.7     1.85684887     -1079.8454567249 -5.89E+00
   213 Broy./Diag. 0.40E+00   10.7     1.81242186     -1074.8459460718  5.00E+00
   214 Broy./Diag. 0.40E+00   10.6     1.83066556     -1078.1587244895 -3.31E+00
   215 Broy./Diag. 0.40E+00   10.4     1.87643406     -1076.0405804719  2.12E+00
   216 Broy./Diag. 0.40E+00   10.9     1.83275491     -1080.5081410028 -4.47E+00
   217 Broy./Diag. 0.40E+00   10.7     1.80208236     -1073.1241962722  7.38E+00
   218 Broy./Diag. 0.40E+00   10.6     1.88620974     -1078.1336019958 -5.01E+00
   219 Broy./Diag. 0.40E+00   10.5     1.91012970     -1073.3838291370  4.75E+00
   220 Broy./Diag. 0.40E+00   10.8     1.78592609     -1071.2559068786  2.13E+00
   221 Broy./Diag. 0.40E+00   10.5     1.79460639     -1079.8086198948 -8.55E+00
   222 Broy./Diag. 0.40E+00   11.1     1.87360317     -1072.2576474170  7.55E+00
   223 Broy./Diag. 0.40E+00   10.6     1.80582067     -1074.3214158873 -2.06E+00
   224 Broy./Diag. 0.40E+00   10.7     1.84339109     -1081.9819180863 -7.66E+00
   225 Broy./Diag. 0.40E+00   10.7     1.81909301     -1078.5480008860  3.43E+00
   226 Broy./Diag. 0.40E+00   10.8     1.84302958     -1075.3987303252  3.15E+00
   227 Broy./Diag. 0.40E+00   10.2     1.88279468     -1071.3190573268  4.08E+00
   228 Broy./Diag. 0.40E+00   10.9     1.77829611     -1082.0893803637 -1.08E+01
   229 Broy./Diag. 0.40E+00   10.7     1.84190736     -1073.4233596530  8.67E+00
   230 Broy./Diag. 0.40E+00   10.8     1.74830994     -1075.8746495723 -2.45E+00
   231 Broy./Diag. 0.40E+00   10.8     1.81994897     -1078.8984620034 -3.02E+00
   232 Broy./Diag. 0.40E+00   11.1     1.86206003     -1073.5646396565  5.33E+00
   233 Broy./Diag. 0.40E+00   10.5     1.81633021     -1073.4635084262  1.01E-01
   234 Broy./Diag. 0.40E+00   10.6     1.81168699     -1081.6866670039 -8.22E+00
   235 Broy./Diag. 0.40E+00   10.4     1.79294210     -1071.9058080691  9.78E+00
   236 Broy./Diag. 0.40E+00   10.9     1.86065561     -1077.0023648048 -5.10E+00
   237 Broy./Diag. 0.40E+00   10.4     1.85381583     -1072.4834176294  4.52E+00
   238 Broy./Diag. 0.40E+00   10.7     1.88566435     -1069.4155865618  3.07E+00
   239 Broy./Diag. 0.40E+00   10.5     1.87306985     -1073.4725790451 -4.06E+00
   240 Broy./Diag. 0.40E+00   10.8     1.85486385     -1084.0452823694 -1.06E+01
   241 Broy./Diag. 0.40E+00   10.9     1.68078955     -1076.9762443553  7.07E+00
   242 Broy./Diag. 0.40E+00   10.5     1.78626654     -1073.0356832498  3.94E+00
   243 Broy./Diag. 0.40E+00   10.9     1.82398874     -1081.6414015140 -8.61E+00
   244 Broy./Diag. 0.40E+00   10.4     1.85238846     -1077.4562319204  4.19E+00
   245 Broy./Diag. 0.40E+00   11.0     1.86639107     -1074.8996950237  2.56E+00
   246 Broy./Diag. 0.40E+00   10.9     1.81515741     -1073.2132501357  1.69E+00
   247 Broy./Diag. 0.40E+00   11.0     1.80030141     -1076.1330847513 -2.92E+00
   248 Broy./Diag. 0.40E+00   10.1     1.80597215     -1071.3895244107  4.74E+00
   249 Broy./Diag. 0.40E+00   10.5     1.78657882     -1082.8114905461 -1.14E+01
   250 Broy./Diag. 0.40E+00   11.0     1.86754994     -1074.0505897152  8.76E+00
   251 Broy./Diag. 0.40E+00   10.6     1.79823524     -1077.7217038916 -3.67E+00
   252 Broy./Diag. 0.40E+00   10.7     1.81194439     -1075.9524087455  1.77E+00
   253 Broy./Diag. 0.40E+00   10.6     1.81218503     -1072.6559445184  3.30E+00
   254 Broy./Diag. 0.40E+00   10.4     1.84902553     -1074.9631687197 -2.31E+00
   255 Broy./Diag. 0.40E+00   10.8     1.84569576     -1077.7400839598 -2.78E+00
   256 Broy./Diag. 0.40E+00   10.8     1.84548471     -1074.4988595891  3.24E+00
   257 Broy./Diag. 0.40E+00   10.5     1.76813703     -1079.7588814374 -5.26E+00
   258 Broy./Diag. 0.40E+00   10.4     1.80885710     -1079.4313463028  3.28E-01
   259 Broy./Diag. 0.40E+00   10.7     1.83674696     -1073.2009635161  6.23E+00
   260 Broy./Diag. 0.40E+00   10.7     1.79799777     -1068.8287080796  4.37E+00
   261 Broy./Diag. 0.40E+00   10.7     1.84416698     -1074.4712920248 -5.64E+00
   262 Broy./Diag. 0.40E+00   10.6     1.45649444     -1072.4396390371  2.03E+00
   263 Broy./Diag. 0.40E+00   10.6     1.80466740     -1076.3727846563 -3.93E+00
   264 Broy./Diag. 0.40E+00   11.0     1.87515586     -1076.1079949398  2.65E-01
   265 Broy./Diag. 0.40E+00   10.8     1.86804905     -1078.2105674119 -2.10E+00
   266 Broy./Diag. 0.40E+00   10.8     1.85419828     -1081.8802632814 -3.67E+00
   267 Broy./Diag. 0.40E+00   10.6     1.76202971     -1069.8125971911  1.21E+01
   268 Broy./Diag. 0.40E+00   10.7     1.82755972     -1078.3930334775 -8.58E+00
   269 Broy./Diag. 0.40E+00   10.5     1.85796652     -1076.5953051472  1.80E+00
   270 Broy./Diag. 0.40E+00   10.5     1.80624558     -1076.8123138739 -2.17E-01
   271 Broy./Diag. 0.40E+00   10.4     1.74425027     -1071.9693414038  4.84E+00
   272 Broy./Diag. 0.40E+00   10.6     1.72186774     -1080.4250175711 -8.46E+00
   273 Broy./Diag. 0.40E+00   10.8     1.81090075     -1071.1554700940  9.27E+00
   274 Broy./Diag. 0.40E+00   10.5     1.85001303     -1074.9174050106 -3.76E+00
   275 Broy./Diag. 0.40E+00   10.7     1.81842170     -1077.2678992774 -2.35E+00
   276 Broy./Diag. 0.40E+00   10.7     1.87094020     -1075.2353811573  2.03E+00
   277 Broy./Diag. 0.40E+00   10.9     1.83663968     -1074.9159052832  3.19E-01
   278 Broy./Diag. 0.40E+00   10.5     1.81724602     -1079.8859240354 -4.97E+00
   279 Broy./Diag. 0.40E+00   10.8     1.87013559     -1077.9140976367  1.97E+00
   280 Broy./Diag. 0.40E+00   10.9     1.88425394     -1076.7881613585  1.13E+00
   281 Broy./Diag. 0.40E+00   10.6     1.87817755     -1072.7091450879  4.08E+00
   282 Broy./Diag. 0.40E+00   11.1     1.76031772     -1069.8129951956  2.90E+00
   283 Broy./Diag. 0.40E+00   10.6     1.76858767     -1078.5671270926 -8.75E+00
   284 Broy./Diag. 0.40E+00   11.0     1.75934890     -1078.4883824991  7.87E-02
   285 Broy./Diag. 0.40E+00   10.5     1.87979590     -1072.6676699810  5.82E+00
   286 Broy./Diag. 0.40E+00   11.5     1.85640171     -1076.3857923152 -3.72E+00
   287 Broy./Diag. 0.40E+00   10.7     1.77522560     -1075.1845220764  1.20E+00
   288 Broy./Diag. 0.40E+00   11.0     1.81255129     -1076.8263496757 -1.64E+00
   289 Broy./Diag. 0.40E+00   10.5     1.64556493     -1075.9195751181  9.07E-01
   290 Broy./Diag. 0.40E+00   10.8     1.80099447     -1073.6888883871  2.23E+00
   291 Broy./Diag. 0.40E+00   10.5     1.84654336     -1073.9902038236 -3.01E-01
   292 Broy./Diag. 0.40E+00   10.2     1.80303462     -1082.0458839869 -8.06E+00
   293 Broy./Diag. 0.40E+00   10.5     1.85379938     -1074.4876852992  7.56E+00
   294 Broy./Diag. 0.40E+00   10.6     1.77661337     -1075.1453196297 -6.58E-01
   295 Broy./Diag. 0.40E+00   10.5     1.80524428     -1075.2200252885 -7.47E-02
   296 Broy./Diag. 0.40E+00   10.5     1.81348047     -1073.1075619255  2.11E+00
   297 Broy./Diag. 0.40E+00   10.8     1.82013018     -1079.4833173904 -6.38E+00
   298 Broy./Diag. 0.40E+00   10.7     1.83480843     -1075.2449022940  4.24E+00
   299 Broy./Diag. 0.40E+00   10.8     1.88843795     -1079.7060072646 -4.46E+00
   300 Broy./Diag. 0.40E+00   10.4     1.86020652     -1075.0941003460  4.61E+00

  Leaving inner SCF loop after reaching   300 steps.


  Electronic density on regular grids:       -511.9999285015        0.0000714985
  Core density on regular grids:              511.9999957648       -0.0000042352
  Total charge density on r-space grids:        0.0000672634
  Total charge density g-space grids:           0.0000672634

  Overlap energy of the core charge distribution:               0.00000000000000
  Self energy of the core charge distribution:              -2838.21791979120962
  Core Hamiltonian energy:                                    761.53332347914079
  Hartree energy:                                            1240.05117589904603
  Exchange-correlation energy:                               -238.46067993302165

  Total energy:                                             -1075.09410034604434

 *** WARNING in qs_scf.F:542 :: SCF run NOT converged ***


 ENERGY| Total FORCE_EVAL ( QS ) energy (a.u.):            -1070.706727860263072


 ATOMIC FORCES in [a.u.]

 # Atom   Kind   Element          X              Y              Z
      1      1      O          -0.01823935     0.02727793    -0.07961925
      2      2      H          -0.01632715     0.00616896     0.08184356
      3      2      H           0.03867123     0.03974751    -0.03604755
      4      1      O          -0.00341009     0.05129143     0.02173948
      5      2      H          -0.03940602    -0.04463725     0.00634201
      6      2      H           0.03458533     0.01417540    -0.09337754
      7      1      O           0.05666190     0.08041453    -0.04781994
      8      2      H          -0.07481316     0.04122647     0.02259941
      9      2      H          -0.00197822    -0.08051322    -0.01730000
     10      1      O          -0.06817517    -0.00193852    -0.10612487
     11      2      H           0.05583305    -0.04831684     0.00143479
     12      2      H          -0.05175608     0.02076544     0.07004973
     13      1      O           0.00815688    -0.02468830     0.05265669
     14      2      H          -0.00736337     0.09256893    -0.00049754
     15      2      H           0.01493483    -0.02554702    -0.06489058
     16      1      O           0.02071963    -0.05620858    -0.06596347
     17      2      H          -0.02082897    -0.00940124     0.04020002
     18      2      H          -0.02397371     0.00501366    -0.00154082
     19      1      O           0.03917029    -0.04806326     0.03933864
     20      2      H           0.02351395    -0.02569199    -0.01563437
     21      2      H           0.02154024     0.05188950    -0.04268877
     22      1      O          -0.00743491    -0.04317762    -0.00543261
     23      2      H          -0.03626351     0.02587326    -0.02851413
     24      2      H           0.02885831     0.02778357    -0.00796636
     25      1      O           0.04678274    -0.10818515     0.04385571
     26      2      H          -0.09515512     0.02414493    -0.12469408
     27      2      H           0.03454667     0.11168564     0.12809839
     28      1      O           0.00149276     0.05214261     0.07541810
     29      2      H           0.02534968     0.02039081    -0.04535799
     30      2      H          -0.01995748    -0.05312305    -0.03292022
     31      1      O          -0.03659301    -0.07748340    -0.12642058
     32      2      H          -0.01359127    -0.03686430     0.06316640
     33      2      H           0.04758370     0.09358376     0.03047108
     34      1      O           0.03317053     0.08038950     0.01552712
     35      2      H          -0.06916515    -0.03917743     0.00601393
     36      2      H           0.02546964    -0.05183015    -0.03817682
     37      1      O           0.15797926    -0.05569577    -0.09921469
     38      2      H           0.00994089     0.09653479     0.14494560
     39      2      H          -0.16572764    -0.03753666    -0.04615645
     40      1      O           0.06384184    -0.04548346    -0.06490265
     41      2      H          -0.01658489     0.01927687     0.08529612
     42      2      H          -0.07560498     0.00360022    -0.06035779
     43      1      O           0.04064831     0.04850890     0.10201789
     44      2      H          -0.06647418     0.02873092    -0.07529837
     45      2      H           0.04925428    -0.00845757    -0.07158753
     46      1      O           0.07525185     0.00121449     0.02967109
     47      2      H          -0.00753218     0.03709974    -0.04368464
     48      2      H          -0.02736163    -0.04527438    -0.03419472
     49      1      O          -0.00586568    -0.00358839    -0.11046802
     50      2      H           0.05586199    -0.00034415     0.02649661
     51      2      H          -0.08906288    -0.03977594     0.03326479
     52      1      O           0.02964855    -0.00741689    -0.10159590
     53      2      H           0.06970314     0.04080837    -0.00015883
     54      2      H          -0.04450006     0.01009493     0.05750038
     55      1      O          -0.09512255    -0.05973894    -0.00503584
     56      2      H           0.04907937     0.07422849    -0.04067746
     57      2      H           0.00739796     0.00271081     0.08170683
     58      1      O          -0.02179736     0.08169409     0.03253064
     59      2      H          -0.07471504    -0.01490588    -0.05693262
     60      2      H           0.04009404    -0.08674965    -0.00192578
     61      1      O          -0.11675940    -0.01011864    -0.01048162
     62      2      H           0.00435334    -0.03128791    -0.06568106
     63      2      H           0.06493397    -0.00250767     0.01428384
     64      1      O          -0.07620408     0.10299809     0.00645022
     65      2      H           0.09515577    -0.01236888     0.00884613
     66      2      H          -0.02216017    -0.04580803    -0.06831858
     67      1      O           0.09008405     0.04230114    -0.04497038
     68      2      H          -0.08428405     0.04801387     0.01689094
     69      2      H          -0.02332113    -0.06549263    -0.02725949
     70      1      O           0.11122988     0.05466087    -0.03633900
     71      2      H          -0.09545851     0.04889529     0.00707192
     72      2      H          -0.00369225    -0.04149052    -0.01701874
     73      1      O           0.11584071    -0.09480471    -0.00642537
     74      2      H          -0.01603257     0.04488811     0.08418815
     75      2      H          -0.09372811    -0.00067069    -0.02668869
     76      1      O          -0.03894396     0.02755207     0.05459861
     77      2      H           0.08229361     0.01453099    -0.01766561
     78      2      H          -0.03879445     0.03075533    -0.05651682
     79      1      O          -0.00054586    -0.07973980     0.04576634
     80      2      H          -0.05778635     0.04780966     0.01331580
     81      2      H           0.01411634    -0.01392255     0.00783652
     82      1      O           0.05073021     0.07195439     0.04416864
     83      2      H          -0.03367801     0.02164711    -0.04629846
     84      2      H           0.00156089    -0.09776258    -0.02238898
     85      1      O           0.03010604    -0.03101030    -0.09777076
     86      2      H          -0.08494658     0.04185579    -0.00584404
     87      2      H           0.01279058    -0.02566491     0.09053484
     88      1      O          -0.03663265    -0.05020438    -0.10825500
     89      2      H           0.02063990    -0.05600507     0.03462312
     90      2      H           0.03486206     0.04058835     0.01597959
     91      1      O          -0.06773561     0.00902219     0.02031714
     92      2      H           0.03444777    -0.08555736     0.02228165
     93      2      H           0.03564433     0.07463721    -0.02584313
     94      1      O           0.01056528     0.07221400     0.02834329
     95      2      H          -0.00496961    -0.01066478     0.02768868
     96      2      H           0.05746051    -0.02728152    -0.05717557
     97      1      O           0.02316721    -0.03803777     0.11964565
     98      2      H          -0.02590726     0.06854510    -0.02715906
     99      2      H          -0.00167333    -0.04563767    -0.04442315
    100      1      O           0.09501601    -0.08901047    -0.02225353
    101      2      H          -0.05862710     0.06183053    -0.09735338
    102      2      H          -0.09038437    -0.00296564     0.09268047
    103      1      O          -0.02449740    -0.01048910     0.06059968
    104      2      H           0.03317407    -0.02504563    -0.06264417
    105      2      H           0.00488733     0.05477517    -0.03527234
    106      1      O           0.08529963     0.07094278     0.06235876
    107      2      H          -0.01026449     0.00451663    -0.00536191
    108      2      H          -0.01035316    -0.05314220     0.01401327
    109      1      O           0.05451341    -0.02422242     0.00489537
    110      2      H          -0.04281007    -0.06607346    -0.04787856
    111      2      H          -0.03390196     0.05417021     0.06045215
    112      1      O          -0.07990529     0.00945568    -0.08997994
    113      2      H           0.03553715    -0.04243450    -0.03308407
    114      2      H           0.06771074     0.01460078    -0.00681488
    115      1      O           0.00606343     0.05162362    -0.04506558
    116      2      H           0.02945334    -0.07555499     0.05069714
    117      2      H          -0.04719166     0.02948108     0.01307008
    118      1      O          -0.02912246     0.03375534    -0.05802312
    119      2      H           0.05647430    -0.03570581     0.00632167
    120      2      H          -0.06705690     0.00486000     0.02835895
    121      1      O           0.02483195     0.05553154     0.08532928
    122      2      H          -0.06191937    -0.00088100    -0.02053715
    123      2      H           0.07404634    -0.03525164    -0.01358123
    124      1      O           0.11865271     0.05067714     0.02691396
    125      2      H          -0.09537414    -0.02113329    -0.01000957
    126      2      H           0.02303298     0.03529152    -0.07814978
    127      1      O          -0.02915879    -0.08860734     0.03905146
    128      2      H           0.02056425     0.05051870    -0.04264298
    129      2      H           0.05435104     0.00187089     0.06097497
    130      1      O           0.05589901    -0.05278050     0.02218879
    131      2      H          -0.01276372     0.03667408    -0.06076466
    132      2      H          -0.07533745    -0.01458113     0.05390461
    133      1      O           0.08143950     0.08546740     0.02424456
    134      2      H           0.00847239    -0.04854907    -0.07393483
    135      2      H          -0.03009893    -0.05399349     0.05658789
    136      1      O          -0.13055526     0.00876729     0.02709474
    137      2      H           0.02471950    -0.08285038     0.02378950
    138      2      H           0.05927451     0.02328403    -0.05470871
    139      1      O           0.00303746    -0.01030084     0.08152110
    140      2      H           0.07605477    -0.05530995    -0.02755234
    141      2      H          -0.07076912     0.02224749    -0.04816292
    142      1      O           0.09613989    -0.05084042    -0.02781622
    143      2      H           0.01859618     0.04444024     0.05653949
    144      2      H          -0.06849538    -0.02722207    -0.03918210
    145      1      O           0.03428963    -0.04568288     0.01165434
    146      2      H          -0.00576505    -0.03479083     0.03888897
    147      2      H          -0.02748361     0.00617786     0.01526660
    148      1      O           0.02615481    -0.04383559     0.02974032
    149      2      H           0.08879781     0.01516554    -0.04429044
    150      2      H          -0.08273643     0.01293733     0.00243245
    151      1      O          -0.00884968     0.07327320     0.06615595
    152      2      H          -0.02438913    -0.00362768     0.08346829
    153      2      H          -0.05182468    -0.01767822    -0.04806319
    154      1      O           0.04949552    -0.05204311     0.04903634
    155      2      H          -0.01855491     0.02208922    -0.02989996
    156      2      H          -0.00150659     0.01632489    -0.01110058
    157      1      O          -0.03201142     0.01298509    -0.09045273
    158      2      H           0.06801534    -0.07481802     0.03266871
    159      2      H          -0.00773088     0.00077150     0.02190614
    160      1      O          -0.03479569     0.08804760    -0.02093169
    161      2      H          -0.04969163    -0.00965727    -0.07514988
    162      2      H           0.02818261    -0.08684233     0.04156111
    163      1      O           0.00165716     0.06541485     0.01545415
    164      2      H           0.04138521    -0.04791217     0.03424971
    165      2      H          -0.04575214    -0.03724858    -0.01550167
    166      1      O           0.02749573     0.01120858    -0.08912872
    167      2      H           0.00591361     0.04615987    -0.02786938
    168      2      H          -0.03574705     0.01051569     0.04154454
    169      1      O           0.02636860     0.01946765    -0.07913738
    170      2      H          -0.02091282    -0.05162324     0.01034009
    171      2      H          -0.02225626     0.06923511     0.00731684
    172      1      O           0.03869974     0.02963823    -0.04593758
    173      2      H          -0.07338587     0.05510607     0.00025611
    174      2      H           0.00053220    -0.07325460    -0.01755956
    175      1      O          -0.05469669    -0.11246628    -0.00721008
    176      2      H          -0.05836564     0.05276077     0.01353560
    177      2      H           0.04587997    -0.00477186     0.03661035
    178      1      O          -0.04003563     0.01351746     0.01154991
    179      2      H           0.02399680    -0.01843504    -0.03126752
    180      2      H          -0.02670565     0.05929127    -0.04138491
    181      1      O           0.05679521     0.02613994    -0.10083402
    182      2      H          -0.05367991     0.01946449    -0.03028683
    183      2      H          -0.05362246    -0.00660412     0.09562783
    184      1      O           0.01156919    -0.09169907     0.00462719
    185      2      H          -0.06194441     0.05934229    -0.04073985
    186      2      H           0.08153151     0.00885368    -0.00719401
    187      1      O          -0.02326561    -0.04967822     0.05023866
    188      2      H           0.05086770     0.02319042    -0.06890089
    189      2      H          -0.04701111     0.00948937    -0.04251039
    190      1      O           0.05003470     0.07279419     0.04207407
    191      2      H          -0.05410870    -0.00860569    -0.08318748
    192      2      H          -0.01233164    -0.02652953     0.06683310
 SUM OF ATOMIC FORCES          -0.25515284    -0.03255277    -0.92537365     0.96045773

 -------------------------------------------------------------------------------
 -                                                                             -
 -                                DBCSR STATISTICS                             -
 -                                                                             -
 -------------------------------------------------------------------------------
 COUNTER                                    TOTAL       BLAS       SMM       ACC
 flops     5 x     5 x   256           4369075200       0.0%    100.0%      0.0%
 flops     5 x    13 x   256           5269089280       0.0%    100.0%      0.0%
 flops    13 x     5 x   256           5349227520       0.0%    100.0%      0.0%
 flops    13 x    13 x   256           7266534912       0.0%    100.0%      0.0%
 flops inhomo. stacks                           0       0.0%      0.0%      0.0%
 flops total                        22.253927E+09       0.0%    100.0%      0.0%
 flops max/rank                     22.253927E+09       0.0%    100.0%      0.0%
 matmuls inhomo. stacks                         0       0.0%      0.0%      0.0%
 matmuls total                             744373       0.0%    100.0%      0.0%
 number of processed stacks                 42140       0.0%    100.0%      0.0%
 average stack size                                     0.0      17.7       0.0
 marketing flops                   333.927416E+09
 -------------------------------------------------------------------------------
 # multiplications                            301
 max memory usage/rank               6.030565E+09
 # max total images/rank                        1
 # max 3D layers                                1
 # MPI messages exchanged                       0
 MPI messages size (bytes):
  total size                         0.000000E+00
  min size                           0.000000E+00
  max size                           0.000000E+00
  average size                       0.000000E+00
 MPI breakdown and total messages size (bytes):
             size <=      128                   0                        0
       128 < size <=     8192                   0                        0
      8192 < size <=    32768                   0                        0
     32768 < size <=   131072                   0                        0
    131072 < size <=  4194304                   0                        0
   4194304 < size <= 16777216                   0                        0
  16777216 < size                               0                        0
 -------------------------------------------------------------------------------

 MEMORY| Estimated peak process memory [MiB]                                5746

 -------------------------------------------------------------------------------
 -                                                                             -
 -                           R E F E R E N C E S                               -
 -                                                                             -
 -------------------------------------------------------------------------------
 
 CP2K version 7.1, the CP2K developers group (2019).
 CP2K is freely available from https://www.cp2k.org/ .

 Schuett, Ole; Messmer, Peter; Hutter, Juerg; VandeVondele, Joost. 
 Electronic Structure Calculations on Graphics Processing Units, John
 Wiley & Sons, Ltd, 173-190 (2016). 
 GPU-Accelerated Sparse Matrix-Matrix Multiplication for
 Linear Scaling Density Functional Theory.
 https://dx.doi.org/10.1002/9781118670712.ch8

 Borstnik, U; VandeVondele, J; Weber, V; Hutter, J. 
 PARALLEL COMPUTING, 40 (5-6), 47-58 (2014). 
 Sparse matrix multiplication: The distributed block-compressed sparse
 row library.
 https://dx.doi.org/10.1016/j.parco.2014.03.012

 Hutter, J; Iannuzzi, M; Schiffmann, F; VandeVondele, J. 
 WIREs Comput Mol Sci., 4 (1), 15-25 (2014). 
 CP2K: atomistic simulations of condensed matter systems.
 https://dx.doi.org/10.1002/wcms.1159

 Krack, M. 
 THEORETICAL CHEMISTRY ACCOUNTS, 114 (1-3), 145-152 (2005). 
 Pseudopotentials for H to Kr optimized for gradient-corrected
 exchange-correlation functionals.
 https://dx.doi.org/10.1007/s00214-005-0655-y

 VandeVondele, J; Krack, M; Mohamed, F; Parrinello, M; Chassaing, T;
 Hutter, J. COMPUTER PHYSICS COMMUNICATIONS, 167 (2), 103-128 (2005). 
 QUICKSTEP: Fast and accurate density functional calculations using a
 mixed Gaussian and plane waves approach.
 https://dx.doi.org/10.1016/j.cpc.2004.12.014

 Frigo, M; Johnson, SG. 
 PROCEEDINGS OF THE IEEE, 93 (2), 216-231 (2005). 
 The design and implementation of FFTW3.
 https://dx.doi.org/10.1109/JPROC.2004.840301

 Hartwigsen, C; Goedecker, S; Hutter, J. 
 PHYSICAL REVIEW B, 58 (7), 3641-3662 (1998). 
 Relativistic separable dual-space Gaussian pseudopotentials from H to Rn.
 https://dx.doi.org/10.1103/PhysRevB.58.3641

 Lippert, G; Hutter, J; Parrinello, M. 
 MOLECULAR PHYSICS, 92 (3), 477-487 (1997). 
 A hybrid Gaussian and plane wave density functional scheme.
 https://dx.doi.org/10.1080/002689797170220

 Goedecker, S; Teter, M; Hutter, J. 
 PHYSICAL REVIEW B, 54 (3), 1703-1710 (1996). 
 Separable dual-space Gaussian pseudopotentials.
 https://dx.doi.org/10.1103/PhysRevB.54.1703


 -------------------------------------------------------------------------------
 -                                                                             -
 -                                T I M I N G                                  -
 -                                                                             -
 -------------------------------------------------------------------------------
 SUBROUTINE                       CALLS  ASD         SELF TIME        TOTAL TIME
                                MAXIMUM       AVERAGE  MAXIMUM  AVERAGE  MAXIMUM
 CP2K                                 1  1.0    0.227    0.227 3187.319 3187.319
 qs_forces                            1  2.0    0.000    0.000 3184.539 3184.539
 qs_energies                          1  3.0    0.000    0.000 3183.190 3183.190
 scf_env_do_scf                       1  4.0    0.004    0.004 3180.052 3180.052
 scf_env_do_scf_inner_loop          300  5.0    0.061    0.061 3180.048 3180.048
 qs_scf_new_mos                     300  6.0    0.009    0.009 2064.574 2064.574
 eigensolver                        300  7.0    0.041    0.041 1954.411 1954.411
 cp_fm_syevd                        300  8.0 1268.572 1268.572 1270.420 1270.420
 cp_fm_cholesky_restore             900  8.0  682.899  682.899  682.899  682.899
 gspace_mixing                      299  6.0    7.986    7.986  580.657  580.657
 broyden_mixing                     299  7.0  524.672  524.672  524.675  524.675
 rebuild_ks_matrix                  301  7.0    0.001    0.001  288.778  288.778
 qs_ks_build_kohn_sham_matrix       301  8.0    0.098    0.098  288.777  288.777
 qs_ks_update_qs_env                300  6.0    0.003    0.003  288.081  288.081
 pw_transfer                       3912  9.9    0.329    0.329  262.812  262.812
 fft_wrap_pw1pw2                   3310 10.9    0.044    0.044  255.060  255.060
 qs_rho_update_rho                  301  6.0    0.005    0.005  244.635  244.635
 calculate_rho_elec                 301  7.0  109.423  109.423  244.631  244.631
 fft_wrap_pw1pw2_70                1504 11.2   24.270   24.270  213.701  213.701
 fft3d_s                           3311 12.9  129.384  129.384  129.446  129.446
 density_rs2pw                      301  8.0    0.027    0.027  128.857  128.857
 sum_up_and_integrate               301  9.0    3.484    3.484  117.550  117.550
 integrate_v_rspace                 301 10.0   10.510   10.510  114.066  114.066
 calculate_dm_sparse                300  7.0    0.004    0.004   77.041   77.041
 cp_dbcsr_plus_fm_fm_t_native       301  8.0    0.016    0.016   75.289   75.289
 pw_scatter_s                      1804 13.2   74.754   74.754   74.754   74.754
 pw_poisson_solve                   301  9.0   65.505   65.505   73.037   73.037
 potential_pw2rs                    301 11.0    0.547    0.547   70.804   70.804
 -------------------------------------------------------------------------------

 The number of warnings for this run is : 1
 
 -------------------------------------------------------------------------------
  **** **** ******  **  PROGRAM ENDED AT                 2021-01-12 02:03:11.893
 ***** ** ***  *** **   PROGRAM RAN ON                                   gnode23
 **    ****   ******    PROGRAM RAN BY                               mayank.modi
 ***** **    ** ** **   PROGRAM PROCESS ID                                 17985
  **** **  *******  **  PROGRAM STOPPED IN /home/mayank.modi/ab-initio-thermodyn
                                           amics-of-water/mayank/cp2k_energy_cal
                                           culations
