 DBCSR| CPU Multiplication driver                                           XSMM
 DBCSR| Multrec recursion limit                                              512
 DBCSR| Multiplication stack size                                           1000
 DBCSR| Maximum elements for images                                    UNLIMITED
 DBCSR| Multiplicative factor virtual images                                   1
 DBCSR| Use multiplication densification                                       T
 DBCSR| Multiplication size stacks                                             3


  **** **** ******  **  PROGRAM STARTED AT               2021-02-25 21:01:40.831
 ***** ** ***  *** **   PROGRAM STARTED ON                               gnode75
 **    ****   ******    PROGRAM STARTED BY                           mayank.modi
 ***** **    ** ** **   PROGRAM PROCESS ID                                 29664
  **** **  *******  **  PROGRAM STARTED IN /home/mayank.modi/ab-initio-thermodyn
                                           amics-of-water/mayank/cp2k_energy_cal
                                           culations

 CP2K| version string:                                          CP2K version 7.1
 CP2K| source code revision number:                                  git:e635599
 CP2K| cp2kflags: omp libint fftw3 libxc xsmm spglib                            
 CP2K| is freely available from                            https://www.cp2k.org/
 CP2K| Program compiled at                          Mon Dec 23 19:23:12 CET 2019
 CP2K| Program compiled on                                                pc9404
 CP2K| Program compiled for                                Linux-x86-64-gfortran
 CP2K| Data directory path                                        /opt/cp2k/data
 CP2K| Input file name                   input_training_correct_cell/input257.in

 GLOBAL| Force Environment number                                              1
 GLOBAL| Basis set file name                                           BASIS_SET
 GLOBAL| Potential file name                                      GTH_POTENTIALS
 GLOBAL| MM Potential file name                                     MM_POTENTIAL
 GLOBAL| Coordinate file name                                      __STD_INPUT__
 GLOBAL| Method name                                                        CP2K
 GLOBAL| Project name                                                   H2O_bulk
 GLOBAL| Preferred FFT library                                             FFTW3
 GLOBAL| Preferred diagonalization lib.                                       SL
 GLOBAL| Run type                                                   ENERGY_FORCE
 GLOBAL| All-to-all communication in single precision                          F
 GLOBAL| FFTs using library dependent lengths                                  F
 GLOBAL| Global print level                                                  LOW
 GLOBAL| MPI I/O enabled                                                       T
 GLOBAL| Total number of message passing processes                             1
 GLOBAL| Number of threads for this process                                   36
 GLOBAL| This output is from process                                           0
 GLOBAL| CPU model name                Intel(R) Xeon(R) CPU E5-2640 v4 @ 2.40GHz
 GLOBAL| CPUID                                                              1002
 GLOBAL| Compiled for CPUID                                                    0

 MEMORY| system memory details [Kb]
 MEMORY|                        rank 0           min           max       average
 MEMORY| MemTotal            131893432     131893432     131893432     131893432
 MEMORY| MemFree             123195656     123195656     123195656     123195656
 MEMORY| Buffers               1045116       1045116       1045116       1045116
 MEMORY| Cached                6254148       6254148       6254148       6254148
 MEMORY| Slab                   958920        958920        958920        958920
 MEMORY| SReclaimable           704964        704964        704964        704964
 MEMORY| MemLikelyFree       131199884     131199884     131199884     131199884


 GENERATE|  Preliminary Number of Bonds generated:                             0
 GENERATE|  Achieved consistency in connectivity generation.

 *******************************************************************************
 *******************************************************************************
 **                                                                           **
 **     #####                         ##              ##                      **
 **    ##   ##            ##          ##              ##                      **
 **   ##     ##                       ##            ######                    **
 **   ##     ##  ##   ##  ##   #####  ##  ##   ####   ##    #####    #####    **
 **   ##     ##  ##   ##  ##  ##      ## ##   ##      ##   ##   ##  ##   ##   **
 **   ##  ## ##  ##   ##  ##  ##      ####     ###    ##   ######   ######    **
 **    ##  ###   ##   ##  ##  ##      ## ##      ##   ##   ##       ##        **
 **     #######   #####   ##   #####  ##  ##  ####    ##    #####   ##        **
 **           ##                                                    ##        **
 **                                                                           **
 **                                                ... make the atoms dance   **
 **                                                                           **
 **            Copyright (C) by CP2K developers group (2000 - 2019)           **
 **                                                                           **
 *******************************************************************************


 TOTAL NUMBERS AND MAXIMUM NUMBERS

  Total number of            - Atomic kinds:                                   2
                             - Atoms:                                        192
                             - Shell sets:                                   384
                             - Shells:                                       704
                             - Primitive Cartesian functions:                960
                             - Cartesian basis functions:                   1536
                             - Spherical basis functions:                   1472

  Maximum angular momentum of- Orbital basis functions:                        2
                             - Local part of the GTH pseudopotential:          2
                             - Non-local part of the GTH pseudopotential:      0


 SCF PARAMETERS         Density guess:                                    ATOMIC
                        --------------------------------------------------------
                        max_scf:                                             300
                        max_scf_history:                                       0
                        max_diis:                                              4
                        --------------------------------------------------------
                        eps_scf:                                        1.00E-07
                        eps_scf_history:                                0.00E+00
                        eps_diis:                                       1.00E-01
                        eps_eigval:                                     1.00E-05
                        --------------------------------------------------------
                        level_shift [a.u.]:                                 0.00
                        --------------------------------------------------------
                        Mixing method:                            BROYDEN_MIXING
                                                charge density mixing in g-space
                        --------------------------------------------------------
                        No outer SCF

 Number of electrons:                                                        512
 Number of occupied orbitals:                                                256
 Number of molecular orbitals:                                               256

 Number of orbital functions:                                               1472
 Number of independent orbital functions:                                   1472

 Extrapolation method: initial_guess


 SCF WAVEFUNCTION OPTIMIZATION

  Step     Update method      Time    Convergence         Total energy    Change
  ------------------------------------------------------------------------------
     1 NoMix/Diag. 0.40E+00    7.1     0.67933408     -1064.1963308306 -1.06E+03
     2 Broy./Diag. 0.40E+00    8.0     1.91525631      -994.2807388740  6.99E+01
     3 Broy./Diag. 0.40E+00    8.5     1.93901147     -1267.0279105543 -2.73E+02
     4 Broy./Diag. 0.40E+00    8.2     1.80607408     -1136.0778221173  1.31E+02
     5 Broy./Diag. 0.40E+00    8.4     1.84519576     -1094.1607981864  4.19E+01
     6 Broy./Diag. 0.40E+00    8.4     1.71948725     -1095.6797253781 -1.52E+00
     7 Broy./Diag. 0.40E+00    8.4     1.87786782     -1097.3389073381 -1.66E+00
     8 Broy./Diag. 0.40E+00    8.8     1.80633093     -1099.3431275815 -2.00E+00
     9 Broy./Diag. 0.40E+00    8.6     1.62470153     -1080.5579983881  1.88E+01
    10 Broy./Diag. 0.40E+00    9.0     1.77320082     -1079.6994957108  8.59E-01
    11 Broy./Diag. 0.40E+00    9.3     1.79042330     -1080.3840249373 -6.85E-01
    12 Broy./Diag. 0.40E+00    9.5     1.40410743     -1078.2686192549  2.12E+00
    13 Broy./Diag. 0.40E+00    9.5     1.69949094     -1063.3532580653  1.49E+01
    14 Broy./Diag. 0.40E+00    9.5     1.82073889     -1083.6277678128 -2.03E+01
    15 Broy./Diag. 0.40E+00    9.7     1.79692542     -1079.0761521127  4.55E+00
    16 Broy./Diag. 0.40E+00    9.3     1.79549596     -1082.2939926633 -3.22E+00
    17 Broy./Diag. 0.40E+00    9.2     1.78540519     -1082.0456601455  2.48E-01
    18 Broy./Diag. 0.40E+00    9.0     1.75517765     -1078.1785887968  3.87E+00
    19 Broy./Diag. 0.40E+00    9.2     1.85318560     -1079.1551354824 -9.77E-01
    20 Broy./Diag. 0.40E+00    9.5     1.62060425     -1072.3714432162  6.78E+00
    21 Broy./Diag. 0.40E+00    9.3     1.72992288     -1082.5472392550 -1.02E+01
    22 Broy./Diag. 0.40E+00    9.2     1.80386664     -1078.1857764384  4.36E+00
    23 Broy./Diag. 0.40E+00    9.1     1.82707427     -1074.5348400760  3.65E+00
    24 Broy./Diag. 0.40E+00    9.5     1.57052333     -1072.2654647758  2.27E+00
    25 Broy./Diag. 0.40E+00    9.3     1.72307095     -1071.1309902571  1.13E+00
    26 Broy./Diag. 0.40E+00    9.3     1.74096628     -1083.9053681274 -1.28E+01
    27 Broy./Diag. 0.40E+00    9.5     1.80451161     -1074.2554652254  9.65E+00
    28 Broy./Diag. 0.40E+00    9.2     1.67023944     -1075.1037864180 -8.48E-01
    29 Broy./Diag. 0.40E+00    9.2     1.72758372     -1079.2470115880 -4.14E+00
    30 Broy./Diag. 0.40E+00    9.4     1.69452721     -1075.7308875628  3.52E+00
    31 Broy./Diag. 0.40E+00    9.3     1.77377893     -1070.0412192531  5.69E+00
    32 Broy./Diag. 0.40E+00    9.2     1.77668699     -1087.1395299303 -1.71E+01
    33 Broy./Diag. 0.40E+00    9.3     1.78400458     -1078.3914692369  8.75E+00
    34 Broy./Diag. 0.40E+00    9.5     1.71793464     -1075.5150607850  2.88E+00
    35 Broy./Diag. 0.40E+00    9.3     1.64819582     -1072.8693133204  2.65E+00
    36 Broy./Diag. 0.40E+00    9.3     1.73446261     -1074.3535739126 -1.48E+00
    37 Broy./Diag. 0.40E+00    9.5     1.83487889     -1074.9603680956 -6.07E-01
    38 Broy./Diag. 0.40E+00    9.4     1.80786689     -1077.0291856114 -2.07E+00
    39 Broy./Diag. 0.40E+00    9.4     1.74525610     -1075.7129789179  1.32E+00
    40 Broy./Diag. 0.40E+00    9.5     1.76210493     -1079.6827345906 -3.97E+00
    41 Broy./Diag. 0.40E+00    9.5     1.84576796     -1078.0618979395  1.62E+00
    42 Broy./Diag. 0.40E+00    9.5     1.59686578     -1072.1057752868  5.96E+00
    43 Broy./Diag. 0.40E+00    9.4     1.80210110     -1078.4398589090 -6.33E+00
    44 Broy./Diag. 0.40E+00    9.7     1.70362766     -1076.2432703575  2.20E+00
    45 Broy./Diag. 0.40E+00    9.4     1.75346591     -1072.0007370110  4.24E+00
    46 Broy./Diag. 0.40E+00    9.4     1.79212794     -1074.4081233245 -2.41E+00
    47 Broy./Diag. 0.40E+00    9.2     1.76502150     -1076.1994698333 -1.79E+00
    48 Broy./Diag. 0.40E+00    9.8     1.82685364     -1077.1698696161 -9.70E-01
    49 Broy./Diag. 0.40E+00    9.6     1.75234324     -1075.8711986795  1.30E+00
    50 Broy./Diag. 0.40E+00    9.3     1.74181696     -1077.5713434707 -1.70E+00
    51 Broy./Diag. 0.40E+00    9.0     1.82419266     -1072.2383649072  5.33E+00
    52 Broy./Diag. 0.40E+00    8.8     1.72851149     -1080.9270450098 -8.69E+00
    53 Broy./Diag. 0.40E+00    9.1     1.76600237     -1080.4027116899  5.24E-01
    54 Broy./Diag. 0.40E+00    9.5     1.44034742     -1072.7124690299  7.69E+00
    55 Broy./Diag. 0.40E+00    9.5     1.76258430     -1073.7322636199 -1.02E+00
    56 Broy./Diag. 0.40E+00    9.5     1.79359949     -1075.8940989461 -2.16E+00
    57 Broy./Diag. 0.40E+00    9.3     1.63657546     -1076.3059387062 -4.12E-01
    58 Broy./Diag. 0.40E+00    9.5     1.77600524     -1079.8767796572 -3.57E+00
    59 Broy./Diag. 0.40E+00    9.5     1.66727806     -1079.1393331743  7.37E-01
    60 Broy./Diag. 0.40E+00    9.2     1.76841565     -1076.8981574706  2.24E+00
    61 Broy./Diag. 0.40E+00    9.5     1.84199970     -1069.6663606566  7.23E+00
    62 Broy./Diag. 0.40E+00    9.5     1.65569098     -1076.6174129816 -6.95E+00
    63 Broy./Diag. 0.40E+00    9.3     1.76595050     -1081.6740822279 -5.06E+00
    64 Broy./Diag. 0.40E+00    8.9     1.44549571     -1073.3806994553  8.29E+00
    65 Broy./Diag. 0.40E+00    8.7     1.78961691     -1071.8678059111  1.51E+00
    66 Broy./Diag. 0.40E+00    8.7     1.82613829     -1076.4759001558 -4.61E+00
    67 Broy./Diag. 0.40E+00    8.8     1.75533303     -1079.4903951966 -3.01E+00
    68 Broy./Diag. 0.40E+00    9.8     1.83084973     -1080.9074283787 -1.42E+00
    69 Broy./Diag. 0.40E+00    9.3     1.73902515     -1072.6567606941  8.25E+00
    70 Broy./Diag. 0.40E+00    9.3     1.80768213     -1079.1241235457 -6.47E+00
    71 Broy./Diag. 0.40E+00    9.3     1.42009428     -1081.3085864643 -2.18E+00
    72 Broy./Diag. 0.40E+00    9.3     1.74012345     -1071.9933164328  9.32E+00
    73 Broy./Diag. 0.40E+00    9.0     1.85194894     -1072.2134707029 -2.20E-01
    74 Broy./Diag. 0.40E+00    8.9     1.83668785     -1074.2067538207 -1.99E+00
    75 Broy./Diag. 0.40E+00    9.5     1.78981665     -1075.9899570456 -1.78E+00
    76 Broy./Diag. 0.40E+00    9.3     1.42439416     -1072.3950414649  3.59E+00
    77 Broy./Diag. 0.40E+00    9.4     1.45566596     -1079.2889180702 -6.89E+00
    78 Broy./Diag. 0.40E+00    9.3     1.70244198     -1075.9105634275  3.38E+00
    79 Broy./Diag. 0.40E+00    9.5     1.74993247     -1079.3495945688 -3.44E+00
    80 Broy./Diag. 0.40E+00    9.6     1.79799494     -1076.2384969509  3.11E+00
    81 Broy./Diag. 0.40E+00    9.5     1.77480791     -1074.0066178174  2.23E+00
    82 Broy./Diag. 0.40E+00    9.5     1.66249768     -1073.2522000966  7.54E-01
    83 Broy./Diag. 0.40E+00    9.4     1.73408999     -1077.3667644938 -4.11E+00
    84 Broy./Diag. 0.40E+00    9.3     1.83227680     -1074.1431811404  3.22E+00
    85 Broy./Diag. 0.40E+00    9.0     1.82166126     -1076.4985320456 -2.36E+00
    86 Broy./Diag. 0.40E+00    9.5     1.75053757     -1072.8436826222  3.65E+00
    87 Broy./Diag. 0.40E+00    9.3     1.59037119     -1080.4737956518 -7.63E+00
    88 Broy./Diag. 0.40E+00    9.5     1.79549707     -1079.2648683457  1.21E+00
    89 Broy./Diag. 0.40E+00    9.4     1.72627097     -1076.3247953865  2.94E+00
    90 Broy./Diag. 0.40E+00    9.2     1.79982837     -1076.3171754986  7.62E-03
    91 Broy./Diag. 0.40E+00    9.3     1.80338354     -1073.8335339398  2.48E+00
    92 Broy./Diag. 0.40E+00    9.6     1.41337658     -1070.1298472090  3.70E+00
    93 Broy./Diag. 0.40E+00    9.3     1.73286651     -1078.4435784608 -8.31E+00
    94 Broy./Diag. 0.40E+00    9.3     1.80360352     -1080.2668976115 -1.82E+00
    95 Broy./Diag. 0.40E+00    9.3     1.81288694     -1082.3788565347 -2.11E+00
    96 Broy./Diag. 0.40E+00    9.2     1.68989788     -1072.7687242749  9.61E+00
    97 Broy./Diag. 0.40E+00    9.4     1.68974127     -1070.9221301540  1.85E+00
    98 Broy./Diag. 0.40E+00    9.4     1.73811802     -1077.2279031101 -6.31E+00
    99 Broy./Diag. 0.40E+00    9.3     1.76166423     -1077.4117798030 -1.84E-01
   100 Broy./Diag. 0.40E+00    9.7     1.80407093     -1076.6529333544  7.59E-01
   101 Broy./Diag. 0.40E+00    9.3     1.82872775     -1073.2852820092  3.37E+00
   102 Broy./Diag. 0.40E+00    9.3     1.66105043     -1077.1096069754 -3.82E+00
   103 Broy./Diag. 0.40E+00    9.3     1.72366011     -1077.5511181264 -4.42E-01
   104 Broy./Diag. 0.40E+00    9.4     1.73311917     -1075.2008256367  2.35E+00
   105 Broy./Diag. 0.40E+00    9.5     1.75657721     -1080.6704485176 -5.47E+00
   106 Broy./Diag. 0.40E+00    9.5     1.85723185     -1070.2163886342  1.05E+01
   107 Broy./Diag. 0.40E+00    9.3     1.65263992     -1073.1987851801 -2.98E+00
   108 Broy./Diag. 0.40E+00    9.4     1.75898275     -1078.2622775670 -5.06E+00
   109 Broy./Diag. 0.40E+00    9.5     1.81251619     -1083.7090965521 -5.45E+00
   110 Broy./Diag. 0.40E+00    9.2     1.83233336     -1072.7875317843  1.09E+01
   111 Broy./Diag. 0.40E+00    9.0     1.51549697     -1074.5464386138 -1.76E+00
   112 Broy./Diag. 0.40E+00    9.4     1.65491751     -1078.2834837049 -3.74E+00
   113 Broy./Diag. 0.40E+00    9.2     1.74956847     -1074.5937392708  3.69E+00
   114 Broy./Diag. 0.40E+00    9.5     1.71290645     -1079.5085251144 -4.91E+00
   115 Broy./Diag. 0.40E+00    9.3     1.78930201     -1073.9673665153  5.54E+00
   116 Broy./Diag. 0.40E+00    9.5     1.76804621     -1073.3204836643  6.47E-01
   117 Broy./Diag. 0.40E+00    9.5     1.79927130     -1081.0246500940 -7.70E+00
   118 Broy./Diag. 0.40E+00    9.4     1.78625770     -1081.0950674371 -7.04E-02
   119 Broy./Diag. 0.40E+00    9.3     1.78255196     -1074.2451032949  6.85E+00
   120 Broy./Diag. 0.40E+00    9.6     1.73945520     -1072.9563806222  1.29E+00
   121 Broy./Diag. 0.40E+00    9.7     1.61565981     -1074.5150081946 -1.56E+00
   122 Broy./Diag. 0.40E+00    9.4     1.72926300     -1076.2724656348 -1.76E+00
   123 Broy./Diag. 0.40E+00    9.3     1.80004991     -1074.3227971256  1.95E+00
   124 Broy./Diag. 0.40E+00    9.4     1.59049512     -1075.0401710009 -7.17E-01
   125 Broy./Diag. 0.40E+00    9.3     1.60763173     -1074.1675578728  8.73E-01
   126 Broy./Diag. 0.40E+00    9.5     1.77787317     -1076.3871499755 -2.22E+00
   127 Broy./Diag. 0.40E+00    9.5     1.76720009     -1078.1846426756 -1.80E+00
   128 Broy./Diag. 0.40E+00    9.4     1.75888670     -1079.2147781942 -1.03E+00
   129 Broy./Diag. 0.40E+00    9.2     1.88370140     -1075.3762026389  3.84E+00
   130 Broy./Diag. 0.40E+00    9.0     1.65787444     -1072.7095090564  2.67E+00
   131 Broy./Diag. 0.40E+00    9.1     1.73431102     -1078.4107066949 -5.70E+00
   132 Broy./Diag. 0.40E+00    9.7     1.69153971     -1076.5450547578  1.87E+00
   133 Broy./Diag. 0.40E+00    9.5     1.70305979     -1073.8088483599  2.74E+00
   134 Broy./Diag. 0.40E+00    9.5     1.67901859     -1076.7891144679 -2.98E+00
   135 Broy./Diag. 0.40E+00    9.5     1.72251695     -1075.2489481551  1.54E+00
   136 Broy./Diag. 0.40E+00    9.6     1.80097475     -1074.9024523765  3.46E-01
   137 Broy./Diag. 0.40E+00    9.4     1.79678408     -1081.2495947835 -6.35E+00
   138 Broy./Diag. 0.40E+00    9.3     1.68237504     -1072.5695523184  8.68E+00
   139 Broy./Diag. 0.40E+00    9.1     1.72222310     -1074.6648259194 -2.10E+00
   140 Broy./Diag. 0.40E+00    9.4     1.54766548     -1078.4935546254 -3.83E+00
   141 Broy./Diag. 0.40E+00    9.5     1.72408664     -1077.0796175848  1.41E+00
   142 Broy./Diag. 0.40E+00    9.2     1.75444186     -1073.7469692790  3.33E+00
   143 Broy./Diag. 0.40E+00    8.9     1.83057365     -1074.7574829902 -1.01E+00
   144 Broy./Diag. 0.40E+00    8.7     1.42294811     -1074.3624641793  3.95E-01
   145 Broy./Diag. 0.40E+00    9.0     1.78194167     -1075.9694395507 -1.61E+00
   146 Broy./Diag. 0.40E+00    9.4     1.81663587     -1079.5199710426 -3.55E+00
   147 Broy./Diag. 0.40E+00    9.2     1.81549835     -1079.9558770482 -4.36E-01
   148 Broy./Diag. 0.40E+00    8.8     1.66899343     -1072.4824193782  7.47E+00
   149 Broy./Diag. 0.40E+00    9.1     1.72293080     -1076.6796994382 -4.20E+00
   150 Broy./Diag. 0.40E+00    9.0     1.74750094     -1080.5110439198 -3.83E+00
   151 Broy./Diag. 0.40E+00    9.1     1.76385394     -1072.4732776999  8.04E+00
   152 Broy./Diag. 0.40E+00    9.0     1.80502594     -1079.6301016184 -7.16E+00
   153 Broy./Diag. 0.40E+00    9.4     1.84040836     -1076.6335981738  3.00E+00
   154 Broy./Diag. 0.40E+00    9.3     1.71430270     -1078.3987926682 -1.77E+00
   155 Broy./Diag. 0.40E+00    9.4     1.77732803     -1074.6881211323  3.71E+00
   156 Broy./Diag. 0.40E+00    9.6     1.77809712     -1074.1743858385  5.14E-01
   157 Broy./Diag. 0.40E+00    9.4     1.51784934     -1076.3713353455 -2.20E+00
   158 Broy./Diag. 0.40E+00    9.7     1.77994979     -1072.9713808708  3.40E+00
   159 Broy./Diag. 0.40E+00    9.1     1.32669777     -1075.2774033148 -2.31E+00
   160 Broy./Diag. 0.40E+00    9.3     1.37487282     -1076.3085016529 -1.03E+00
   161 Broy./Diag. 0.40E+00    9.7     1.71621370     -1076.2176868923  9.08E-02
   162 Broy./Diag. 0.40E+00    9.5     1.83699101     -1079.7106238532 -3.49E+00
   163 Broy./Diag. 0.40E+00    9.4     1.83687716     -1076.1021876015  3.61E+00
   164 Broy./Diag. 0.40E+00    9.5     1.72500397     -1072.7468537445  3.36E+00
   165 Broy./Diag. 0.40E+00    9.4     1.75536268     -1078.7595827525 -6.01E+00
   166 Broy./Diag. 0.40E+00    9.4     1.79019226     -1076.9007870582  1.86E+00
   167 Broy./Diag. 0.40E+00    9.4     1.67566558     -1074.9227733617  1.98E+00
   168 Broy./Diag. 0.40E+00    9.4     1.67884629     -1079.0243724599 -4.10E+00
   169 Broy./Diag. 0.40E+00    9.2     1.72350229     -1077.6078000475  1.42E+00
   170 Broy./Diag. 0.40E+00    9.0     1.81440493     -1074.8555761807  2.75E+00
   171 Broy./Diag. 0.40E+00    9.8     1.74923978     -1076.4286229080 -1.57E+00
   172 Broy./Diag. 0.40E+00    9.6     1.78280595     -1077.6176340473 -1.19E+00
   173 Broy./Diag. 0.40E+00    9.3     1.55180693     -1074.9257334033  2.69E+00
   174 Broy./Diag. 0.40E+00    8.9     1.72521222     -1076.3751459798 -1.45E+00
   175 Broy./Diag. 0.40E+00    9.0     1.77891644     -1077.7690144757 -1.39E+00
   176 Broy./Diag. 0.40E+00    9.2     1.84490871     -1073.0096846762  4.76E+00
   177 Broy./Diag. 0.40E+00    9.0     1.79858508     -1075.8779750096 -2.87E+00
   178 Broy./Diag. 0.40E+00    9.4     1.79070302     -1076.5793077560 -7.01E-01
   179 Broy./Diag. 0.40E+00    9.5     1.74791680     -1077.8081813022 -1.23E+00
   180 Broy./Diag. 0.40E+00    9.2     1.79959582     -1077.1236672580  6.85E-01
   181 Broy./Diag. 0.40E+00    8.8     1.81825620     -1077.0824463545  4.12E-02
   182 Broy./Diag. 0.40E+00    9.1     1.75435802     -1070.9321438326  6.15E+00
   183 Broy./Diag. 0.40E+00    9.4     1.79333981     -1079.0483406138 -8.12E+00
   184 Broy./Diag. 0.40E+00    9.5     1.59015014     -1073.8181557313  5.23E+00
   185 Broy./Diag. 0.40E+00    9.4     1.80279336     -1077.3198003728 -3.50E+00
   186 Broy./Diag. 0.40E+00    9.3     1.81016465     -1076.8513187759  4.68E-01
   187 Broy./Diag. 0.40E+00    9.6     1.55277419     -1078.2956356706 -1.44E+00
   188 Broy./Diag. 0.40E+00    9.7     1.33301170     -1073.7680300181  4.53E+00
   189 Broy./Diag. 0.40E+00    9.1     1.65060982     -1073.7100147554  5.80E-02
   190 Broy./Diag. 0.40E+00    9.1     1.78660894     -1074.6599301671 -9.50E-01
   191 Broy./Diag. 0.40E+00    9.2     1.47554505     -1080.4145043322 -5.75E+00
   192 Broy./Diag. 0.40E+00    9.1     1.64037069     -1074.2071639611  6.21E+00
   193 Broy./Diag. 0.40E+00    8.8     1.73847463     -1072.2220340837  1.99E+00
   194 Broy./Diag. 0.40E+00    9.6     1.62420134     -1078.4039222145 -6.18E+00
   195 Broy./Diag. 0.40E+00    9.3     1.79113832     -1076.9590836023  1.44E+00
   196 Broy./Diag. 0.40E+00    9.9     1.83592355     -1076.8865777790  7.25E-02
   197 Broy./Diag. 0.40E+00    9.4     1.37282759     -1072.4839369008  4.40E+00
   198 Broy./Diag. 0.40E+00    9.3     1.63915902     -1077.3458036716 -4.86E+00
   199 Broy./Diag. 0.40E+00    9.6     1.68255471     -1077.1886204054  1.57E-01
   200 Broy./Diag. 0.40E+00    9.5     1.74872790     -1073.9886620586  3.20E+00
   201 Broy./Diag. 0.40E+00    9.4     1.80725060     -1080.1241157228 -6.14E+00
   202 Broy./Diag. 0.40E+00    9.2     1.84409605     -1074.1062016840  6.02E+00
   203 Broy./Diag. 0.40E+00    9.0     1.74573584     -1077.4343982782 -3.33E+00
   204 Broy./Diag. 0.40E+00    8.9     1.82813349     -1079.6353464908 -2.20E+00
   205 Broy./Diag. 0.40E+00    8.9     1.65969608     -1075.0582320728  4.58E+00
   206 Broy./Diag. 0.40E+00    8.7     1.73792209     -1076.7106832585 -1.65E+00
   207 Broy./Diag. 0.40E+00    9.0     1.78300729     -1073.9045325754  2.81E+00
   208 Broy./Diag. 0.40E+00    9.5     1.70114506     -1078.5880590772 -4.68E+00
   209 Broy./Diag. 0.40E+00    9.3     1.53640722     -1073.9446250436  4.64E+00
   210 Broy./Diag. 0.40E+00    9.4     1.69152936     -1076.1985220564 -2.25E+00
   211 Broy./Diag. 0.40E+00    9.2     1.76897870     -1074.9393562348  1.26E+00
   212 Broy./Diag. 0.40E+00    9.3     1.84719184     -1074.3892632209  5.50E-01
   213 Broy./Diag. 0.40E+00    9.6     1.73818566     -1076.1083840611 -1.72E+00
   214 Broy./Diag. 0.40E+00    9.3     1.78568004     -1076.2398270806 -1.31E-01
   215 Broy./Diag. 0.40E+00    9.5     1.79855404     -1080.6808661619 -4.44E+00
   216 Broy./Diag. 0.40E+00    9.5     1.73554456     -1074.0853011025  6.60E+00
   217 Broy./Diag. 0.40E+00    9.4     1.73097170     -1075.8549317766 -1.77E+00
   218 Broy./Diag. 0.40E+00    9.7     1.84765393     -1072.8197868618  3.04E+00
   219 Broy./Diag. 0.40E+00    9.7     1.77931039     -1080.5078755145 -7.69E+00
   220 Broy./Diag. 0.40E+00    9.3     1.78288817     -1072.3445024325  8.16E+00
   221 Broy./Diag. 0.40E+00    9.5     1.78336052     -1084.3289976420 -1.20E+01
   222 Broy./Diag. 0.40E+00    9.5     1.76236722     -1075.8234477887  8.51E+00
   223 Broy./Diag. 0.40E+00    9.4     1.71875718     -1077.5223794449 -1.70E+00
   224 Broy./Diag. 0.40E+00    9.4     1.67266397     -1076.1121717782  1.41E+00
   225 Broy./Diag. 0.40E+00    9.4     1.53968017     -1074.0166359973  2.10E+00
   226 Broy./Diag. 0.40E+00    9.5     1.74706473     -1077.0513111365 -3.03E+00
   227 Broy./Diag. 0.40E+00    9.5     1.86812867     -1074.1487045726  2.90E+00
   228 Broy./Diag. 0.40E+00    9.5     1.78812764     -1082.4684761504 -8.32E+00
   229 Broy./Diag. 0.40E+00    9.4     1.76118535     -1077.5140345518  4.95E+00
   230 Broy./Diag. 0.40E+00    9.3     1.45610607     -1070.5435337310  6.97E+00
   231 Broy./Diag. 0.40E+00    9.3     1.75299697     -1075.4324609236 -4.89E+00
   232 Broy./Diag. 0.40E+00    9.1     1.82209161     -1076.0868344118 -6.54E-01
   233 Broy./Diag. 0.40E+00    9.3     1.75213674     -1076.4339611330 -3.47E-01
   234 Broy./Diag. 0.40E+00    9.5     1.82138015     -1077.5126180966 -1.08E+00
   235 Broy./Diag. 0.40E+00    9.2     1.73796673     -1080.3509566689 -2.84E+00
   236 Broy./Diag. 0.40E+00    8.9     1.79898140     -1075.7000883185  4.65E+00
   237 Broy./Diag. 0.40E+00    8.9     1.85472919     -1074.7425757422  9.58E-01
   238 Broy./Diag. 0.40E+00    9.0     1.75929689     -1071.1206001525  3.62E+00
   239 Broy./Diag. 0.40E+00    9.5     1.63422069     -1082.6150136042 -1.15E+01
   240 Broy./Diag. 0.40E+00    9.3     1.69220324     -1074.3977732199  8.22E+00
   241 Broy./Diag. 0.40E+00    9.3     1.70069202     -1073.8187011429  5.79E-01
   242 Broy./Diag. 0.40E+00    9.6     1.74071539     -1080.7400178188 -6.92E+00
   243 Broy./Diag. 0.40E+00    9.4     1.77722860     -1077.1579197350  3.58E+00
   244 Broy./Diag. 0.40E+00    9.2     1.84831436     -1076.7315241056  4.26E-01
   245 Broy./Diag. 0.40E+00    9.0     1.77890876     -1073.0792344213  3.65E+00
   246 Broy./Diag. 0.40E+00    8.8     1.77460544     -1079.0003195817 -5.92E+00
   247 Broy./Diag. 0.40E+00    8.8     1.43208669     -1074.9382561897  4.06E+00
   248 Broy./Diag. 0.40E+00    8.7     1.73793948     -1072.0099323375  2.93E+00
   249 Broy./Diag. 0.40E+00    8.7     1.84102868     -1071.5229588517  4.87E-01
   250 Broy./Diag. 0.40E+00    8.9     1.73227612     -1080.5324834366 -9.01E+00
   251 Broy./Diag. 0.40E+00    8.8     1.71465824     -1076.6186480890  3.91E+00
   252 Broy./Diag. 0.40E+00    9.2     1.78285534     -1082.1808875516 -5.56E+00
   253 Broy./Diag. 0.40E+00    9.5     1.78396941     -1070.9501989724  1.12E+01
   254 Broy./Diag. 0.40E+00    9.4     1.81895112     -1082.9818027428 -1.20E+01
   255 Broy./Diag. 0.40E+00    9.4     1.80816687     -1076.8694537554  6.11E+00
   256 Broy./Diag. 0.40E+00    9.3     1.75565373     -1076.1242253165  7.45E-01
   257 Broy./Diag. 0.40E+00    9.3     1.83663825     -1072.6084375543  3.52E+00
   258 Broy./Diag. 0.40E+00    9.4     1.79591053     -1075.0443504293 -2.44E+00
   259 Broy./Diag. 0.40E+00    9.5     1.52664477     -1080.0396543051 -5.00E+00
   260 Broy./Diag. 0.40E+00    9.6     1.73582815     -1074.4244622336  5.62E+00
   261 Broy./Diag. 0.40E+00    9.3     1.84518136     -1077.4216483855 -3.00E+00
   262 Broy./Diag. 0.40E+00    9.2     1.50976094     -1078.8637731118 -1.44E+00
   263 Broy./Diag. 0.40E+00    9.3     1.73189635     -1075.3452620078  3.52E+00
   264 Broy./Diag. 0.40E+00    9.5     1.82153582     -1075.7052516971 -3.60E-01
   265 Broy./Diag. 0.40E+00    9.4     1.65408300     -1075.6058208114  9.94E-02
   266 Broy./Diag. 0.40E+00    9.3     1.74665761     -1077.0270617132 -1.42E+00
   267 Broy./Diag. 0.40E+00    9.5     1.76336273     -1072.9516823310  4.08E+00
   268 Broy./Diag. 0.40E+00    9.3     1.73797989     -1073.3925961708 -4.41E-01
   269 Broy./Diag. 0.40E+00    9.3     1.81841445     -1079.5901402746 -6.20E+00
   270 Broy./Diag. 0.40E+00    9.3     1.75229868     -1079.3404903531  2.50E-01
   271 Broy./Diag. 0.40E+00    9.0     1.78645812     -1073.8145212652  5.53E+00
   272 Broy./Diag. 0.40E+00    9.4     1.67512150     -1077.2799379282 -3.47E+00
   273 Broy./Diag. 0.40E+00    9.2     1.75876675     -1075.6999844875  1.58E+00
   274 Broy./Diag. 0.40E+00    9.1     1.76374139     -1069.8993821470  5.80E+00
   275 Broy./Diag. 0.40E+00    9.6     1.79195856     -1082.6791391325 -1.28E+01
   276 Broy./Diag. 0.40E+00    9.5     1.80922236     -1080.6971947037  1.98E+00
   277 Broy./Diag. 0.40E+00    9.3     1.72477789     -1074.8892506267  5.81E+00
   278 Broy./Diag. 0.40E+00    9.4     1.66908440     -1075.8286175682 -9.39E-01
   279 Broy./Diag. 0.40E+00    9.3     1.83437348     -1081.4578721023 -5.63E+00
   280 Broy./Diag. 0.40E+00    9.4     1.86768984     -1075.6590339567  5.80E+00
   281 Broy./Diag. 0.40E+00    9.4     1.82879975     -1074.9570151367  7.02E-01
   282 Broy./Diag. 0.40E+00    9.5     1.67764324     -1075.3284797143 -3.71E-01
   283 Broy./Diag. 0.40E+00    9.3     1.80571457     -1079.7953388875 -4.47E+00
   284 Broy./Diag. 0.40E+00    9.5     1.87767075     -1074.2512526402  5.54E+00
   285 Broy./Diag. 0.40E+00    9.6     1.39298557     -1070.9056319747  3.35E+00
   286 Broy./Diag. 0.40E+00    9.7     1.71976305     -1079.4931723159 -8.59E+00
   287 Broy./Diag. 0.40E+00    9.4     1.71658511     -1078.0815851801  1.41E+00
   288 Broy./Diag. 0.40E+00    9.4     1.61357800     -1073.8975424927  4.18E+00
   289 Broy./Diag. 0.40E+00    9.4     1.70663565     -1078.0945202742 -4.20E+00
   290 Broy./Diag. 0.40E+00    9.5     1.86530234     -1078.8458018004 -7.51E-01
   291 Broy./Diag. 0.40E+00    9.4     1.81681601     -1074.3100710750  4.54E+00
   292 Broy./Diag. 0.40E+00    9.4     1.58584397     -1071.9901598809  2.32E+00
   293 Broy./Diag. 0.40E+00    9.4     1.77718907     -1079.5786013845 -7.59E+00
   294 Broy./Diag. 0.40E+00    9.5     1.72107160     -1072.6526785492  6.93E+00
   295 Broy./Diag. 0.40E+00    9.5     1.81516180     -1081.6738607388 -9.02E+00
   296 Broy./Diag. 0.40E+00    9.4     1.78519535     -1081.3189115327  3.55E-01
   297 Broy./Diag. 0.40E+00    9.4     1.75658007     -1076.0561281181  5.26E+00
   298 Broy./Diag. 0.40E+00    9.5     1.79331170     -1071.2748920938  4.78E+00
   299 Broy./Diag. 0.40E+00    9.3     1.78835458     -1077.7640497521 -6.49E+00
   300 Broy./Diag. 0.40E+00    9.0     1.72834115     -1078.7454887654 -9.81E-01

  Leaving inner SCF loop after reaching   300 steps.


  Electronic density on regular grids:       -511.9998999904        0.0001000096
  Core density on regular grids:              511.9999537783       -0.0000462217
  Total charge density on r-space grids:        0.0000537879
  Total charge density g-space grids:           0.0000537879

  Overlap energy of the core charge distribution:               0.00000000000000
  Self energy of the core charge distribution:              -2838.21791979120962
  Core Hamiltonian energy:                                    758.05995362990063
  Hartree energy:                                            1240.02442728541223
  Exchange-correlation energy:                               -238.61194988949285

  Total energy:                                             -1078.74548876538984

 *** WARNING in qs_scf.F:542 :: SCF run NOT converged ***


 ENERGY| Total FORCE_EVAL ( QS ) energy (a.u.):            -1071.217240307942120


 ATOMIC FORCES in [a.u.]

 # Atom   Kind   Element          X              Y              Z
      1      1      O          -0.07386097    -0.02381448    -0.15112665
      2      2      H           0.01085992    -0.02188753     0.09791136
      3      2      H           0.03379790     0.02266334    -0.01245583
      4      1      O           0.02305989     0.15809411     0.02290830
      5      2      H          -0.06440117    -0.10086395    -0.00391845
      6      2      H          -0.05855632     0.05957424    -0.03220638
      7      1      O           0.04496052     0.02871785    -0.05471073
      8      2      H           0.03439428    -0.07633283     0.05857048
      9      2      H           0.11087221    -0.08604188    -0.04862398
     10      1      O           0.02482960     0.05008528    -0.05066923
     11      2      H           0.05667489     0.04456455    -0.03849104
     12      2      H           0.08272158    -0.06845357    -0.07624842
     13      1      O           0.06687481    -0.02432243     0.02448638
     14      2      H           0.01751382     0.08958918    -0.01712936
     15      2      H           0.02444687     0.01630407    -0.02460416
     16      1      O           0.04981121     0.10173220     0.04778319
     17      2      H           0.02416841    -0.11172928     0.12483600
     18      2      H           0.04802180     0.00747559    -0.09764953
     19      1      O           0.11218519     0.01698509     0.17472368
     20      2      H          -0.07040314    -0.06576019    -0.08393860
     21      2      H           0.01827445     0.06215240    -0.07232731
     22      1      O          -0.06388501     0.06167044    -0.08483192
     23      2      H          -0.06869365    -0.01575953    -0.01257728
     24      2      H           0.04652086    -0.06406353    -0.01419006
     25      1      O           0.05222466     0.08870182     0.05508109
     26      2      H          -0.07221527    -0.09580735    -0.01377738
     27      2      H          -0.07564246    -0.03369185     0.06934637
     28      1      O          -0.12350204     0.07163568     0.05618182
     29      2      H           0.01436410    -0.02144753    -0.11541535
     30      2      H           0.04066848    -0.01226181     0.02788674
     31      1      O           0.12167321    -0.14307112    -0.05231835
     32      2      H           0.00020431    -0.00968815     0.04310227
     33      2      H          -0.01909681     0.04255393    -0.04590477
     34      1      O           0.09003473    -0.10943624     0.08327024
     35      2      H          -0.06378012     0.04311779     0.05664831
     36      2      H          -0.03680829     0.01636181    -0.07546937
     37      1      O           0.10458920     0.02110806    -0.10662331
     38      2      H           0.08751320     0.02471802     0.11749159
     39      2      H          -0.15825086    -0.13323897    -0.03543330
     40      1      O           0.16351409     0.03803093    -0.06932854
     41      2      H          -0.11451956    -0.05799795     0.09319606
     42      2      H           0.03165895    -0.08060814    -0.09875129
     43      1      O           0.09454889    -0.17749038     0.05671903
     44      2      H          -0.10136613     0.10750432     0.01017752
     45      2      H           0.03568287     0.02179123    -0.05140464
     46      1      O           0.10817212    -0.13197012     0.05103826
     47      2      H           0.01313056     0.03925286    -0.00628251
     48      2      H           0.00574945    -0.08190577    -0.03260882
     49      1      O          -0.04738322     0.13019982     0.14501339
     50      2      H           0.01036508    -0.11081115     0.04923366
     51      2      H          -0.11976531    -0.03631996     0.01146740
     52      1      O          -0.17930147     0.02022549     0.00584013
     53      2      H           0.07989088     0.04572135     0.03915027
     54      2      H           0.03014712    -0.09709340     0.10227134
     55      1      O          -0.06661590    -0.08681905     0.00969207
     56      2      H          -0.04512586     0.01202632    -0.10188063
     57      2      H           0.00847104     0.08534305     0.07986956
     58      1      O          -0.05000917     0.15240203    -0.11035530
     59      2      H          -0.00774387     0.01411236    -0.05318707
     60      2      H           0.04197425    -0.07880595     0.06391491
     61      1      O          -0.09543152     0.15893351     0.07671616
     62      2      H          -0.05778526     0.01010668    -0.01671358
     63      2      H          -0.04319773    -0.02866860     0.06055309
     64      1      O           0.00239943     0.04792079     0.11115738
     65      2      H           0.00532703     0.04096077    -0.05946314
     66      2      H           0.01238200    -0.07795952    -0.02298215
     67      1      O           0.08244323    -0.16948660     0.16417396
     68      2      H          -0.09823188     0.03085508    -0.06282730
     69      2      H           0.05342232    -0.04965146    -0.01493368
     70      1      O          -0.01124684     0.10883307     0.01152520
     71      2      H           0.02253048    -0.13246064     0.12011293
     72      2      H           0.04733266    -0.03654360    -0.07651967
     73      1      O           0.10181784    -0.00568602    -0.16572592
     74      2      H          -0.02580994    -0.01161538     0.07963350
     75      2      H           0.02588456    -0.06582349     0.03083192
     76      1      O          -0.03698007    -0.02836259    -0.05235089
     77      2      H           0.04460837    -0.05701828    -0.05198346
     78      2      H           0.05059057     0.05914145    -0.02425536
     79      1      O          -0.09981965     0.00885429    -0.04432197
     80      2      H          -0.04072294     0.08965422     0.11448555
     81      2      H           0.01930935    -0.04613493    -0.01157575
     82      1      O          -0.04221306    -0.05661310     0.11257467
     83      2      H          -0.05036918     0.01695593    -0.03987882
     84      2      H           0.02530186     0.11557413     0.01159308
     85      1      O           0.00632700     0.17695296    -0.08493164
     86      2      H          -0.08730983    -0.03293994    -0.03261845
     87      2      H          -0.01781636    -0.10127866     0.10096229
     88      1      O          -0.03151595     0.06899461     0.01034078
     89      2      H           0.03481029    -0.08557199    -0.01791669
     90      2      H          -0.02086280     0.10107895     0.07195801
     91      1      O          -0.05601147     0.10932701    -0.04695647
     92      2      H          -0.01587268    -0.10569996    -0.06998941
     93      2      H           0.09109257    -0.01484878     0.04313101
     94      1      O          -0.10472602     0.05307651    -0.14684492
     95      2      H          -0.03208580    -0.08330302     0.00792076
     96      2      H           0.08617133    -0.01675036    -0.04324945
     97      1      O          -0.14838688     0.06107656     0.16493932
     98      2      H          -0.05792976     0.08285487     0.00585255
     99      2      H           0.00606738    -0.03099206    -0.06887965
    100      1      O          -0.00877025     0.15661803     0.09620194
    101      2      H           0.00957796     0.01250876    -0.07169690
    102      2      H           0.02497974     0.04540941     0.04134823
    103      1      O           0.00399223     0.10779588     0.03576543
    104      2      H           0.04699296     0.04654505    -0.02954381
    105      2      H           0.00195249     0.01812968     0.01690182
    106      1      O           0.01944192    -0.03079804     0.07679133
    107      2      H          -0.02997066     0.02230593    -0.06413646
    108      2      H           0.00244321     0.11350401    -0.02114357
    109      1      O          -0.06949139    -0.10672855     0.10930572
    110      2      H          -0.04099846     0.01196214     0.00787873
    111      2      H          -0.05998656     0.01119158    -0.01984751
    112      1      O           0.12739842    -0.10195935     0.15819010
    113      2      H          -0.02672851    -0.00196421    -0.01932134
    114      2      H          -0.02057111     0.04164137    -0.05374208
    115      1      O          -0.12810515    -0.06585450     0.04613244
    116      2      H          -0.03254960    -0.00466360     0.00622179
    117      2      H           0.00906713     0.07438343     0.02524074
    118      1      O           0.04346649     0.17301505     0.01555111
    119      2      H           0.04002767    -0.00833612    -0.02901542
    120      2      H          -0.00447077    -0.04801183     0.04036295
    121      1      O          -0.09699517     0.03937432     0.02844227
    122      2      H          -0.02029837     0.04715495    -0.09826739
    123      2      H           0.08432614     0.06926386    -0.00995869
    124      1      O          -0.12243549    -0.01091387     0.13362743
    125      2      H          -0.01705785    -0.08889625     0.01529568
    126      2      H           0.04115253    -0.03412136     0.01770105
    127      1      O          -0.14834576    -0.04624353    -0.05527021
    128      2      H           0.06798236     0.01913935    -0.07218381
    129      2      H          -0.03821156     0.05165893     0.03380618
    130      1      O           0.02546334    -0.10777689     0.01637240
    131      2      H          -0.06553765     0.02850925     0.00270717
    132      2      H           0.02084297    -0.03832333    -0.02007037
    133      1      O          -0.02547931    -0.04890090    -0.08936695
    134      2      H           0.00862155     0.00604142    -0.10902190
    135      2      H          -0.00913716     0.03671265     0.10540411
    136      1      O           0.06080414     0.18218377     0.12666566
    137      2      H           0.00680898    -0.04464712     0.04016233
    138      2      H          -0.03866991    -0.00791187    -0.02445267
    139      1      O          -0.07195287     0.05984267     0.10980000
    140      2      H          -0.02534749    -0.03834173     0.00703548
    141      2      H          -0.06333424     0.01643148    -0.00309879
    142      1      O           0.17104790     0.08077714     0.17494584
    143      2      H          -0.02622318     0.09893958     0.01237180
    144      2      H          -0.12772095    -0.09928185    -0.03488653
    145      1      O          -0.05154116     0.07475212     0.15675970
    146      2      H           0.00808404    -0.06526252    -0.03186556
    147      2      H          -0.02297032    -0.02495359    -0.03933397
    148      1      O           0.15418111    -0.04690931     0.07532082
    149      2      H          -0.01659423     0.09108580    -0.01564509
    150      2      H          -0.02288013     0.01828128     0.07983171
    151      1      O          -0.04029886     0.05007935     0.11471482
    152      2      H          -0.00513324    -0.09148351     0.08012856
    153      2      H          -0.01490731     0.00659481    -0.02878954
    154      1      O          -0.12893606     0.03141100    -0.09702373
    155      2      H          -0.06356715    -0.05572153     0.00062238
    156      2      H           0.05438437    -0.05399686     0.02883307
    157      1      O           0.16160450    -0.06941797     0.03169542
    158      2      H          -0.03941050    -0.00944207    -0.06531198
    159      2      H           0.02791997     0.05089487     0.06041922
    160      1      O           0.05422932     0.03623575    -0.03894344
    161      2      H          -0.08001896    -0.02148602     0.01014718
    162      2      H           0.01737239     0.01172886     0.01670882
    163      1      O          -0.05161860     0.09535077     0.00238639
    164      2      H           0.05036894     0.01755154     0.05113823
    165      2      H           0.02553562     0.01713440     0.03522519
    166      1      O          -0.04743303    -0.08585913    -0.00241416
    167      2      H           0.06161971     0.03023075     0.00098780
    168      2      H          -0.01923379    -0.04137180    -0.06716525
    169      1      O           0.06762970    -0.11738480    -0.14797502
    170      2      H          -0.02391474    -0.05010306    -0.02173825
    171      2      H          -0.03895072     0.09964176     0.04617203
    172      1      O          -0.02523558     0.06183801    -0.01229791
    173      2      H          -0.09461109    -0.03203112    -0.10170390
    174      2      H          -0.05177892     0.02603316     0.03105890
    175      1      O           0.04123018     0.01151403    -0.03402750
    176      2      H          -0.11449666    -0.03754458    -0.07072462
    177      2      H           0.03835219     0.04088325     0.01019401
    178      1      O           0.16061344     0.11130560    -0.08499254
    179      2      H          -0.01575507    -0.10210622     0.02401768
    180      2      H          -0.11114404    -0.01293350     0.01012395
    181      1      O           0.01493126     0.01516470     0.13662484
    182      2      H           0.01271880    -0.08278146     0.04999687
    183      2      H          -0.01774647     0.01668239    -0.12854742
    184      1      O           0.12939336    -0.00052473    -0.00807080
    185      2      H          -0.04227365     0.00839213    -0.09070025
    186      2      H          -0.01161790     0.11431244    -0.03790606
    187      1      O           0.10026589     0.14554666    -0.05287229
    188      2      H           0.03326166     0.05588974    -0.05008587
    189      2      H          -0.05547408    -0.07810951    -0.01569818
    190      1      O           0.12868214    -0.08989550    -0.14703675
    191      2      H           0.02852338     0.03437378     0.00390239
    192      2      H          -0.04364781    -0.08979098     0.04383411
 SUM OF ATOMIC FORCES          -0.55515587     0.29182754     0.46209496     0.77903344

 -------------------------------------------------------------------------------
 -                                                                             -
 -                                DBCSR STATISTICS                             -
 -                                                                             -
 -------------------------------------------------------------------------------
 COUNTER                                    TOTAL       BLAS       SMM       ACC
 flops     5 x     5 x   256           4457689600       0.0%    100.0%      0.0%
 flops    13 x     5 x   256           5249054720       0.0%    100.0%      0.0%
 flops     5 x    13 x   256           5489469440       0.0%    100.0%      0.0%
 flops    13 x    13 x   256           7553029120       0.0%    100.0%      0.0%
 flops inhomo. stacks                           0       0.0%      0.0%      0.0%
 flops total                        22.749243E+09       0.0%    100.0%      0.0%
 flops max/rank                     22.749243E+09       0.0%    100.0%      0.0%
 matmuls inhomo. stacks                         0       0.0%      0.0%      0.0%
 matmuls total                             758219       0.0%    100.0%      0.0%
 number of processed stacks                 42140       0.0%    100.0%      0.0%
 average stack size                                     0.0      18.0       0.0
 marketing flops                   333.927416E+09
 -------------------------------------------------------------------------------
 # multiplications                            301
 max memory usage/rank               5.025284E+09
 # max total images/rank                        1
 # max 3D layers                                1
 # MPI messages exchanged                       0
 MPI messages size (bytes):
  total size                         0.000000E+00
  min size                           0.000000E+00
  max size                           0.000000E+00
  average size                       0.000000E+00
 MPI breakdown and total messages size (bytes):
             size <=      128                   0                        0
       128 < size <=     8192                   0                        0
      8192 < size <=    32768                   0                        0
     32768 < size <=   131072                   0                        0
    131072 < size <=  4194304                   0                        0
   4194304 < size <= 16777216                   0                        0
  16777216 < size                               0                        0
 -------------------------------------------------------------------------------

 MEMORY| Estimated peak process memory [MiB]                                4787

 -------------------------------------------------------------------------------
 -                                                                             -
 -                           R E F E R E N C E S                               -
 -                                                                             -
 -------------------------------------------------------------------------------
 
 CP2K version 7.1, the CP2K developers group (2019).
 CP2K is freely available from https://www.cp2k.org/ .

 Schuett, Ole; Messmer, Peter; Hutter, Juerg; VandeVondele, Joost. 
 Electronic Structure Calculations on Graphics Processing Units, John
 Wiley & Sons, Ltd, 173-190 (2016). 
 GPU-Accelerated Sparse Matrix-Matrix Multiplication for
 Linear Scaling Density Functional Theory.
 https://dx.doi.org/10.1002/9781118670712.ch8

 Borstnik, U; VandeVondele, J; Weber, V; Hutter, J. 
 PARALLEL COMPUTING, 40 (5-6), 47-58 (2014). 
 Sparse matrix multiplication: The distributed block-compressed sparse
 row library.
 https://dx.doi.org/10.1016/j.parco.2014.03.012

 Hutter, J; Iannuzzi, M; Schiffmann, F; VandeVondele, J. 
 WIREs Comput Mol Sci., 4 (1), 15-25 (2014). 
 CP2K: atomistic simulations of condensed matter systems.
 https://dx.doi.org/10.1002/wcms.1159

 Krack, M. 
 THEORETICAL CHEMISTRY ACCOUNTS, 114 (1-3), 145-152 (2005). 
 Pseudopotentials for H to Kr optimized for gradient-corrected
 exchange-correlation functionals.
 https://dx.doi.org/10.1007/s00214-005-0655-y

 VandeVondele, J; Krack, M; Mohamed, F; Parrinello, M; Chassaing, T;
 Hutter, J. COMPUTER PHYSICS COMMUNICATIONS, 167 (2), 103-128 (2005). 
 QUICKSTEP: Fast and accurate density functional calculations using a
 mixed Gaussian and plane waves approach.
 https://dx.doi.org/10.1016/j.cpc.2004.12.014

 Frigo, M; Johnson, SG. 
 PROCEEDINGS OF THE IEEE, 93 (2), 216-231 (2005). 
 The design and implementation of FFTW3.
 https://dx.doi.org/10.1109/JPROC.2004.840301

 Hartwigsen, C; Goedecker, S; Hutter, J. 
 PHYSICAL REVIEW B, 58 (7), 3641-3662 (1998). 
 Relativistic separable dual-space Gaussian pseudopotentials from H to Rn.
 https://dx.doi.org/10.1103/PhysRevB.58.3641

 Lippert, G; Hutter, J; Parrinello, M. 
 MOLECULAR PHYSICS, 92 (3), 477-487 (1997). 
 A hybrid Gaussian and plane wave density functional scheme.
 https://dx.doi.org/10.1080/002689797170220

 Goedecker, S; Teter, M; Hutter, J. 
 PHYSICAL REVIEW B, 54 (3), 1703-1710 (1996). 
 Separable dual-space Gaussian pseudopotentials.
 https://dx.doi.org/10.1103/PhysRevB.54.1703


 -------------------------------------------------------------------------------
 -                                                                             -
 -                                T I M I N G                                  -
 -                                                                             -
 -------------------------------------------------------------------------------
 SUBROUTINE                       CALLS  ASD         SELF TIME        TOTAL TIME
                                MAXIMUM       AVERAGE  MAXIMUM  AVERAGE  MAXIMUM
 CP2K                                 1  1.0    0.169    0.169 2795.489 2795.489
 qs_forces                            1  2.0    0.000    0.000 2793.331 2793.331
 qs_energies                          1  3.0    0.000    0.000 2792.624 2792.624
 scf_env_do_scf                       1  4.0    0.001    0.001 2790.241 2790.241
 scf_env_do_scf_inner_loop          300  5.0    0.066    0.066 2790.240 2790.240
 qs_scf_new_mos                     300  6.0    0.011    0.011 1977.610 1977.610
 eigensolver                        300  7.0    0.045    0.045 1947.115 1947.115
 cp_fm_syevd                        300  8.0 1266.921 1266.921 1268.598 1268.598
 cp_fm_cholesky_restore             900  8.0  677.410  677.410  677.410  677.410
 gspace_mixing                      299  6.0    6.781    6.781  452.787  452.787
 broyden_mixing                     299  7.0  408.506  408.506  408.510  408.510
 rebuild_ks_matrix                  301  7.0    0.001    0.001  185.603  185.603
 qs_ks_build_kohn_sham_matrix       301  8.0    0.076    0.076  185.602  185.602
 qs_ks_update_qs_env                300  6.0    0.003    0.003  185.310  185.310
 pw_transfer                       3912  9.9    0.323    0.323  180.428  180.428
 fft_wrap_pw1pw2                   3310 10.9    0.038    0.038  175.636  175.636
 qs_rho_update_rho                  301  6.0    0.002    0.002  173.597  173.597
 calculate_rho_elec                 301  7.0   82.509   82.509  173.595  173.595
 fft_wrap_pw1pw2_70                1504 11.2   18.310   18.310  161.831  161.831
 density_rs2pw                      301  8.0    0.026    0.026   88.506   88.506
 fft3d_s                           3311 12.9   80.856   80.856   80.889   80.889
 pw_scatter_s                      1804 13.2   61.076   61.076   61.076   61.076
 pw_poisson_solve                   301  9.0   53.624   53.624   58.199   58.199
 -------------------------------------------------------------------------------

 The number of warnings for this run is : 1
 
 -------------------------------------------------------------------------------
  **** **** ******  **  PROGRAM ENDED AT                 2021-02-25 21:48:16.551
 ***** ** ***  *** **   PROGRAM RAN ON                                   gnode75
 **    ****   ******    PROGRAM RAN BY                               mayank.modi
 ***** **    ** ** **   PROGRAM PROCESS ID                                 29664
  **** **  *******  **  PROGRAM STOPPED IN /home/mayank.modi/ab-initio-thermodyn
                                           amics-of-water/mayank/cp2k_energy_cal
                                           culations
