 DBCSR| CPU Multiplication driver                                           XSMM
 DBCSR| Multrec recursion limit                                              512
 DBCSR| Multiplication stack size                                           1000
 DBCSR| Maximum elements for images                                    UNLIMITED
 DBCSR| Multiplicative factor virtual images                                   1
 DBCSR| Use multiplication densification                                       T
 DBCSR| Multiplication size stacks                                             3


  **** **** ******  **  PROGRAM STARTED AT               2021-02-27 00:40:38.394
 ***** ** ***  *** **   PROGRAM STARTED ON                               gnode75
 **    ****   ******    PROGRAM STARTED BY                           mayank.modi
 ***** **    ** ** **   PROGRAM PROCESS ID                                  7123
  **** **  *******  **  PROGRAM STARTED IN /home/mayank.modi/ab-initio-thermodyn
                                           amics-of-water/mayank/cp2k_energy_cal
                                           culations

 CP2K| version string:                                          CP2K version 7.1
 CP2K| source code revision number:                                  git:e635599
 CP2K| cp2kflags: omp libint fftw3 libxc xsmm spglib                            
 CP2K| is freely available from                            https://www.cp2k.org/
 CP2K| Program compiled at                          Mon Dec 23 19:23:12 CET 2019
 CP2K| Program compiled on                                                pc9404
 CP2K| Program compiled for                                Linux-x86-64-gfortran
 CP2K| Data directory path                                        /opt/cp2k/data
 CP2K| Input file name                   input_training_correct_cell/input405.in

 GLOBAL| Force Environment number                                              1
 GLOBAL| Basis set file name                                           BASIS_SET
 GLOBAL| Potential file name                                      GTH_POTENTIALS
 GLOBAL| MM Potential file name                                     MM_POTENTIAL
 GLOBAL| Coordinate file name                                      __STD_INPUT__
 GLOBAL| Method name                                                        CP2K
 GLOBAL| Project name                                                   H2O_bulk
 GLOBAL| Preferred FFT library                                             FFTW3
 GLOBAL| Preferred diagonalization lib.                                       SL
 GLOBAL| Run type                                                   ENERGY_FORCE
 GLOBAL| All-to-all communication in single precision                          F
 GLOBAL| FFTs using library dependent lengths                                  F
 GLOBAL| Global print level                                                  LOW
 GLOBAL| MPI I/O enabled                                                       T
 GLOBAL| Total number of message passing processes                             1
 GLOBAL| Number of threads for this process                                   36
 GLOBAL| This output is from process                                           0
 GLOBAL| CPU model name                Intel(R) Xeon(R) CPU E5-2640 v4 @ 2.40GHz
 GLOBAL| CPUID                                                              1002
 GLOBAL| Compiled for CPUID                                                    0

 MEMORY| system memory details [Kb]
 MEMORY|                        rank 0           min           max       average
 MEMORY| MemTotal            131893432     131893432     131893432     131893432
 MEMORY| MemFree             123197028     123197028     123197028     123197028
 MEMORY| Buffers               1045172       1045172       1045172       1045172
 MEMORY| Cached                6256720       6256720       6256720       6256720
 MEMORY| Slab                   959872        959872        959872        959872
 MEMORY| SReclaimable           704712        704712        704712        704712
 MEMORY| MemLikelyFree       131203632     131203632     131203632     131203632


 GENERATE|  Preliminary Number of Bonds generated:                             0
 GENERATE|  Achieved consistency in connectivity generation.

 *******************************************************************************
 *******************************************************************************
 **                                                                           **
 **     #####                         ##              ##                      **
 **    ##   ##            ##          ##              ##                      **
 **   ##     ##                       ##            ######                    **
 **   ##     ##  ##   ##  ##   #####  ##  ##   ####   ##    #####    #####    **
 **   ##     ##  ##   ##  ##  ##      ## ##   ##      ##   ##   ##  ##   ##   **
 **   ##  ## ##  ##   ##  ##  ##      ####     ###    ##   ######   ######    **
 **    ##  ###   ##   ##  ##  ##      ## ##      ##   ##   ##       ##        **
 **     #######   #####   ##   #####  ##  ##  ####    ##    #####   ##        **
 **           ##                                                    ##        **
 **                                                                           **
 **                                                ... make the atoms dance   **
 **                                                                           **
 **            Copyright (C) by CP2K developers group (2000 - 2019)           **
 **                                                                           **
 *******************************************************************************


 TOTAL NUMBERS AND MAXIMUM NUMBERS

  Total number of            - Atomic kinds:                                   2
                             - Atoms:                                        192
                             - Shell sets:                                   384
                             - Shells:                                       704
                             - Primitive Cartesian functions:                960
                             - Cartesian basis functions:                   1536
                             - Spherical basis functions:                   1472

  Maximum angular momentum of- Orbital basis functions:                        2
                             - Local part of the GTH pseudopotential:          2
                             - Non-local part of the GTH pseudopotential:      0


 SCF PARAMETERS         Density guess:                                    ATOMIC
                        --------------------------------------------------------
                        max_scf:                                             300
                        max_scf_history:                                       0
                        max_diis:                                              4
                        --------------------------------------------------------
                        eps_scf:                                        1.00E-07
                        eps_scf_history:                                0.00E+00
                        eps_diis:                                       1.00E-01
                        eps_eigval:                                     1.00E-05
                        --------------------------------------------------------
                        level_shift [a.u.]:                                 0.00
                        --------------------------------------------------------
                        Mixing method:                            BROYDEN_MIXING
                                                charge density mixing in g-space
                        --------------------------------------------------------
                        No outer SCF

 Number of electrons:                                                        512
 Number of occupied orbitals:                                                256
 Number of molecular orbitals:                                               256

 Number of orbital functions:                                               1472
 Number of independent orbital functions:                                   1472

 Extrapolation method: initial_guess


 SCF WAVEFUNCTION OPTIMIZATION

  Step     Update method      Time    Convergence         Total energy    Change
  ------------------------------------------------------------------------------
     1 NoMix/Diag. 0.40E+00    7.6     0.60448611     -1064.3278867516 -1.06E+03
     2 Broy./Diag. 0.40E+00    8.7     1.21823494      -998.2848703078  6.60E+01
     3 Broy./Diag. 0.40E+00    8.9     0.63045302     -1254.4163539749 -2.56E+02
     4 Broy./Diag. 0.40E+00    9.0     0.12713145     -1096.3229459763  1.58E+02
     5 Broy./Diag. 0.40E+00    8.9     0.23890793     -1100.5893621196 -4.27E+00
     6 Broy./Diag. 0.40E+00    9.0     0.11569182     -1072.9778627035  2.76E+01
     7 Broy./Diag. 0.40E+00    9.2     0.03162326     -1075.2552339145 -2.28E+00
     8 Broy./Diag. 0.40E+00    9.4     0.02949520     -1078.7050253773 -3.45E+00
     9 Broy./Diag. 0.40E+00    9.9     0.01640955     -1076.4945631846  2.21E+00
    10 Broy./Diag. 0.40E+00   10.1     0.00494392     -1076.3883257687  1.06E-01
    11 Broy./Diag. 0.40E+00    9.9     0.00455225     -1076.7289110591 -3.41E-01
    12 Broy./Diag. 0.40E+00   10.1     0.00385612     -1076.5662278453  1.63E-01
    13 Broy./Diag. 0.40E+00    9.9     0.00114810     -1076.5177793001  4.84E-02
    14 Broy./Diag. 0.40E+00   10.1     0.00154028     -1076.5094827432  8.30E-03
    15 Broy./Diag. 0.40E+00   10.0     0.00139816     -1076.5143356620 -4.85E-03
    16 Broy./Diag. 0.40E+00    9.9     0.00052857     -1076.5387874530 -2.45E-02
    17 Broy./Diag. 0.40E+00   10.0     0.00067875     -1076.5643724614 -2.56E-02
    18 Broy./Diag. 0.40E+00   10.1     0.00038541     -1076.5569293365  7.44E-03
    19 Broy./Diag. 0.40E+00    9.9     0.00041265     -1076.5463379297  1.06E-02
    20 Broy./Diag. 0.40E+00    9.9     0.00044764     -1076.5519701032 -5.63E-03
    21 Broy./Diag. 0.40E+00    9.9     0.00028608     -1076.5400801934  1.19E-02
    22 Broy./Diag. 0.40E+00   10.0     0.00024151     -1076.5329798701  7.10E-03
    23 Broy./Diag. 0.40E+00    9.8     0.00022981     -1076.5500317906 -1.71E-02
    24 Broy./Diag. 0.40E+00   10.0     0.00018126     -1076.5489238651  1.11E-03
    25 Broy./Diag. 0.40E+00   10.1     0.00012151     -1076.5470823898  1.84E-03
    26 Broy./Diag. 0.40E+00   10.0     0.00009862     -1076.5465214171  5.61E-04
    27 Broy./Diag. 0.40E+00   10.0     0.00004117     -1076.5459321181  5.89E-04
    28 Broy./Diag. 0.40E+00   10.0     0.00005013     -1076.5445994868  1.33E-03
    29 Broy./Diag. 0.40E+00   10.0     0.00002442     -1076.5446706374 -7.12E-05
    30 Broy./Diag. 0.40E+00   10.0     0.00002825     -1076.5453906476 -7.20E-04
    31 Broy./Diag. 0.40E+00    9.6     0.00002861     -1076.5450409294  3.50E-04
    32 Broy./Diag. 0.40E+00   10.2     0.00001712     -1076.5452073686 -1.66E-04
    33 Broy./Diag. 0.40E+00   10.1     0.00001942     -1076.5463383750 -1.13E-03
    34 Broy./Diag. 0.40E+00    9.8     0.00002251     -1076.5455529393  7.85E-04
    35 Broy./Diag. 0.40E+00    9.9     0.00001495     -1076.5452888926  2.64E-04
    36 Broy./Diag. 0.40E+00   10.2     0.00001390     -1076.5453410699 -5.22E-05
    37 Broy./Diag. 0.40E+00   10.0     0.00000571     -1076.5453126693  2.84E-05
    38 Broy./Diag. 0.40E+00    9.9     0.00000708     -1076.5451490905  1.64E-04
    39 Broy./Diag. 0.40E+00   10.1     0.00000396     -1076.5452915185 -1.42E-04
    40 Broy./Diag. 0.40E+00   10.0     0.00000572     -1076.5454550070 -1.63E-04
    41 Broy./Diag. 0.40E+00   10.1     0.00000493     -1076.5453883986  6.66E-05
    42 Broy./Diag. 0.40E+00   10.2     0.00000226     -1076.5453973140 -8.92E-06
    43 Broy./Diag. 0.40E+00   10.1     0.00000345     -1076.5454646689 -6.74E-05
    44 Broy./Diag. 0.40E+00    9.9     0.00000378     -1076.5452683856  1.96E-04
    45 Broy./Diag. 0.40E+00   10.1     0.00000265     -1076.5452667202  1.67E-06
    46 Broy./Diag. 0.40E+00   10.1     0.00000200     -1076.5453098372 -4.31E-05
    47 Broy./Diag. 0.40E+00   10.0     0.00000092     -1076.5453216398 -1.18E-05
    48 Broy./Diag. 0.40E+00    9.9     0.00000109     -1076.5453239868 -2.35E-06
    49 Broy./Diag. 0.40E+00   10.1     0.00000120     -1076.5453662451 -4.23E-05
    50 Broy./Diag. 0.40E+00   10.1     0.00000063     -1076.5453898838 -2.36E-05
    51 Broy./Diag. 0.40E+00   10.1     0.00000061     -1076.5453760372  1.38E-05
    52 Broy./Diag. 0.40E+00   10.2     0.00000032     -1076.5453739812  2.06E-06
    53 Broy./Diag. 0.40E+00   10.1     0.00000023     -1076.5453695713  4.41E-06
    54 Broy./Diag. 0.40E+00    9.9     0.00000028     -1076.5453501071  1.95E-05
    55 Broy./Diag. 0.40E+00   10.1     0.00000023     -1076.5453569452 -6.84E-06
    56 Broy./Diag. 0.40E+00   10.2     0.00000012     -1076.5453623290 -5.38E-06
    57 Broy./Diag. 0.40E+00   10.1     0.00000008     -1076.5453624034 -7.44E-08

  *** SCF run converged in    57 steps ***


  Electronic density on regular grids:       -512.0002596083       -0.0002596083
  Core density on regular grids:              512.0002295667        0.0002295667
  Total charge density on r-space grids:       -0.0000300416
  Total charge density g-space grids:          -0.0000300416

  Overlap energy of the core charge distribution:               0.00000000000000
  Self energy of the core charge distribution:              -2838.21791979120962
  Core Hamiltonian energy:                                    759.79016080451754
  Hartree energy:                                            1240.77929993930752
  Exchange-correlation energy:                               -238.89690335602225

  Total energy:                                             -1076.54536240340667

 ENERGY| Total FORCE_EVAL ( QS ) energy (a.u.):            -1076.545363365315325


 ATOMIC FORCES in [a.u.]

 # Atom   Kind   Element          X              Y              Z
      1      1      O           0.06734360    -0.03403845     0.03036042
      2      2      H          -0.02790213    -0.02721066    -0.04791475
      3      2      H           0.00612284     0.08338657     0.00425358
      4      1      O           0.08081107     0.01744160     0.02450845
      5      2      H          -0.08359459     0.02180924     0.02517649
      6      2      H           0.01739842    -0.07112049     0.00989091
      7      1      O          -0.05605570    -0.02268707    -0.13049092
      8      2      H           0.02514932     0.06562244     0.07700073
      9      2      H           0.00112943    -0.08009308     0.03945441
     10      1      O          -0.06023832     0.02353816    -0.09773749
     11      2      H           0.00509650    -0.00832656     0.05322542
     12      2      H           0.06463560    -0.02337453    -0.02327217
     13      1      O           0.11501943     0.01834794    -0.00876073
     14      2      H          -0.04344404    -0.07363820    -0.02658038
     15      2      H          -0.05854838     0.02970881     0.07191113
     16      1      O          -0.14029626    -0.04196384    -0.02505324
     17      2      H           0.01683442     0.03439018    -0.05282212
     18      2      H           0.05014711    -0.04708006     0.01913513
     19      1      O          -0.01209269     0.12198777     0.11351051
     20      2      H           0.04824728    -0.03144891    -0.04876415
     21      2      H          -0.06776972    -0.06796076     0.01499501
     22      1      O           0.02923136     0.11688461    -0.01201900
     23      2      H           0.03146018     0.02787105     0.06838274
     24      2      H          -0.00547351    -0.06249898    -0.03080520
     25      1      O          -0.13621842    -0.04067206     0.00601286
     26      2      H           0.07936550     0.03953299    -0.06534440
     27      2      H           0.03037204     0.00346708     0.07264638
     28      1      O          -0.05289626    -0.06895698     0.09365392
     29      2      H           0.04833514     0.02473008     0.00009938
     30      2      H          -0.00033955     0.02628726    -0.04427122
     31      1      O           0.03548961     0.13083547    -0.03576511
     32      2      H          -0.09625413    -0.00634526    -0.00411639
     33      2      H           0.08084083    -0.03513227     0.03851039
     34      1      O          -0.01442585    -0.01859380     0.09092005
     35      2      H          -0.00687203     0.07852935     0.01556236
     36      2      H          -0.01365836    -0.00640237    -0.06650137
     37      1      O          -0.02425040     0.00999400     0.06123630
     38      2      H           0.02159165    -0.01475093    -0.04031758
     39      2      H          -0.06084236    -0.03314902    -0.02115261
     40      1      O           0.10379375    -0.05362376    -0.03396378
     41      2      H          -0.04726318    -0.05677884     0.04980047
     42      2      H          -0.04380475     0.04970377    -0.01910722
     43      1      O          -0.07293821     0.12320542     0.07715336
     44      2      H           0.03557168    -0.08884079     0.00658246
     45      2      H          -0.01532035    -0.00716103    -0.05893536
     46      1      O           0.02017048     0.00540924     0.11966669
     47      2      H           0.01538400    -0.09100979    -0.01548133
     48      2      H           0.01482407     0.04897413    -0.05761138
     49      1      O           0.10984975    -0.01685893     0.08061991
     50      2      H           0.00918184    -0.04730105    -0.08325220
     51      2      H          -0.00198582     0.07402325     0.00191190
     52      1      O           0.01914618     0.02661082    -0.01872053
     53      2      H           0.06475225     0.04091242    -0.01249005
     54      2      H           0.00972219    -0.06769691     0.08517922
     55      1      O           0.01799861     0.04258839     0.00093925
     56      2      H           0.02106030    -0.06323776     0.02243202
     57      2      H          -0.09096776     0.03547508    -0.00927203
     58      1      O           0.00197820    -0.13223646     0.07533427
     59      2      H           0.00095834     0.01497105    -0.05783048
     60      2      H          -0.02506737     0.08418733     0.03690339
     61      1      O           0.08309709     0.02288945    -0.00866031
     62      2      H          -0.02700728     0.04152975     0.05806081
     63      2      H          -0.03365321    -0.05220340    -0.01800629
     64      1      O           0.10667361    -0.09788148     0.10296475
     65      2      H          -0.05236656     0.05365146    -0.00666122
     66      2      H           0.00880465    -0.00041963    -0.08725494
     67      1      O           0.02312421     0.00918173     0.03519740
     68      2      H          -0.07890625     0.02100525     0.02781128
     69      2      H           0.00216630    -0.04953399    -0.05507901
     70      1      O           0.02906884     0.09698667     0.11511404
     71      2      H          -0.03943162    -0.03584854    -0.02901332
     72      2      H           0.08289182     0.01402362    -0.05143940
     73      1      O          -0.03059063     0.06821364     0.01642168
     74      2      H           0.04633144    -0.04381329    -0.08809690
     75      2      H          -0.06436484    -0.03099927     0.04368616
     76      1      O          -0.11244162     0.04888117    -0.01522820
     77      2      H           0.03983369    -0.04413734     0.07280273
     78      2      H           0.01274906    -0.04568440    -0.08076600
     79      1      O          -0.08159419     0.08190214     0.08376807
     80      2      H           0.06310514     0.03124505    -0.05171201
     81      2      H           0.00350255    -0.05563898    -0.01533077
     82      1      O           0.00516861     0.07503054     0.02451336
     83      2      H           0.04299673    -0.05830223     0.06011282
     84      2      H          -0.08308155    -0.04372260    -0.07180915
     85      1      O          -0.00607634     0.00184842     0.05394556
     86      2      H           0.00336440     0.04645553    -0.00865675
     87      2      H          -0.01267898    -0.03973679    -0.03085177
     88      1      O           0.10450488     0.07237326    -0.07237530
     89      2      H           0.00133815    -0.05052119     0.01442700
     90      2      H          -0.09496657    -0.02987098    -0.01027559
     91      1      O           0.07032303     0.06748510    -0.06911769
     92      2      H           0.00510781    -0.05013549    -0.00894975
     93      2      H          -0.06958196     0.02720105     0.06309094
     94      1      O           0.03981687    -0.10297904    -0.03072703
     95      2      H           0.04836331    -0.04669028     0.07318307
     96      2      H          -0.02361573     0.04870569     0.04199210
     97      1      O           0.08318216     0.08178109     0.03916812
     98      2      H           0.02494669     0.00862098    -0.05497654
     99      2      H          -0.05879732    -0.06362496     0.01332883
    100      1      O          -0.09000332     0.07961468    -0.00927689
    101      2      H           0.09708910     0.02261905    -0.02102630
    102      2      H          -0.01330220    -0.03427848     0.10296150
    103      1      O          -0.01673737     0.00134909    -0.10169364
    104      2      H          -0.02187893    -0.06258062     0.09355677
    105      2      H           0.05943507     0.03209388     0.01804626
    106      1      O          -0.01716754    -0.02646723    -0.06394798
    107      2      H          -0.08315068     0.05435698    -0.04862793
    108      2      H           0.01422808     0.02792030     0.06353598
    109      1      O          -0.04666815     0.08690682     0.12219925
    110      2      H          -0.00784161     0.03029681    -0.08381635
    111      2      H           0.02541370    -0.05975636    -0.02348563
    112      1      O           0.13172205    -0.04611252    -0.01792170
    113      2      H          -0.00857011     0.00277946    -0.05482108
    114      2      H          -0.02189095     0.05304456     0.04505061
    115      1      O           0.10150003     0.04067938     0.04232414
    116      2      H          -0.05364497    -0.08427666    -0.00241696
    117      2      H          -0.04248701     0.07029863    -0.00423937
    118      1      O          -0.02015428    -0.08238756     0.02322150
    119      2      H           0.00586131     0.05201297    -0.02237860
    120      2      H           0.01574056    -0.05743322    -0.07028631
    121      1      O          -0.04690364    -0.07800906     0.02828838
    122      2      H          -0.00479263     0.05322086    -0.00718862
    123      2      H           0.05819801     0.00577331    -0.06566832
    124      1      O           0.02995988    -0.00784521    -0.05829716
    125      2      H          -0.04304069    -0.08630364     0.03710949
    126      2      H          -0.08384755     0.04836389    -0.06091672
    127      1      O          -0.10242101     0.05491978     0.02387619
    128      2      H          -0.01223326    -0.08898182    -0.03412440
    129      2      H           0.08382101    -0.02933033     0.01870836
    130      1      O          -0.01952199    -0.09232291     0.09682874
    131      2      H          -0.06441028     0.08061213    -0.00258218
    132      2      H          -0.02926723    -0.04912998    -0.04746244
    133      1      O          -0.06347982    -0.05550286     0.02874105
    134      2      H           0.03365236     0.09724268    -0.01185220
    135      2      H          -0.02114946    -0.04377726    -0.08437044
    136      1      O           0.07944169    -0.08770720     0.03532944
    137      2      H           0.01442978     0.05099552     0.03092488
    138      2      H          -0.07822908    -0.03518096    -0.00830141
    139      1      O          -0.00670880    -0.03955847     0.11158948
    140      2      H          -0.05183098     0.01319744    -0.06028252
    141      2      H           0.06286160     0.06596727    -0.02650877
    142      1      O          -0.05901634    -0.03161143    -0.01553221
    143      2      H           0.03581588     0.04926598     0.03214613
    144      2      H           0.03853371     0.02882673    -0.08303059
    145      1      O          -0.03510801     0.02744285    -0.00246508
    146      2      H           0.04350457    -0.05330994    -0.06050343
    147      2      H           0.01671621     0.00608912     0.05988013
    148      1      O           0.01235849    -0.01519400     0.08947444
    149      2      H          -0.02426150     0.03721599    -0.04279233
    150      2      H          -0.05590111    -0.08816586     0.03778835
    151      1      O          -0.03954724    -0.01470159    -0.04769536
    152      2      H           0.01672265    -0.04014879     0.06698843
    153      2      H          -0.03499167     0.09987238     0.03576297
    154      1      O          -0.03983490     0.03652612    -0.03152305
    155      2      H           0.04989887    -0.04929726    -0.06740833
    156      2      H          -0.05832755    -0.03896116     0.04648352
    157      1      O           0.02023996     0.11856414     0.04990615
    158      2      H          -0.02821539    -0.08680719    -0.03178538
    159      2      H           0.09536790    -0.02957882    -0.01412520
    160      1      O           0.00748361     0.08273045    -0.12228973
    161      2      H          -0.07390193    -0.03189266     0.00908138
    162      2      H           0.01848583    -0.05444492     0.04595182
    163      1      O           0.00282030     0.07279770    -0.05895919
    164      2      H          -0.06242392    -0.00623521    -0.03676973
    165      2      H           0.01264010    -0.07950098     0.07261051
    166      1      O          -0.02230508    -0.00267972    -0.10121968
    167      2      H          -0.02643638     0.05384504     0.02457986
    168      2      H          -0.02780152    -0.10128110     0.00746145
    169      1      O          -0.03639993     0.07941368     0.02880061
    170      2      H           0.04327808    -0.02201195    -0.02410131
    171      2      H          -0.02811761    -0.03014338     0.00277569
    172      1      O           0.03719416     0.03131335    -0.11207305
    173      2      H          -0.04659029    -0.09144338     0.01610263
    174      2      H           0.03438863     0.03118383     0.05013571
    175      1      O           0.08979703    -0.05640283    -0.07106825
    176      2      H           0.02683306     0.06684470     0.03912031
    177      2      H          -0.08362027     0.03115508    -0.01833327
    178      1      O          -0.06861556     0.01764045     0.10641854
    179      2      H           0.06357208    -0.04524899    -0.02197457
    180      2      H          -0.06112727    -0.02195549    -0.06797809
    181      1      O          -0.04940281    -0.07262501     0.09549607
    182      2      H          -0.03183743     0.04105574    -0.00612532
    183      2      H           0.09149052    -0.00862617    -0.04666588
    184      1      O          -0.00619963     0.11219434    -0.09190356
    185      2      H           0.00370957    -0.01798532     0.05995456
    186      2      H           0.04000779    -0.03939680     0.00843381
    187      1      O           0.02062122     0.03060828     0.05242504
    188      2      H           0.02884028    -0.07559142     0.03633659
    189      2      H          -0.02357463     0.00136045    -0.06758936
    190      1      O           0.06600707    -0.11757246     0.00511711
    191      2      H          -0.04447113    -0.03506739    -0.07655348
    192      2      H           0.04892306     0.08117102     0.00358770
 SUM OF ATOMIC FORCES          -0.25895852    -0.38593699     0.10636926     0.47678223

 -------------------------------------------------------------------------------
 -                                                                             -
 -                                DBCSR STATISTICS                             -
 -                                                                             -
 -------------------------------------------------------------------------------
 COUNTER                                    TOTAL       BLAS       SMM       ACC
 flops     5 x     5 x   256            795110400       0.0%    100.0%      0.0%
 flops     5 x    13 x   256            951608320       0.0%    100.0%      0.0%
 flops    13 x     5 x   256           1019166720       0.0%    100.0%      0.0%
 flops    13 x    13 x   256           1334953984       0.0%    100.0%      0.0%
 flops inhomo. stacks                           0       0.0%      0.0%      0.0%
 flops total                         4.100839E+09       0.0%    100.0%      0.0%
 flops max/rank                      4.100839E+09       0.0%    100.0%      0.0%
 matmuls inhomo. stacks                         0       0.0%      0.0%      0.0%
 matmuls total                             136764       0.0%    100.0%      0.0%
 number of processed stacks                  8120       0.0%    100.0%      0.0%
 average stack size                                     0.0      16.8       0.0
 marketing flops                    64.344818E+09
 -------------------------------------------------------------------------------
 # multiplications                             58
 max memory usage/rank               6.029996E+09
 # max total images/rank                        1
 # max 3D layers                                1
 # MPI messages exchanged                       0
 MPI messages size (bytes):
  total size                         0.000000E+00
  min size                           0.000000E+00
  max size                           0.000000E+00
  average size                       0.000000E+00
 MPI breakdown and total messages size (bytes):
             size <=      128                   0                        0
       128 < size <=     8192                   0                        0
      8192 < size <=    32768                   0                        0
     32768 < size <=   131072                   0                        0
    131072 < size <=  4194304                   0                        0
   4194304 < size <= 16777216                   0                        0
  16777216 < size                               0                        0
 -------------------------------------------------------------------------------

 MEMORY| Estimated peak process memory [MiB]                                5745

 -------------------------------------------------------------------------------
 -                                                                             -
 -                           R E F E R E N C E S                               -
 -                                                                             -
 -------------------------------------------------------------------------------
 
 CP2K version 7.1, the CP2K developers group (2019).
 CP2K is freely available from https://www.cp2k.org/ .

 Schuett, Ole; Messmer, Peter; Hutter, Juerg; VandeVondele, Joost. 
 Electronic Structure Calculations on Graphics Processing Units, John
 Wiley & Sons, Ltd, 173-190 (2016). 
 GPU-Accelerated Sparse Matrix-Matrix Multiplication for
 Linear Scaling Density Functional Theory.
 https://dx.doi.org/10.1002/9781118670712.ch8

 Borstnik, U; VandeVondele, J; Weber, V; Hutter, J. 
 PARALLEL COMPUTING, 40 (5-6), 47-58 (2014). 
 Sparse matrix multiplication: The distributed block-compressed sparse
 row library.
 https://dx.doi.org/10.1016/j.parco.2014.03.012

 Hutter, J; Iannuzzi, M; Schiffmann, F; VandeVondele, J. 
 WIREs Comput Mol Sci., 4 (1), 15-25 (2014). 
 CP2K: atomistic simulations of condensed matter systems.
 https://dx.doi.org/10.1002/wcms.1159

 Krack, M. 
 THEORETICAL CHEMISTRY ACCOUNTS, 114 (1-3), 145-152 (2005). 
 Pseudopotentials for H to Kr optimized for gradient-corrected
 exchange-correlation functionals.
 https://dx.doi.org/10.1007/s00214-005-0655-y

 VandeVondele, J; Krack, M; Mohamed, F; Parrinello, M; Chassaing, T;
 Hutter, J. COMPUTER PHYSICS COMMUNICATIONS, 167 (2), 103-128 (2005). 
 QUICKSTEP: Fast and accurate density functional calculations using a
 mixed Gaussian and plane waves approach.
 https://dx.doi.org/10.1016/j.cpc.2004.12.014

 Frigo, M; Johnson, SG. 
 PROCEEDINGS OF THE IEEE, 93 (2), 216-231 (2005). 
 The design and implementation of FFTW3.
 https://dx.doi.org/10.1109/JPROC.2004.840301

 Hartwigsen, C; Goedecker, S; Hutter, J. 
 PHYSICAL REVIEW B, 58 (7), 3641-3662 (1998). 
 Relativistic separable dual-space Gaussian pseudopotentials from H to Rn.
 https://dx.doi.org/10.1103/PhysRevB.58.3641

 Lippert, G; Hutter, J; Parrinello, M. 
 MOLECULAR PHYSICS, 92 (3), 477-487 (1997). 
 A hybrid Gaussian and plane wave density functional scheme.
 https://dx.doi.org/10.1080/002689797170220

 Goedecker, S; Teter, M; Hutter, J. 
 PHYSICAL REVIEW B, 54 (3), 1703-1710 (1996). 
 Separable dual-space Gaussian pseudopotentials.
 https://dx.doi.org/10.1103/PhysRevB.54.1703


 -------------------------------------------------------------------------------
 -                                                                             -
 -                                T I M I N G                                  -
 -                                                                             -
 -------------------------------------------------------------------------------
 SUBROUTINE                       CALLS  ASD         SELF TIME        TOTAL TIME
                                MAXIMUM       AVERAGE  MAXIMUM  AVERAGE  MAXIMUM
 CP2K                                 1  1.0    0.190    0.190  568.179  568.179
 qs_forces                            1  2.0    0.000    0.000  565.710  565.710
 qs_energies                          1  3.0    0.000    0.000  564.811  564.811
 scf_env_do_scf                       1  4.0    0.000    0.000  562.009  562.009
 scf_env_do_scf_inner_loop           57  5.0    0.013    0.013  562.009  562.009
 qs_scf_new_mos                      57  6.0    0.002    0.002  376.208  376.208
 eigensolver                         57  7.0    0.010    0.010  370.084  370.084
 cp_fm_syevd                         57  8.0  243.480  243.480  243.839  243.839
 cp_fm_cholesky_restore             171  8.0  126.036  126.036  126.036  126.036
 gspace_mixing                       56  6.0    1.505    1.505  101.879  101.879
 broyden_mixing                      56  7.0   91.655   91.655   91.656   91.656
 rebuild_ks_matrix                   58  6.9    0.000    0.000   43.766   43.766
 qs_ks_build_kohn_sham_matrix        58  7.9    0.014    0.014   43.766   43.766
 qs_ks_update_qs_env                 57  6.0    0.001    0.001   43.000   43.000
 pw_transfer                        753  9.9    0.067    0.067   42.734   42.734
 fft_wrap_pw1pw2                    637 10.9    0.007    0.007   41.554   41.554
 qs_rho_update_rho                   58  6.0    0.000    0.000   41.292   41.292
 calculate_rho_elec                  58  7.0   19.466   19.466   41.292   41.292
 fft_wrap_pw1pw2_70                 289 11.2    4.118    4.118   38.468   38.468
 density_rs2pw                       58  8.0    0.006    0.006   21.252   21.252
 fft3d_s                            638 12.9   19.571   19.571   19.582   19.582
 pw_scatter_s                       346 13.2   14.177   14.177   14.177   14.177
 pw_poisson_solve                    58  8.9   12.528   12.528   13.708   13.708
 sum_up_and_integrate                58  8.9    0.732    0.732   12.172   12.172
 integrate_v_rspace                  58  9.9    1.437    1.437   11.440   11.440
 -------------------------------------------------------------------------------

 The number of warnings for this run is : 0
 
 -------------------------------------------------------------------------------
  **** **** ******  **  PROGRAM ENDED AT                 2021-02-27 00:50:06.757
 ***** ** ***  *** **   PROGRAM RAN ON                                   gnode75
 **    ****   ******    PROGRAM RAN BY                               mayank.modi
 ***** **    ** ** **   PROGRAM PROCESS ID                                  7123
  **** **  *******  **  PROGRAM STOPPED IN /home/mayank.modi/ab-initio-thermodyn
                                           amics-of-water/mayank/cp2k_energy_cal
                                           culations
