 DBCSR| CPU Multiplication driver                                           XSMM
 DBCSR| Multrec recursion limit                                              512
 DBCSR| Multiplication stack size                                           1000
 DBCSR| Maximum elements for images                                    UNLIMITED
 DBCSR| Multiplicative factor virtual images                                   1
 DBCSR| Use multiplication densification                                       T
 DBCSR| Multiplication size stacks                                             3


  **** **** ******  **  PROGRAM STARTED AT               2021-01-13 07:22:55.722
 ***** ** ***  *** **   PROGRAM STARTED ON                               gnode23
 **    ****   ******    PROGRAM STARTED BY                           mayank.modi
 ***** **    ** ** **   PROGRAM PROCESS ID                                 10014
  **** **  *******  **  PROGRAM STARTED IN /home/mayank.modi/ab-initio-thermodyn
                                           amics-of-water/mayank/cp2k_energy_cal
                                           culations

 CP2K| version string:                                          CP2K version 7.1
 CP2K| source code revision number:                                  git:e635599
 CP2K| cp2kflags: omp libint fftw3 libxc xsmm spglib                            
 CP2K| is freely available from                            https://www.cp2k.org/
 CP2K| Program compiled at                          Mon Dec 23 19:23:12 CET 2019
 CP2K| Program compiled on                                                pc9404
 CP2K| Program compiled for                                Linux-x86-64-gfortran
 CP2K| Data directory path                                        /opt/cp2k/data
 CP2K| Input file name                   input_training_correct_cell/input408.in

 GLOBAL| Force Environment number                                              1
 GLOBAL| Basis set file name                                           BASIS_SET
 GLOBAL| Potential file name                                      GTH_POTENTIALS
 GLOBAL| MM Potential file name                                     MM_POTENTIAL
 GLOBAL| Coordinate file name                                      __STD_INPUT__
 GLOBAL| Method name                                                        CP2K
 GLOBAL| Project name                                                   H2O_bulk
 GLOBAL| Preferred FFT library                                             FFTW3
 GLOBAL| Preferred diagonalization lib.                                       SL
 GLOBAL| Run type                                                   ENERGY_FORCE
 GLOBAL| All-to-all communication in single precision                          F
 GLOBAL| FFTs using library dependent lengths                                  F
 GLOBAL| Global print level                                                  LOW
 GLOBAL| MPI I/O enabled                                                       T
 GLOBAL| Total number of message passing processes                             1
 GLOBAL| Number of threads for this process                                   36
 GLOBAL| This output is from process                                           0
 GLOBAL| CPU model name                Intel(R) Xeon(R) CPU E5-2640 v4 @ 2.40GHz
 GLOBAL| CPUID                                                              1002
 GLOBAL| Compiled for CPUID                                                    0

 MEMORY| system memory details [Kb]
 MEMORY|                        rank 0           min           max       average
 MEMORY| MemTotal            131897972     131897972     131897972     131897972
 MEMORY| MemFree             125518180     125518180     125518180     125518180
 MEMORY| Buffers               1900824       1900824       1900824       1900824
 MEMORY| Cached                1392336       1392336       1392336       1392336
 MEMORY| Slab                  2616888       2616888       2616888       2616888
 MEMORY| SReclaimable          1584244       1584244       1584244       1584244
 MEMORY| MemLikelyFree       130395584     130395584     130395584     130395584


 GENERATE|  Preliminary Number of Bonds generated:                             0
 GENERATE|  Achieved consistency in connectivity generation.

 *******************************************************************************
 *******************************************************************************
 **                                                                           **
 **     #####                         ##              ##                      **
 **    ##   ##            ##          ##              ##                      **
 **   ##     ##                       ##            ######                    **
 **   ##     ##  ##   ##  ##   #####  ##  ##   ####   ##    #####    #####    **
 **   ##     ##  ##   ##  ##  ##      ## ##   ##      ##   ##   ##  ##   ##   **
 **   ##  ## ##  ##   ##  ##  ##      ####     ###    ##   ######   ######    **
 **    ##  ###   ##   ##  ##  ##      ## ##      ##   ##   ##       ##        **
 **     #######   #####   ##   #####  ##  ##  ####    ##    #####   ##        **
 **           ##                                                    ##        **
 **                                                                           **
 **                                                ... make the atoms dance   **
 **                                                                           **
 **            Copyright (C) by CP2K developers group (2000 - 2019)           **
 **                                                                           **
 *******************************************************************************


 TOTAL NUMBERS AND MAXIMUM NUMBERS

  Total number of            - Atomic kinds:                                   2
                             - Atoms:                                        192
                             - Shell sets:                                   384
                             - Shells:                                       704
                             - Primitive Cartesian functions:                960
                             - Cartesian basis functions:                   1536
                             - Spherical basis functions:                   1472

  Maximum angular momentum of- Orbital basis functions:                        2
                             - Local part of the GTH pseudopotential:          2
                             - Non-local part of the GTH pseudopotential:      0


 SCF PARAMETERS         Density guess:                                    ATOMIC
                        --------------------------------------------------------
                        max_scf:                                             300
                        max_scf_history:                                       0
                        max_diis:                                              4
                        --------------------------------------------------------
                        eps_scf:                                        1.00E-07
                        eps_scf_history:                                0.00E+00
                        eps_diis:                                       1.00E-01
                        eps_eigval:                                     1.00E-05
                        --------------------------------------------------------
                        level_shift [a.u.]:                                 0.00
                        --------------------------------------------------------
                        Mixing method:                            BROYDEN_MIXING
                                                charge density mixing in g-space
                        --------------------------------------------------------
                        No outer SCF

 Number of electrons:                                                        512
 Number of occupied orbitals:                                                256
 Number of molecular orbitals:                                               256

 Number of orbital functions:                                               1472
 Number of independent orbital functions:                                   1472

 Extrapolation method: initial_guess


 SCF WAVEFUNCTION OPTIMIZATION

  Step     Update method      Time    Convergence         Total energy    Change
  ------------------------------------------------------------------------------
     1 NoMix/Diag. 0.40E+00    7.3     0.59162772     -1064.3640431752 -1.06E+03
     2 Broy./Diag. 0.40E+00    8.0     1.21113263      -998.3179274355  6.60E+01
     3 Broy./Diag. 0.40E+00    8.3     0.65603875     -1254.7239639581 -2.56E+02
     4 Broy./Diag. 0.40E+00    8.7     0.25231997     -1096.4227136117  1.58E+02
     5 Broy./Diag. 0.40E+00    8.9     0.56038635     -1101.0256881321 -4.60E+00
     6 Broy./Diag. 0.40E+00    8.9     0.34211614     -1075.1493748368  2.59E+01
     7 Broy./Diag. 0.40E+00    9.3     0.04031266     -1074.7639243657  3.85E-01
     8 Broy./Diag. 0.40E+00    9.7     0.03704468     -1078.6120898398 -3.85E+00
     9 Broy./Diag. 0.40E+00    9.8     0.02942331     -1077.3097704433  1.30E+00
    10 Broy./Diag. 0.40E+00    9.9     0.00862652     -1076.3856613491  9.24E-01
    11 Broy./Diag. 0.40E+00    9.9     0.00790473     -1076.7923318906 -4.07E-01
    12 Broy./Diag. 0.40E+00   10.1     0.00402911     -1076.7204913044  7.18E-02
    13 Broy./Diag. 0.40E+00   10.3     0.00224475     -1076.5469092180  1.74E-01
    14 Broy./Diag. 0.40E+00    9.9     0.00238210     -1076.5220596217  2.48E-02
    15 Broy./Diag. 0.40E+00   10.1     0.00081569     -1076.5126734451  9.39E-03
    16 Broy./Diag. 0.40E+00    9.9     0.00130915     -1076.5479650285 -3.53E-02
    17 Broy./Diag. 0.40E+00    9.8     0.00117733     -1076.5816754102 -3.37E-02
    18 Broy./Diag. 0.40E+00   10.2     0.00069780     -1076.5999403910 -1.83E-02
    19 Broy./Diag. 0.40E+00   10.2     0.00125592     -1076.5906636349  9.28E-03
    20 Broy./Diag. 0.40E+00   10.0     0.00134387     -1076.5570860508  3.36E-02
    21 Broy./Diag. 0.40E+00   10.1     0.00109323     -1076.5966072419 -3.95E-02
    22 Broy./Diag. 0.40E+00   10.0     0.00050256     -1076.5853452347  1.13E-02
    23 Broy./Diag. 0.40E+00    9.9     0.00028829     -1076.5641955672  2.11E-02
    24 Broy./Diag. 0.40E+00   10.1     0.00025403     -1076.5692574570 -5.06E-03
    25 Broy./Diag. 0.40E+00   10.1     0.00006614     -1076.5802956827 -1.10E-02
    26 Broy./Diag. 0.40E+00   10.0     0.00006544     -1076.5808359996 -5.40E-04
    27 Broy./Diag. 0.40E+00   10.0     0.00008129     -1076.5811955462 -3.60E-04
    28 Broy./Diag. 0.40E+00   10.0     0.00004831     -1076.5799245642  1.27E-03
    29 Broy./Diag. 0.40E+00   10.1     0.00005226     -1076.5778987111  2.03E-03
    30 Broy./Diag. 0.40E+00   10.0     0.00005817     -1076.5777618787  1.37E-04
    31 Broy./Diag. 0.40E+00   10.0     0.00005845     -1076.5796187267 -1.86E-03
    32 Broy./Diag. 0.40E+00   10.0     0.00002167     -1076.5787334211  8.85E-04
    33 Broy./Diag. 0.40E+00    9.8     0.00001885     -1076.5778524763  8.81E-04
    34 Broy./Diag. 0.40E+00   10.0     0.00001852     -1076.5789581754 -1.11E-03
    35 Broy./Diag. 0.40E+00   10.1     0.00001102     -1076.5791411135 -1.83E-04
    36 Broy./Diag. 0.40E+00   10.0     0.00001601     -1076.5786536236  4.87E-04
    37 Broy./Diag. 0.40E+00    9.9     0.00001959     -1076.5786001290  5.35E-05
    38 Broy./Diag. 0.40E+00   10.0     0.00000847     -1076.5785720299  2.81E-05
    39 Broy./Diag. 0.40E+00   10.0     0.00000853     -1076.5785125539  5.95E-05
    40 Broy./Diag. 0.40E+00   10.3     0.00000522     -1076.5785317284 -1.92E-05
    41 Broy./Diag. 0.40E+00   10.1     0.00000351     -1076.5786197265 -8.80E-05
    42 Broy./Diag. 0.40E+00   10.0     0.00000191     -1076.5786762464 -5.65E-05
    43 Broy./Diag. 0.40E+00    9.9     0.00000178     -1076.5785424545  1.34E-04
    44 Broy./Diag. 0.40E+00   10.1     0.00000180     -1076.5786825844 -1.40E-04
    45 Broy./Diag. 0.40E+00   10.0     0.00000181     -1076.5786567236  2.59E-05
    46 Broy./Diag. 0.40E+00   10.0     0.00000137     -1076.5785890598  6.77E-05
    47 Broy./Diag. 0.40E+00    9.8     0.00000112     -1076.5785880896  9.70E-07
    48 Broy./Diag. 0.40E+00   10.0     0.00000080     -1076.5786086775 -2.06E-05
    49 Broy./Diag. 0.40E+00   10.0     0.00000097     -1076.5785993778  9.30E-06
    50 Broy./Diag. 0.40E+00   10.1     0.00000066     -1076.5786095966 -1.02E-05
    51 Broy./Diag. 0.40E+00   10.1     0.00000048     -1076.5786203875 -1.08E-05
    52 Broy./Diag. 0.40E+00   10.1     0.00000032     -1076.5786228017 -2.41E-06
    53 Broy./Diag. 0.40E+00   10.4     0.00000022     -1076.5786081716  1.46E-05
    54 Broy./Diag. 0.40E+00   10.1     0.00000019     -1076.5786192561 -1.11E-05
    55 Broy./Diag. 0.40E+00    9.9     0.00000023     -1076.5786172546  2.00E-06
    56 Broy./Diag. 0.40E+00   10.1     0.00000014     -1076.5786102540  7.00E-06
    57 Broy./Diag. 0.40E+00   10.0     0.00000008     -1076.5786129347 -2.68E-06

  *** SCF run converged in    57 steps ***


  Electronic density on regular grids:       -512.0005055724       -0.0005055724
  Core density on regular grids:              512.0001087494        0.0001087494
  Total charge density on r-space grids:       -0.0003968230
  Total charge density g-space grids:          -0.0003968230

  Overlap energy of the core charge distribution:               0.00000000000000
  Self energy of the core charge distribution:              -2838.21791979120962
  Core Hamiltonian energy:                                    759.73111646511450
  Hartree energy:                                            1240.77461548513543
  Exchange-correlation energy:                               -238.86642509371043

  Total energy:                                             -1076.57861293466999

 ENERGY| Total FORCE_EVAL ( QS ) energy (a.u.):            -1076.578615778930498


 ATOMIC FORCES in [a.u.]

 # Atom   Kind   Element          X              Y              Z
      1      1      O           0.04200614    -0.00057846     0.01055397
      2      2      H           0.02686882    -0.04107661     0.03844950
      3      2      H          -0.07115620     0.01851725    -0.01699537
      4      1      O           0.01395754     0.02950301    -0.03964159
      5      2      H          -0.08367780     0.04228305     0.00567985
      6      2      H           0.04964603    -0.03369788     0.07337410
      7      1      O           0.09837169     0.04252187    -0.06319854
      8      2      H           0.00492417     0.00471307     0.05872674
      9      2      H          -0.02510388    -0.03259691    -0.04147717
     10      1      O          -0.07295409     0.07766169     0.06421592
     11      2      H           0.08634855    -0.00777693    -0.03125487
     12      2      H           0.00778393    -0.08079853     0.00534480
     13      1      O           0.01309531     0.04911364    -0.01477893
     14      2      H           0.02561205     0.00384046     0.08172854
     15      2      H           0.00084872    -0.07248053    -0.00971507
     16      1      O           0.02152744     0.04915580     0.06184452
     17      2      H           0.01899397    -0.08810344    -0.03452205
     18      2      H          -0.07675206     0.01646078     0.00865292
     19      1      O          -0.05821938    -0.00482943     0.11147838
     20      2      H          -0.05995360     0.00940429    -0.07093428
     21      2      H           0.07703770     0.03918006     0.01057243
     22      1      O           0.03163907     0.10090695     0.00112697
     23      2      H           0.08165791    -0.04208326     0.02188939
     24      2      H          -0.05050635    -0.03352492    -0.01957629
     25      1      O          -0.10218751     0.06605586    -0.04111817
     26      2      H           0.02420476    -0.09401251    -0.02037854
     27      2      H           0.05992843     0.00624755     0.03880583
     28      1      O           0.11283070     0.00456900    -0.01849372
     29      2      H          -0.04537173    -0.02281216     0.06168582
     30      2      H          -0.02431981     0.06136152    -0.04707920
     31      1      O          -0.01181550    -0.10948271    -0.04301266
     32      2      H           0.05799407     0.00666546     0.05019579
     33      2      H          -0.03452392     0.07904122     0.01977350
     34      1      O          -0.03505879    -0.08983624    -0.03701490
     35      2      H          -0.00872252     0.06017397     0.00008146
     36      2      H          -0.01553035    -0.00541864     0.06040314
     37      1      O           0.02850334    -0.07321732    -0.04975732
     38      2      H           0.02318846     0.06429522     0.08712646
     39      2      H          -0.08223442    -0.02874340     0.01030982
     40      1      O           0.10355419     0.08599097    -0.01057494
     41      2      H          -0.03637338     0.03034817     0.04635229
     42      2      H          -0.04191271    -0.09080465     0.00663171
     43      1      O          -0.00312301     0.11063990    -0.00063405
     44      2      H          -0.01695589    -0.05963677    -0.05239746
     45      2      H          -0.02292945    -0.01191220     0.08443715
     46      1      O          -0.05592947     0.01585140     0.00302627
     47      2      H           0.06766546     0.07985000    -0.01881392
     48      2      H           0.01662990    -0.04894012     0.07522983
     49      1      O          -0.09913828     0.07426053    -0.01955217
     50      2      H           0.01896719    -0.07211920     0.00845812
     51      2      H           0.00620008     0.04190301     0.08575193
     52      1      O           0.00864842     0.03039314     0.04425428
     53      2      H          -0.06998102    -0.04015893    -0.07219249
     54      2      H           0.08806476    -0.05375148    -0.00742234
     55      1      O           0.05834174    -0.10578265    -0.01633089
     56      2      H          -0.05434267     0.02737416    -0.07207167
     57      2      H          -0.03072519     0.00480314     0.08547859
     58      1      O           0.05873925    -0.08810567     0.05188063
     59      2      H          -0.07778522    -0.01773976    -0.07337130
     60      2      H           0.04385497     0.03952722    -0.04167810
     61      1      O          -0.03999249     0.05755638     0.00651032
     62      2      H           0.00751067    -0.03487105    -0.05975924
     63      2      H           0.06535653     0.01767413     0.01593077
     64      1      O           0.08112654     0.09187698    -0.04565037
     65      2      H          -0.03293067    -0.02015355     0.07970416
     66      2      H           0.00364456    -0.05527473    -0.01490285
     67      1      O           0.01418365    -0.01499640    -0.04554972
     68      2      H           0.05322409    -0.06623947     0.03774172
     69      2      H          -0.06425724     0.04967603     0.01588151
     70      1      O           0.11107828    -0.06611274     0.09883408
     71      2      H          -0.05638221     0.00455881     0.00279665
     72      2      H           0.02387289     0.00057205    -0.06173040
     73      1      O          -0.01358912    -0.00067098    -0.11075992
     74      2      H           0.03047697     0.00013539     0.07028254
     75      2      H          -0.09100279    -0.01930710     0.00633038
     76      1      O           0.08246719     0.02119546     0.09193541
     77      2      H          -0.09897897    -0.01412612    -0.02381669
     78      2      H           0.03096367    -0.06033680    -0.03871989
     79      1      O          -0.02113548    -0.07593291    -0.06643277
     80      2      H           0.05024647     0.05307774    -0.01840859
     81      2      H           0.04006027    -0.02671033     0.08931023
     82      1      O          -0.01139307    -0.09514698    -0.05591493
     83      2      H           0.02834330     0.08611743     0.00396016
     84      2      H          -0.01627745     0.00139605     0.06496276
     85      1      O           0.09354806     0.07662106     0.08326527
     86      2      H          -0.02620870    -0.00072844    -0.08080306
     87      2      H           0.01080010    -0.08604371    -0.00650583
     88      1      O           0.01917185     0.00961138    -0.09236271
     89      2      H           0.05965340    -0.02199284     0.02777534
     90      2      H          -0.01633533     0.05938721     0.03195225
     91      1      O          -0.04624026     0.00094532     0.10718308
     92      2      H           0.08367132    -0.00898806    -0.04313315
     93      2      H          -0.03063806     0.02892151    -0.02650165
     94      1      O           0.04564794     0.09952071    -0.07190865
     95      2      H          -0.09044164     0.01269588    -0.01286720
     96      2      H           0.02099937    -0.03471634     0.06233920
     97      1      O          -0.00902197     0.04996506    -0.12520994
     98      2      H          -0.01038020     0.03419718     0.08000362
     99      2      H          -0.07234973    -0.04012107     0.04033460
    100      1      O           0.09187330    -0.00952776     0.03468141
    101      2      H           0.00756273    -0.06804491    -0.05638713
    102      2      H          -0.06450639     0.05335391    -0.00469260
    103      1      O           0.03382861    -0.06432582    -0.05257220
    104      2      H           0.05020767     0.03000669     0.00230997
    105      2      H          -0.06798863     0.00341626     0.06773309
    106      1      O          -0.02720042     0.06436001     0.05083874
    107      2      H          -0.01719722     0.02850862    -0.06678096
    108      2      H          -0.01358244    -0.07183640    -0.04011107
    109      1      O          -0.01133744     0.04217378    -0.12551707
    110      2      H          -0.04555293     0.05358391     0.07792653
    111      2      H           0.05356034    -0.05791430     0.04292539
    112      1      O           0.01905869    -0.02900421     0.06676951
    113      2      H           0.04420260    -0.07536604    -0.01467484
    114      2      H          -0.05384495     0.05795659    -0.05017915
    115      1      O          -0.04069488    -0.00912948     0.02697306
    116      2      H           0.03549873    -0.09658401     0.02319278
    117      2      H           0.06164065     0.07048465     0.03584284
    118      1      O           0.06405211     0.08154029     0.02981772
    119      2      H          -0.08721387     0.01448002    -0.02913462
    120      2      H          -0.03402998    -0.09087833     0.02891250
    121      1      O          -0.01747867    -0.09218453    -0.07349758
    122      2      H          -0.06714070     0.06861636    -0.02796481
    123      2      H           0.06471070     0.05303912     0.04649503
    124      1      O          -0.01370012     0.05507512    -0.09449117
    125      2      H           0.00576491    -0.09456498     0.02421641
    126      2      H           0.03136334     0.04420085     0.04307250
    127      1      O          -0.01812011    -0.11014589    -0.09670881
    128      2      H           0.09380631    -0.00621055    -0.00982531
    129      2      H          -0.01132289     0.03871821     0.05987957
    130      1      O           0.11123544    -0.03499740     0.05426790
    131      2      H          -0.06581512     0.02905370    -0.07351987
    132      2      H          -0.04538175    -0.01778493     0.03954869
    133      1      O           0.08162318    -0.00290318     0.04242198
    134      2      H          -0.09214968    -0.00859023    -0.01734238
    135      2      H           0.03027170     0.08242266    -0.03960246
    136      1      O           0.08670177    -0.01412726    -0.08860066
    137      2      H          -0.00847648    -0.05445857     0.03526628
    138      2      H          -0.09183101     0.01643986    -0.00288630
    139      1      O          -0.03122346     0.07909150     0.09716893
    140      2      H           0.02878589    -0.08074687    -0.00711853
    141      2      H           0.04104799     0.03702008    -0.06252728
    142      1      O           0.09626119    -0.01512577    -0.08693771
    143      2      H          -0.06342096     0.04128174    -0.03825794
    144      2      H          -0.01753691    -0.05731081     0.03533874
    145      1      O          -0.05901032     0.11002904    -0.06705105
    146      2      H           0.03840621    -0.04339041    -0.00316708
    147      2      H          -0.02799027    -0.01277883     0.08006103
    148      1      O          -0.09294372    -0.06078819     0.05566576
    149      2      H           0.06536868     0.04331027     0.00171599
    150      2      H          -0.02881208    -0.02114551    -0.07613218
    151      1      O          -0.05358810    -0.02678134     0.00464712
    152      2      H           0.02992760    -0.04105894     0.06222565
    153      2      H           0.06782648     0.04842734    -0.02225346
    154      1      O           0.08750967    -0.10763848    -0.01275606
    155      2      H          -0.00465870     0.05231617    -0.05209573
    156      2      H          -0.01911042     0.02422420     0.06374310
    157      1      O           0.01544538     0.08566164     0.03422002
    158      2      H          -0.09268845     0.00098032     0.00117157
    159      2      H           0.01977960    -0.04266215    -0.03146712
    160      1      O          -0.01670595     0.04899071    -0.01221978
    161      2      H           0.04670728     0.02034693     0.02430810
    162      2      H           0.01561862    -0.08020754    -0.01475471
    163      1      O           0.12021861     0.03632335    -0.01319900
    164      2      H          -0.04016946     0.04447825     0.00875417
    165      2      H          -0.02800683    -0.04778127     0.01654558
    166      1      O           0.00847328    -0.02087356    -0.05997680
    167      2      H           0.00966615    -0.01201764     0.05505632
    168      2      H          -0.09519928    -0.03477374    -0.00685608
    169      1      O           0.03461890     0.10688101     0.05270705
    170      2      H          -0.00204534    -0.06958427     0.06028029
    171      2      H          -0.05419558     0.02469431    -0.04603290
    172      1      O           0.04835881     0.08171758    -0.09990547
    173      2      H          -0.07938325     0.04401413     0.01871560
    174      2      H          -0.01155424    -0.06635104     0.02508866
    175      1      O           0.00399602     0.12822474     0.06366415
    176      2      H           0.05353282    -0.05652920    -0.01221267
    177      2      H          -0.07997476    -0.02129285    -0.04848014
    178      1      O           0.03587221     0.01419920    -0.04415082
    179      2      H          -0.07158255     0.01283096     0.05141762
    180      2      H           0.07673858     0.04211876     0.06903087
    181      1      O          -0.03589699    -0.02141111     0.11216438
    182      2      H           0.06781508     0.08326912    -0.00337276
    183      2      H          -0.07558954     0.00474052    -0.04364675
    184      1      O          -0.00433677     0.05662622     0.05831914
    185      2      H          -0.02889634    -0.07443287    -0.01691033
    186      2      H           0.09901577     0.00652044     0.01205179
    187      1      O           0.10645270    -0.01633896     0.09853943
    188      2      H          -0.04124030     0.03648013    -0.03704583
    189      2      H          -0.03094045    -0.06252442    -0.02179073
    190      1      O           0.11454624    -0.09445830    -0.04048351
    191      2      H          -0.04581121     0.03447413    -0.05999349
    192      2      H          -0.03901995     0.00681395     0.09574749
 SUM OF ATOMIC FORCES           0.35169699    -0.01724134     0.49178464     0.60484723

 -------------------------------------------------------------------------------
 -                                                                             -
 -                                DBCSR STATISTICS                             -
 -                                                                             -
 -------------------------------------------------------------------------------
 COUNTER                                    TOTAL       BLAS       SMM       ACC
 flops     5 x     5 x   256            833715200       0.0%    100.0%      0.0%
 flops    13 x     5 x   256            978631680       0.0%    100.0%      0.0%
 flops     5 x    13 x   256           1026887680       0.0%    100.0%      0.0%
 flops    13 x    13 x   256           1355028480       0.0%    100.0%      0.0%
 flops inhomo. stacks                           0       0.0%      0.0%      0.0%
 flops total                         4.194263E+09       0.0%    100.0%      0.0%
 flops max/rank                      4.194263E+09       0.0%    100.0%      0.0%
 matmuls inhomo. stacks                         0       0.0%      0.0%      0.0%
 matmuls total                             141056       0.0%    100.0%      0.0%
 number of processed stacks                  8120       0.0%    100.0%      0.0%
 average stack size                                     0.0      17.4       0.0
 marketing flops                    64.344818E+09
 -------------------------------------------------------------------------------
 # multiplications                             58
 max memory usage/rank               6.030213E+09
 # max total images/rank                        1
 # max 3D layers                                1
 # MPI messages exchanged                       0
 MPI messages size (bytes):
  total size                         0.000000E+00
  min size                           0.000000E+00
  max size                           0.000000E+00
  average size                       0.000000E+00
 MPI breakdown and total messages size (bytes):
             size <=      128                   0                        0
       128 < size <=     8192                   0                        0
      8192 < size <=    32768                   0                        0
     32768 < size <=   131072                   0                        0
    131072 < size <=  4194304                   0                        0
   4194304 < size <= 16777216                   0                        0
  16777216 < size                               0                        0
 -------------------------------------------------------------------------------

 MEMORY| Estimated peak process memory [MiB]                                5745

 -------------------------------------------------------------------------------
 -                                                                             -
 -                           R E F E R E N C E S                               -
 -                                                                             -
 -------------------------------------------------------------------------------
 
 CP2K version 7.1, the CP2K developers group (2019).
 CP2K is freely available from https://www.cp2k.org/ .

 Schuett, Ole; Messmer, Peter; Hutter, Juerg; VandeVondele, Joost. 
 Electronic Structure Calculations on Graphics Processing Units, John
 Wiley & Sons, Ltd, 173-190 (2016). 
 GPU-Accelerated Sparse Matrix-Matrix Multiplication for
 Linear Scaling Density Functional Theory.
 https://dx.doi.org/10.1002/9781118670712.ch8

 Borstnik, U; VandeVondele, J; Weber, V; Hutter, J. 
 PARALLEL COMPUTING, 40 (5-6), 47-58 (2014). 
 Sparse matrix multiplication: The distributed block-compressed sparse
 row library.
 https://dx.doi.org/10.1016/j.parco.2014.03.012

 Hutter, J; Iannuzzi, M; Schiffmann, F; VandeVondele, J. 
 WIREs Comput Mol Sci., 4 (1), 15-25 (2014). 
 CP2K: atomistic simulations of condensed matter systems.
 https://dx.doi.org/10.1002/wcms.1159

 Krack, M. 
 THEORETICAL CHEMISTRY ACCOUNTS, 114 (1-3), 145-152 (2005). 
 Pseudopotentials for H to Kr optimized for gradient-corrected
 exchange-correlation functionals.
 https://dx.doi.org/10.1007/s00214-005-0655-y

 VandeVondele, J; Krack, M; Mohamed, F; Parrinello, M; Chassaing, T;
 Hutter, J. COMPUTER PHYSICS COMMUNICATIONS, 167 (2), 103-128 (2005). 
 QUICKSTEP: Fast and accurate density functional calculations using a
 mixed Gaussian and plane waves approach.
 https://dx.doi.org/10.1016/j.cpc.2004.12.014

 Frigo, M; Johnson, SG. 
 PROCEEDINGS OF THE IEEE, 93 (2), 216-231 (2005). 
 The design and implementation of FFTW3.
 https://dx.doi.org/10.1109/JPROC.2004.840301

 Hartwigsen, C; Goedecker, S; Hutter, J. 
 PHYSICAL REVIEW B, 58 (7), 3641-3662 (1998). 
 Relativistic separable dual-space Gaussian pseudopotentials from H to Rn.
 https://dx.doi.org/10.1103/PhysRevB.58.3641

 Lippert, G; Hutter, J; Parrinello, M. 
 MOLECULAR PHYSICS, 92 (3), 477-487 (1997). 
 A hybrid Gaussian and plane wave density functional scheme.
 https://dx.doi.org/10.1080/002689797170220

 Goedecker, S; Teter, M; Hutter, J. 
 PHYSICAL REVIEW B, 54 (3), 1703-1710 (1996). 
 Separable dual-space Gaussian pseudopotentials.
 https://dx.doi.org/10.1103/PhysRevB.54.1703


 -------------------------------------------------------------------------------
 -                                                                             -
 -                                T I M I N G                                  -
 -                                                                             -
 -------------------------------------------------------------------------------
 SUBROUTINE                       CALLS  ASD         SELF TIME        TOTAL TIME
                                MAXIMUM       AVERAGE  MAXIMUM  AVERAGE  MAXIMUM
 CP2K                                 1  1.0    0.193    0.193  566.901  566.901
 qs_forces                            1  2.0    0.000    0.000  564.360  564.360
 qs_energies                          1  3.0    0.000    0.000  563.566  563.566
 scf_env_do_scf                       1  4.0    0.000    0.000  560.799  560.799
 scf_env_do_scf_inner_loop           57  5.0    0.013    0.013  560.799  560.799
 qs_scf_new_mos                      57  6.0    0.002    0.002  378.510  378.510
 eigensolver                         57  7.0    0.009    0.009  372.485  372.485
 cp_fm_syevd                         57  8.0  245.429  245.429  245.782  245.782
 cp_fm_cholesky_restore             171  8.0  126.495  126.495  126.495  126.495
 gspace_mixing                       56  6.0    1.492    1.492  102.235  102.235
 broyden_mixing                      56  7.0   92.528   92.528   92.528   92.528
 rebuild_ks_matrix                   58  6.9    0.000    0.000   42.053   42.053
 qs_ks_build_kohn_sham_matrix        58  7.9    0.015    0.015   42.052   42.052
 qs_ks_update_qs_env                 57  6.0    0.001    0.001   41.396   41.396
 pw_transfer                        753  9.9    0.065    0.065   39.913   39.913
 qs_rho_update_rho                   58  6.0    0.001    0.001   39.008   39.008
 calculate_rho_elec                  58  7.0   18.275   18.275   39.007   39.007
 fft_wrap_pw1pw2                    637 10.9    0.007    0.007   38.814   38.814
 fft_wrap_pw1pw2_70                 289 11.2    4.140    4.140   36.293   36.293
 density_rs2pw                       58  8.0    0.007    0.007   20.252   20.252
 fft3d_s                            638 12.9   17.723   17.723   17.732   17.732
 pw_poisson_solve                    58  8.9   12.596   12.596   13.698   13.698
 pw_scatter_s                       346 13.2   13.581   13.581   13.581   13.581
 -------------------------------------------------------------------------------

 The number of warnings for this run is : 0
 
 -------------------------------------------------------------------------------
  **** **** ******  **  PROGRAM ENDED AT                 2021-01-13 07:32:22.755
 ***** ** ***  *** **   PROGRAM RAN ON                                   gnode23
 **    ****   ******    PROGRAM RAN BY                               mayank.modi
 ***** **    ** ** **   PROGRAM PROCESS ID                                 10014
  **** **  *******  **  PROGRAM STOPPED IN /home/mayank.modi/ab-initio-thermodyn
                                           amics-of-water/mayank/cp2k_energy_cal
                                           culations
