 DBCSR| CPU Multiplication driver                                           XSMM
 DBCSR| Multrec recursion limit                                              512
 DBCSR| Multiplication stack size                                           1000
 DBCSR| Maximum elements for images                                    UNLIMITED
 DBCSR| Multiplicative factor virtual images                                   1
 DBCSR| Use multiplication densification                                       T
 DBCSR| Multiplication size stacks                                             3


  **** **** ******  **  PROGRAM STARTED AT               2021-02-25 20:11:51.339
 ***** ** ***  *** **   PROGRAM STARTED ON                               gnode75
 **    ****   ******    PROGRAM STARTED BY                           mayank.modi
 ***** **    ** ** **   PROGRAM PROCESS ID                                 29206
  **** **  *******  **  PROGRAM STARTED IN /home/mayank.modi/ab-initio-thermodyn
                                           amics-of-water/mayank/cp2k_energy_cal
                                           culations

 CP2K| version string:                                          CP2K version 7.1
 CP2K| source code revision number:                                  git:e635599
 CP2K| cp2kflags: omp libint fftw3 libxc xsmm spglib                            
 CP2K| is freely available from                            https://www.cp2k.org/
 CP2K| Program compiled at                          Mon Dec 23 19:23:12 CET 2019
 CP2K| Program compiled on                                                pc9404
 CP2K| Program compiled for                                Linux-x86-64-gfortran
 CP2K| Data directory path                                        /opt/cp2k/data
 CP2K| Input file name                   input_training_correct_cell/input253.in

 GLOBAL| Force Environment number                                              1
 GLOBAL| Basis set file name                                           BASIS_SET
 GLOBAL| Potential file name                                      GTH_POTENTIALS
 GLOBAL| MM Potential file name                                     MM_POTENTIAL
 GLOBAL| Coordinate file name                                      __STD_INPUT__
 GLOBAL| Method name                                                        CP2K
 GLOBAL| Project name                                                   H2O_bulk
 GLOBAL| Preferred FFT library                                             FFTW3
 GLOBAL| Preferred diagonalization lib.                                       SL
 GLOBAL| Run type                                                   ENERGY_FORCE
 GLOBAL| All-to-all communication in single precision                          F
 GLOBAL| FFTs using library dependent lengths                                  F
 GLOBAL| Global print level                                                  LOW
 GLOBAL| MPI I/O enabled                                                       T
 GLOBAL| Total number of message passing processes                             1
 GLOBAL| Number of threads for this process                                   36
 GLOBAL| This output is from process                                           0
 GLOBAL| CPU model name                Intel(R) Xeon(R) CPU E5-2640 v4 @ 2.40GHz
 GLOBAL| CPUID                                                              1002
 GLOBAL| Compiled for CPUID                                                    0

 MEMORY| system memory details [Kb]
 MEMORY|                        rank 0           min           max       average
 MEMORY| MemTotal            131893432     131893432     131893432     131893432
 MEMORY| MemFree             123200496     123200496     123200496     123200496
 MEMORY| Buffers               1045116       1045116       1045116       1045116
 MEMORY| Cached                6254068       6254068       6254068       6254068
 MEMORY| Slab                   958140        958140        958140        958140
 MEMORY| SReclaimable           705028        705028        705028        705028
 MEMORY| MemLikelyFree       131204708     131204708     131204708     131204708


 GENERATE| WARNING:: No connections detected for Hydrogen - Atom Nr:        81 !
 GENERATE|  Preliminary Number of Bonds generated:                             0
 GENERATE|  Achieved consistency in connectivity generation.

 *******************************************************************************
 *******************************************************************************
 **                                                                           **
 **     #####                         ##              ##                      **
 **    ##   ##            ##          ##              ##                      **
 **   ##     ##                       ##            ######                    **
 **   ##     ##  ##   ##  ##   #####  ##  ##   ####   ##    #####    #####    **
 **   ##     ##  ##   ##  ##  ##      ## ##   ##      ##   ##   ##  ##   ##   **
 **   ##  ## ##  ##   ##  ##  ##      ####     ###    ##   ######   ######    **
 **    ##  ###   ##   ##  ##  ##      ## ##      ##   ##   ##       ##        **
 **     #######   #####   ##   #####  ##  ##  ####    ##    #####   ##        **
 **           ##                                                    ##        **
 **                                                                           **
 **                                                ... make the atoms dance   **
 **                                                                           **
 **            Copyright (C) by CP2K developers group (2000 - 2019)           **
 **                                                                           **
 *******************************************************************************


 TOTAL NUMBERS AND MAXIMUM NUMBERS

  Total number of            - Atomic kinds:                                   2
                             - Atoms:                                        192
                             - Shell sets:                                   384
                             - Shells:                                       704
                             - Primitive Cartesian functions:                960
                             - Cartesian basis functions:                   1536
                             - Spherical basis functions:                   1472

  Maximum angular momentum of- Orbital basis functions:                        2
                             - Local part of the GTH pseudopotential:          2
                             - Non-local part of the GTH pseudopotential:      0


 SCF PARAMETERS         Density guess:                                    ATOMIC
                        --------------------------------------------------------
                        max_scf:                                             300
                        max_scf_history:                                       0
                        max_diis:                                              4
                        --------------------------------------------------------
                        eps_scf:                                        1.00E-07
                        eps_scf_history:                                0.00E+00
                        eps_diis:                                       1.00E-01
                        eps_eigval:                                     1.00E-05
                        --------------------------------------------------------
                        level_shift [a.u.]:                                 0.00
                        --------------------------------------------------------
                        Mixing method:                            BROYDEN_MIXING
                                                charge density mixing in g-space
                        --------------------------------------------------------
                        No outer SCF

 Number of electrons:                                                        512
 Number of occupied orbitals:                                                256
 Number of molecular orbitals:                                               256

 Number of orbital functions:                                               1472
 Number of independent orbital functions:                                   1472

 Extrapolation method: initial_guess


 SCF WAVEFUNCTION OPTIMIZATION

  Step     Update method      Time    Convergence         Total energy    Change
  ------------------------------------------------------------------------------
     1 NoMix/Diag. 0.40E+00    7.3     0.68761366     -1064.2491133643 -1.06E+03
     2 Broy./Diag. 0.40E+00    8.0     1.94058195      -996.9406153153  6.73E+01
     3 Broy./Diag. 0.40E+00    8.2     1.95802856     -1260.4675026792 -2.64E+02
     4 Broy./Diag. 0.40E+00    8.8     1.78112684     -1119.7809445896  1.41E+02
     5 Broy./Diag. 0.40E+00    8.7     1.79183086     -1094.9484441716  2.48E+01
     6 Broy./Diag. 0.40E+00    9.1     1.91576761     -1098.8123012777 -3.86E+00
     7 Broy./Diag. 0.40E+00    9.3     1.75714592     -1096.0993773344  2.71E+00
     8 Broy./Diag. 0.40E+00    9.5     0.56197316     -1083.0346590119  1.31E+01
     9 Broy./Diag. 0.40E+00    9.7     0.96385256     -1074.6843522017  8.35E+00
    10 Broy./Diag. 0.40E+00   10.0     1.02910992     -1074.3756791342  3.09E-01
    11 Broy./Diag. 0.40E+00    9.7     1.28937730     -1073.2093774014  1.17E+00
    12 Broy./Diag. 0.40E+00   10.0     1.79811322     -1076.7984528760 -3.59E+00
    13 Broy./Diag. 0.40E+00   10.0     1.84517274     -1076.3631561713  4.35E-01
    14 Broy./Diag. 0.40E+00   10.0     1.76152878     -1079.0890495378 -2.73E+00
    15 Broy./Diag. 0.40E+00    9.9     1.72356369     -1080.7061953933 -1.62E+00
    16 Broy./Diag. 0.40E+00   10.1     1.16593049     -1076.2047013454  4.50E+00
    17 Broy./Diag. 0.40E+00    9.9     1.70981888     -1073.0390707353  3.17E+00
    18 Broy./Diag. 0.40E+00    9.8     1.24030320     -1079.2317836614 -6.19E+00
    19 Broy./Diag. 0.40E+00   10.0     1.79938822     -1078.1840626822  1.05E+00
    20 Broy./Diag. 0.40E+00   10.0     1.81223948     -1075.1220783686  3.06E+00
    21 Broy./Diag. 0.40E+00    9.9     1.55976466     -1075.9450108314 -8.23E-01
    22 Broy./Diag. 0.40E+00   10.0     1.71913082     -1074.8553693724  1.09E+00
    23 Broy./Diag. 0.40E+00    9.8     1.22164864     -1077.6373859237 -2.78E+00
    24 Broy./Diag. 0.40E+00    9.9     1.72838139     -1079.3028417065 -1.67E+00
    25 Broy./Diag. 0.40E+00   10.1     1.80890875     -1073.5272205180  5.78E+00
    26 Broy./Diag. 0.40E+00    9.8     1.82568709     -1079.5798701755 -6.05E+00
    27 Broy./Diag. 0.40E+00    9.5     1.73485469     -1078.4963435448  1.08E+00
    28 Broy./Diag. 0.40E+00   10.1     1.54824383     -1075.8809585280  2.62E+00
    29 Broy./Diag. 0.40E+00   10.0     1.80286840     -1077.2301617875 -1.35E+00
    30 Broy./Diag. 0.40E+00   10.0     1.80228362     -1074.6877504548  2.54E+00
    31 Broy./Diag. 0.40E+00   10.0     1.74257525     -1078.5461532166 -3.86E+00
    32 Broy./Diag. 0.40E+00   10.1     1.79822678     -1076.0972980270  2.45E+00
    33 Broy./Diag. 0.40E+00    9.9     1.48413516     -1076.1714344738 -7.41E-02
    34 Broy./Diag. 0.40E+00   10.1     1.24156356     -1075.7217048059  4.50E-01
    35 Broy./Diag. 0.40E+00   10.0     1.23797713     -1077.3722794539 -1.65E+00
    36 Broy./Diag. 0.40E+00    9.8     0.90681200     -1076.3415814790  1.03E+00
    37 Broy./Diag. 0.40E+00    9.3     1.74350521     -1074.0225019899  2.32E+00
    38 Broy./Diag. 0.40E+00    9.5     1.75539554     -1079.3781566340 -5.36E+00
    39 Broy./Diag. 0.40E+00   10.0     1.81745195     -1077.3361470139  2.04E+00
    40 Broy./Diag. 0.40E+00   10.1     1.84028444     -1076.4106577486  9.25E-01
    41 Broy./Diag. 0.40E+00   10.1     1.24833550     -1076.4941826339 -8.35E-02
    42 Broy./Diag. 0.40E+00   10.0     1.65548053     -1073.0049497779  3.49E+00
    43 Broy./Diag. 0.40E+00    9.9     1.64710516     -1077.4122093361 -4.41E+00
    44 Broy./Diag. 0.40E+00    9.8     1.50487661     -1075.9170413343  1.50E+00
    45 Broy./Diag. 0.40E+00   10.1     1.75040502     -1077.2342192755 -1.32E+00
    46 Broy./Diag. 0.40E+00    9.9     1.77955437     -1078.7058997665 -1.47E+00
    47 Broy./Diag. 0.40E+00    9.9     1.45631274     -1076.6131120216  2.09E+00
    48 Broy./Diag. 0.40E+00   10.0     1.79630489     -1073.9476873052  2.67E+00
    49 Broy./Diag. 0.40E+00   10.0     1.74091161     -1079.9598736330 -6.01E+00
    50 Broy./Diag. 0.40E+00   10.1     1.83424007     -1076.4759596898  3.48E+00
    51 Broy./Diag. 0.40E+00   10.1     1.25619612     -1076.8778898704 -4.02E-01
    52 Broy./Diag. 0.40E+00   10.1     1.54336884     -1073.5382467135  3.34E+00
    53 Broy./Diag. 0.40E+00   10.1     1.58518349     -1079.3902374832 -5.85E+00
    54 Broy./Diag. 0.40E+00   10.0     1.26307670     -1076.7687893947  2.62E+00
    55 Broy./Diag. 0.40E+00   10.2     1.81348656     -1075.7496282851  1.02E+00
    56 Broy./Diag. 0.40E+00    9.7     1.81479878     -1077.0433396704 -1.29E+00
    57 Broy./Diag. 0.40E+00   10.1     1.62030266     -1075.4351296189  1.61E+00
    58 Broy./Diag. 0.40E+00   10.2     1.56541634     -1076.2900803095 -8.55E-01
    59 Broy./Diag. 0.40E+00   10.0     1.82238172     -1076.5468369774 -2.57E-01
    60 Broy./Diag. 0.40E+00   10.0     1.85585295     -1076.9540614135 -4.07E-01
    61 Broy./Diag. 0.40E+00    9.9     1.76942851     -1077.2677711349 -3.14E-01
    62 Broy./Diag. 0.40E+00    9.8     1.83658721     -1075.9522314984  1.32E+00
    63 Broy./Diag. 0.40E+00   10.1     1.74004555     -1073.0635106392  2.89E+00
    64 Broy./Diag. 0.40E+00    9.9     1.75756971     -1081.2081706779 -8.14E+00
    65 Broy./Diag. 0.40E+00   10.0     1.26027098     -1076.8013136378  4.41E+00
    66 Broy./Diag. 0.40E+00    9.9     1.33292973     -1075.5084118253  1.29E+00
    67 Broy./Diag. 0.40E+00    9.9     1.80956045     -1073.5286145372  1.98E+00
    68 Broy./Diag. 0.40E+00   10.1     1.43670140     -1078.2837327996 -4.76E+00
    69 Broy./Diag. 0.40E+00    9.8     1.80244780     -1078.6514479937 -3.68E-01
    70 Broy./Diag. 0.40E+00    9.6     1.74102159     -1075.9730913315  2.68E+00
    71 Broy./Diag. 0.40E+00   10.0     1.72778054     -1080.4582980878 -4.49E+00
    72 Broy./Diag. 0.40E+00    9.9     1.81138318     -1073.5854243148  6.87E+00
    73 Broy./Diag. 0.40E+00    9.6     1.83783672     -1078.9149204766 -5.33E+00
    74 Broy./Diag. 0.40E+00    9.5     1.75333823     -1078.4407186314  4.74E-01
    75 Broy./Diag. 0.40E+00    9.9     1.80523046     -1076.3370104131  2.10E+00
    76 Broy./Diag. 0.40E+00   10.0     1.57377893     -1073.0971041673  3.24E+00
    77 Broy./Diag. 0.40E+00    9.9     1.57157365     -1075.9803502348 -2.88E+00
    78 Broy./Diag. 0.40E+00   10.2     1.60979052     -1077.5733905751 -1.59E+00
    79 Broy./Diag. 0.40E+00   10.0     1.77470656     -1077.0459621786  5.27E-01
    80 Broy./Diag. 0.40E+00    9.9     1.81642571     -1076.8337237208  2.12E-01
    81 Broy./Diag. 0.40E+00   10.2     1.14327823     -1075.7191116260  1.11E+00
    82 Broy./Diag. 0.40E+00   10.0     1.81828831     -1073.0725515067  2.65E+00
    83 Broy./Diag. 0.40E+00    9.8     1.83687361     -1078.5559524512 -5.48E+00
    84 Broy./Diag. 0.40E+00    9.9     1.74475683     -1078.4551642359  1.01E-01
    85 Broy./Diag. 0.40E+00   10.0     1.73997557     -1073.9668152993  4.49E+00
    86 Broy./Diag. 0.40E+00    9.9     1.73837912     -1078.0948360399 -4.13E+00
    87 Broy./Diag. 0.40E+00    9.8     1.70897171     -1075.6024280032  2.49E+00
    88 Broy./Diag. 0.40E+00    9.9     1.33724180     -1079.6551092792 -4.05E+00
    89 Broy./Diag. 0.40E+00   10.1     1.57247721     -1074.8395281022  4.82E+00
    90 Broy./Diag. 0.40E+00   10.1     1.82053090     -1076.5947055044 -1.76E+00
    91 Broy./Diag. 0.40E+00    9.8     1.81520733     -1076.1348425449  4.60E-01
    92 Broy./Diag. 0.40E+00    9.5     1.72374672     -1075.7631571748  3.72E-01
    93 Broy./Diag. 0.40E+00    9.3     1.82508512     -1076.8225240544 -1.06E+00
    94 Broy./Diag. 0.40E+00    9.4     1.82529604     -1078.7176058182 -1.90E+00
    95 Broy./Diag. 0.40E+00    9.7     1.73398133     -1073.8694997261  4.85E+00
    96 Broy./Diag. 0.40E+00    9.9     0.73673852     -1078.9511291663 -5.08E+00
    97 Broy./Diag. 0.40E+00    9.8     1.74182544     -1078.3625924289  5.89E-01
    98 Broy./Diag. 0.40E+00   10.4     1.81272348     -1077.3182987727  1.04E+00
    99 Broy./Diag. 0.40E+00   10.2     1.82599724     -1075.3262797848  1.99E+00
   100 Broy./Diag. 0.40E+00    9.9     1.78778047     -1076.7812536687 -1.45E+00
   101 Broy./Diag. 0.40E+00    9.9     1.76923020     -1075.5102402581  1.27E+00
   102 Broy./Diag. 0.40E+00   10.1     1.82107732     -1076.5022711272 -9.92E-01
   103 Broy./Diag. 0.40E+00   10.1     1.81688210     -1073.5155714343  2.99E+00
   104 Broy./Diag. 0.40E+00   10.0     1.82301950     -1078.9899827702 -5.47E+00
   105 Broy./Diag. 0.40E+00   10.1     1.25968986     -1077.9075941644  1.08E+00
   106 Broy./Diag. 0.40E+00   10.2     1.80315216     -1077.3017415090  6.06E-01
   107 Broy./Diag. 0.40E+00   10.1     1.81858419     -1076.3832369547  9.19E-01
   108 Broy./Diag. 0.40E+00    9.9     1.75942228     -1078.0359399053 -1.65E+00
   109 Broy./Diag. 0.40E+00   10.0     1.27194495     -1073.2542468387  4.78E+00
   110 Broy./Diag. 0.40E+00    9.9     1.70195118     -1078.6851475382 -5.43E+00
   111 Broy./Diag. 0.40E+00    9.9     1.73407823     -1076.8465168790  1.84E+00
   112 Broy./Diag. 0.40E+00    9.6     1.75761857     -1075.8490729633  9.97E-01
   113 Broy./Diag. 0.40E+00    9.7     1.79134700     -1075.7114645368  1.38E-01
   114 Broy./Diag. 0.40E+00   10.1     1.58994067     -1075.4584278032  2.53E-01
   115 Broy./Diag. 0.40E+00   10.1     1.25149113     -1078.4896812022 -3.03E+00
   116 Broy./Diag. 0.40E+00   10.0     1.82551050     -1073.9802947927  4.51E+00
   117 Broy./Diag. 0.40E+00   10.0     1.81795704     -1078.3643030670 -4.38E+00
   118 Broy./Diag. 0.40E+00   10.1     1.75327956     -1076.8877593809  1.48E+00
   119 Broy./Diag. 0.40E+00    9.9     1.12064980     -1077.5587178065 -6.71E-01
   120 Broy./Diag. 0.40E+00   10.2     1.39580598     -1076.1268335221  1.43E+00
   121 Broy./Diag. 0.40E+00   10.1     1.73240874     -1075.0576537745  1.07E+00
   122 Broy./Diag. 0.40E+00   10.0     1.72744212     -1077.2295630452 -2.17E+00
   123 Broy./Diag. 0.40E+00    9.8     1.80824164     -1074.2916587288  2.94E+00
   124 Broy./Diag. 0.40E+00   10.4     1.74776979     -1079.4982514149 -5.21E+00
   125 Broy./Diag. 0.40E+00    9.8     1.75009607     -1079.9348349676 -4.37E-01
   126 Broy./Diag. 0.40E+00   10.1     1.80728134     -1075.0166498015  4.92E+00
   127 Broy./Diag. 0.40E+00   10.1     1.47988844     -1076.4984570469 -1.48E+00
   128 Broy./Diag. 0.40E+00    9.9     1.28558478     -1074.0996883570  2.40E+00
   129 Broy./Diag. 0.40E+00   10.1     1.24154094     -1079.6814573140 -5.58E+00
   130 Broy./Diag. 0.40E+00   10.1     1.52681544     -1076.8129035311  2.87E+00
   131 Broy./Diag. 0.40E+00    9.9     1.73244279     -1077.2483466886 -4.35E-01
   132 Broy./Diag. 0.40E+00   10.0     1.74493273     -1076.7922534922  4.56E-01
   133 Broy./Diag. 0.40E+00    9.9     1.61581255     -1074.9888794589  1.80E+00
   134 Broy./Diag. 0.40E+00    9.9     1.61260331     -1075.6523651859 -6.63E-01
   135 Broy./Diag. 0.40E+00    9.8     1.27632489     -1076.5098061505 -8.57E-01
   136 Broy./Diag. 0.40E+00    9.8     1.73888724     -1073.8061831749  2.70E+00
   137 Broy./Diag. 0.40E+00    9.6     1.74639116     -1080.1379485624 -6.33E+00
   138 Broy./Diag. 0.40E+00   10.2     1.51676860     -1078.7367976414  1.40E+00
   139 Broy./Diag. 0.40E+00   10.3     1.72604304     -1077.3260880867  1.41E+00
   140 Broy./Diag. 0.40E+00   10.0     1.27112729     -1074.9466867954  2.38E+00
   141 Broy./Diag. 0.40E+00   10.1     1.75908084     -1078.8679266271 -3.92E+00
   142 Broy./Diag. 0.40E+00    9.9     1.74018746     -1075.0008966124  3.87E+00
   143 Broy./Diag. 0.40E+00   10.1     1.80375841     -1076.5655344096 -1.56E+00
   144 Broy./Diag. 0.40E+00   10.3     1.63846799     -1076.1101418408  4.55E-01
   145 Broy./Diag. 0.40E+00    9.9     1.69422904     -1075.8739004747  2.36E-01
   146 Broy./Diag. 0.40E+00   10.0     1.27293541     -1075.3682176084  5.06E-01
   147 Broy./Diag. 0.40E+00   10.0     1.73055643     -1077.0697727616 -1.70E+00
   148 Broy./Diag. 0.40E+00   10.1     1.75818555     -1078.7308643271 -1.66E+00
   149 Broy./Diag. 0.40E+00   10.0     1.83569946     -1074.1524770004  4.58E+00
   150 Broy./Diag. 0.40E+00   10.0     1.83538757     -1078.5802502313 -4.43E+00
   151 Broy./Diag. 0.40E+00    9.8     1.24164997     -1073.0679603030  5.51E+00
   152 Broy./Diag. 0.40E+00    9.8     1.24497164     -1078.0972303134 -5.03E+00
   153 Broy./Diag. 0.40E+00   10.0     1.77996949     -1074.3090287810  3.79E+00
   154 Broy./Diag. 0.40E+00    9.8     1.78659863     -1075.8250122335 -1.52E+00
   155 Broy./Diag. 0.40E+00    9.7     1.70665990     -1079.5799921604 -3.75E+00
   156 Broy./Diag. 0.40E+00   10.2     1.73316673     -1075.4633372348  4.12E+00
   157 Broy./Diag. 0.40E+00   10.1     1.74336127     -1076.6956916843 -1.23E+00
   158 Broy./Diag. 0.40E+00    9.9     1.76424074     -1078.0902298776 -1.39E+00
   159 Broy./Diag. 0.40E+00   10.1     1.59042655     -1075.4405979230  2.65E+00
   160 Broy./Diag. 0.40E+00   10.1     1.82296968     -1073.7163665052  1.72E+00
   161 Broy./Diag. 0.40E+00   10.0     1.82554568     -1079.0129627731 -5.30E+00
   162 Broy./Diag. 0.40E+00   10.1     1.30364011     -1077.7316462734  1.28E+00
   163 Broy./Diag. 0.40E+00   10.2     1.28825886     -1075.4316714445  2.30E+00
   164 Broy./Diag. 0.40E+00    9.9     1.66584234     -1076.2800206983 -8.48E-01
   165 Broy./Diag. 0.40E+00    9.8     1.72695004     -1076.0808491479  1.99E-01
   166 Broy./Diag. 0.40E+00   10.1     1.74016232     -1075.0041148591  1.08E+00
   167 Broy./Diag. 0.40E+00   10.2     1.66715730     -1076.9666445646 -1.96E+00
   168 Broy./Diag. 0.40E+00   10.2     1.84297565     -1077.3779440800 -4.11E-01
   169 Broy./Diag. 0.40E+00    9.8     1.74409780     -1076.7135044203  6.64E-01
   170 Broy./Diag. 0.40E+00   10.1     1.79077603     -1078.2294304122 -1.52E+00
   171 Broy./Diag. 0.40E+00   10.7     1.24558085     -1072.5957403276  5.63E+00
   172 Broy./Diag. 0.40E+00   10.1     1.12727973     -1077.8101069937 -5.21E+00
   173 Broy./Diag. 0.40E+00    9.9     1.23723482     -1076.9387636063  8.71E-01
   174 Broy./Diag. 0.40E+00   10.2     1.52755937     -1074.0715236647  2.87E+00
   175 Broy./Diag. 0.40E+00   10.0     1.72722433     -1078.6827793677 -4.61E+00
   176 Broy./Diag. 0.40E+00    9.9     1.71112250     -1075.7107112727  2.97E+00
   177 Broy./Diag. 0.40E+00   10.2     1.74269926     -1076.4088615068 -6.98E-01
   178 Broy./Diag. 0.40E+00   10.1     1.82338873     -1079.0918647088 -2.68E+00
   179 Broy./Diag. 0.40E+00   10.0     1.84786389     -1078.2879258427  8.04E-01
   180 Broy./Diag. 0.40E+00   10.0     1.79522350     -1076.0000661996  2.29E+00
   181 Broy./Diag. 0.40E+00   10.1     1.76788676     -1075.4000834008  6.00E-01
   182 Broy./Diag. 0.40E+00   10.0     1.50836990     -1077.6813838216 -2.28E+00
   183 Broy./Diag. 0.40E+00   10.1     1.73131753     -1075.0215071668  2.66E+00
   184 Broy./Diag. 0.40E+00   10.0     1.73725350     -1080.3673953093 -5.35E+00
   185 Broy./Diag. 0.40E+00    9.8     1.84487725     -1073.2217340532  7.15E+00
   186 Broy./Diag. 0.40E+00   10.0     1.83400855     -1080.8346932645 -7.61E+00
   187 Broy./Diag. 0.40E+00   10.2     1.27147370     -1076.9620509652  3.87E+00
   188 Broy./Diag. 0.40E+00   10.1     1.82898431     -1073.1358615373  3.83E+00
   189 Broy./Diag. 0.40E+00   10.2     1.82801519     -1078.9293659233 -5.79E+00
   190 Broy./Diag. 0.40E+00   10.0     1.24905278     -1075.9917215039  2.94E+00
   191 Broy./Diag. 0.40E+00   10.0     1.74523823     -1078.6623961741 -2.67E+00
   192 Broy./Diag. 0.40E+00    9.9     1.76938809     -1073.8235751235  4.84E+00
   193 Broy./Diag. 0.40E+00   10.2     1.79697292     -1075.0510610568 -1.23E+00
   194 Broy./Diag. 0.40E+00   10.1     1.29321932     -1074.8911827607  1.60E-01
   195 Broy./Diag. 0.40E+00   10.0     1.71816988     -1073.1795529112  1.71E+00
   196 Broy./Diag. 0.40E+00    9.8     1.69731544     -1079.7587957017 -6.58E+00
   197 Broy./Diag. 0.40E+00    9.9     1.73874683     -1079.0002420173  7.59E-01
   198 Broy./Diag. 0.40E+00    9.6     1.81193425     -1078.7601569323  2.40E-01
   199 Broy./Diag. 0.40E+00    9.8     1.85827391     -1076.0646430802  2.70E+00
   200 Broy./Diag. 0.40E+00    9.6     1.54213358     -1078.3121985473 -2.25E+00
   201 Broy./Diag. 0.40E+00    9.4     1.60784734     -1076.4961031696  1.82E+00
   202 Broy./Diag. 0.40E+00    9.9     1.73023419     -1075.4917278137  1.00E+00
   203 Broy./Diag. 0.40E+00    9.6     1.72984358     -1077.0052262557 -1.51E+00
   204 Broy./Diag. 0.40E+00   10.1     1.23410428     -1075.8212398708  1.18E+00
   205 Broy./Diag. 0.40E+00   10.0     1.77496906     -1075.5003496259  3.21E-01
   206 Broy./Diag. 0.40E+00   10.0     1.77728920     -1076.6327048713 -1.13E+00
   207 Broy./Diag. 0.40E+00    9.9     1.78847607     -1075.2714072951  1.36E+00
   208 Broy./Diag. 0.40E+00    9.6     1.73545324     -1075.4022429693 -1.31E-01
   209 Broy./Diag. 0.40E+00   10.4     1.81865350     -1077.4226992321 -2.02E+00
   210 Broy./Diag. 0.40E+00   10.2     1.84287387     -1078.7489472245 -1.33E+00
   211 Broy./Diag. 0.40E+00   10.1     1.77649163     -1072.9751887349  5.77E+00
   212 Broy./Diag. 0.40E+00   10.1     1.74738235     -1078.9717917375 -6.00E+00
   213 Broy./Diag. 0.40E+00   10.0     1.10740920     -1075.7606364409  3.21E+00
   214 Broy./Diag. 0.40E+00   10.1     1.35857203     -1075.7435094746  1.71E-02
   215 Broy./Diag. 0.40E+00   10.0     1.28640060     -1074.9730581827  7.70E-01
   216 Broy./Diag. 0.40E+00    9.9     1.32753053     -1076.7791983581 -1.81E+00
   217 Broy./Diag. 0.40E+00    9.8     1.24665851     -1076.5975219030  1.82E-01
   218 Broy./Diag. 0.40E+00    9.9     1.64998014     -1073.5881901438  3.01E+00
   219 Broy./Diag. 0.40E+00   10.0     1.72867004     -1079.7514599301 -6.16E+00
   220 Broy./Diag. 0.40E+00   10.1     1.70763082     -1078.4629111774  1.29E+00
   221 Broy./Diag. 0.40E+00    9.8     1.26471411     -1075.5177926661  2.95E+00
   222 Broy./Diag. 0.40E+00   10.2     1.81667619     -1073.8892394850  1.63E+00
   223 Broy./Diag. 0.40E+00   10.0     1.82253661     -1077.0899518089 -3.20E+00
   224 Broy./Diag. 0.40E+00    9.8     1.73926182     -1076.9934279912  9.65E-02
   225 Broy./Diag. 0.40E+00    9.5     1.82634254     -1080.2864214080 -3.29E+00
   226 Broy./Diag. 0.40E+00    9.5     1.83558012     -1077.6757961272  2.61E+00
   227 Broy./Diag. 0.40E+00   10.1     1.47280840     -1075.2512174263  2.42E+00
   228 Broy./Diag. 0.40E+00    9.9     1.74670115     -1074.1722542962  1.08E+00
   229 Broy./Diag. 0.40E+00    9.9     1.79048406     -1078.0437962814 -3.87E+00
   230 Broy./Diag. 0.40E+00    9.9     1.22304218     -1077.8387516478  2.05E-01
   231 Broy./Diag. 0.40E+00   10.1     1.75518465     -1078.0669253871 -2.28E-01
   232 Broy./Diag. 0.40E+00   10.2     1.56505585     -1079.2328633342 -1.17E+00
   233 Broy./Diag. 0.40E+00   10.0     1.76926148     -1075.4946252338  3.74E+00
   234 Broy./Diag. 0.40E+00    9.9     1.82026909     -1076.6963250140 -1.20E+00
   235 Broy./Diag. 0.40E+00   10.2     1.24145455     -1073.5688423788  3.13E+00
   236 Broy./Diag. 0.40E+00   10.2     1.60045673     -1075.9158045402 -2.35E+00
   237 Broy./Diag. 0.40E+00   10.1     1.73297680     -1077.0143344142 -1.10E+00
   238 Broy./Diag. 0.40E+00    9.9     1.74935290     -1075.6630902760  1.35E+00
   239 Broy./Diag. 0.40E+00   10.1     1.79402661     -1076.4405000701 -7.77E-01
   240 Broy./Diag. 0.40E+00   10.0     1.26917258     -1076.2388692821  2.02E-01
   241 Broy./Diag. 0.40E+00   10.0     1.58892283     -1073.8880779423  2.35E+00
   242 Broy./Diag. 0.40E+00    9.9     1.68410961     -1079.8308040415 -5.94E+00
   243 Broy./Diag. 0.40E+00   10.1     1.23914625     -1075.3073916925  4.52E+00
   244 Broy./Diag. 0.40E+00   10.2     1.81893133     -1077.1108814177 -1.80E+00
   245 Broy./Diag. 0.40E+00    9.8     1.83702120     -1077.2347384090 -1.24E-01
   246 Broy./Diag. 0.40E+00   10.0     1.54859621     -1076.9218399382  3.13E-01
   247 Broy./Diag. 0.40E+00   10.0     1.24738050     -1076.6783682919  2.43E-01
   248 Broy./Diag. 0.40E+00   10.2     1.73206156     -1073.4045384450  3.27E+00
   249 Broy./Diag. 0.40E+00   10.2     1.80642517     -1079.3147614204 -5.91E+00
   250 Broy./Diag. 0.40E+00    9.9     1.82759026     -1078.6496143328  6.65E-01
   251 Broy./Diag. 0.40E+00   10.1     1.69457933     -1074.4332518732  4.22E+00
   252 Broy./Diag. 0.40E+00   10.3     1.68777687     -1075.0825937149 -6.49E-01
   253 Broy./Diag. 0.40E+00   10.3     1.22816685     -1073.4980957030  1.58E+00
   254 Broy./Diag. 0.40E+00   10.0     1.70509858     -1077.3646354007 -3.87E+00
   255 Broy./Diag. 0.40E+00   10.1     1.82458913     -1077.5335729093 -1.69E-01
   256 Broy./Diag. 0.40E+00   10.0     1.73484854     -1078.0854116815 -5.52E-01
   257 Broy./Diag. 0.40E+00   10.2     1.73212456     -1077.0230269793  1.06E+00
   258 Broy./Diag. 0.40E+00   10.3     1.75239174     -1078.1669057193 -1.14E+00
   259 Broy./Diag. 0.40E+00    9.8     1.36574189     -1074.4554642087  3.71E+00
   260 Broy./Diag. 0.40E+00    9.6     1.63121725     -1074.2388537628  2.17E-01
   261 Broy./Diag. 0.40E+00    9.3     1.74003092     -1076.4537739107 -2.21E+00
   262 Broy./Diag. 0.40E+00   10.0     1.75469506     -1077.6067165962 -1.15E+00
   263 Broy./Diag. 0.40E+00    9.9     1.81793776     -1074.2774508952  3.33E+00
   264 Broy./Diag. 0.40E+00    9.5     1.84112775     -1079.2240360144 -4.95E+00
   265 Broy./Diag. 0.40E+00   10.2     1.74420325     -1075.8095928751  3.41E+00
   266 Broy./Diag. 0.40E+00    9.9     1.78546207     -1076.1005345337 -2.91E-01
   267 Broy./Diag. 0.40E+00    9.5     1.72266838     -1076.2193899473 -1.19E-01
   268 Broy./Diag. 0.40E+00   10.2     1.77914520     -1076.0054458273  2.14E-01
   269 Broy./Diag. 0.40E+00   10.2     1.77560976     -1075.3139080712  6.92E-01
   270 Broy./Diag. 0.40E+00    9.9     1.53263203     -1078.8002438017 -3.49E+00
   271 Broy./Diag. 0.40E+00   10.1     1.56411618     -1075.6960749281  3.10E+00
   272 Broy./Diag. 0.40E+00   10.1     1.24869050     -1076.0480711944 -3.52E-01
   273 Broy./Diag. 0.40E+00   10.1     1.81881681     -1075.4233686176  6.25E-01
   274 Broy./Diag. 0.40E+00   10.1     1.84667157     -1078.8534934752 -3.43E+00
   275 Broy./Diag. 0.40E+00   10.0     1.76211576     -1073.4108141342  5.44E+00
   276 Broy./Diag. 0.40E+00   10.2     1.75246480     -1078.9611704317 -5.55E+00
   277 Broy./Diag. 0.40E+00   10.2     1.24424466     -1074.4365703538  4.52E+00
   278 Broy./Diag. 0.40E+00   10.0     1.28349136     -1076.6180229051 -2.18E+00
   279 Broy./Diag. 0.40E+00    9.8     1.32760325     -1075.6009727443  1.02E+00
   280 Broy./Diag. 0.40E+00   10.1     1.71972248     -1077.6853353485 -2.08E+00
   281 Broy./Diag. 0.40E+00    9.9     1.66207874     -1077.8333063405 -1.48E-01
   282 Broy./Diag. 0.40E+00    9.9     1.72834966     -1075.5466399678  2.29E+00
   283 Broy./Diag. 0.40E+00   10.0     1.74825945     -1076.8143114175 -1.27E+00
   284 Broy./Diag. 0.40E+00   10.1     1.81599143     -1074.4628470840  2.35E+00
   285 Broy./Diag. 0.40E+00    9.9     1.74148891     -1072.9190560110  1.54E+00
   286 Broy./Diag. 0.40E+00   10.1     1.80633134     -1079.3510666642 -6.43E+00
   287 Broy./Diag. 0.40E+00   10.2     1.82595696     -1080.9372218991 -1.59E+00
   288 Broy./Diag. 0.40E+00   10.0     1.83927949     -1077.2117944984  3.73E+00
   289 Broy./Diag. 0.40E+00    9.9     1.81782584     -1073.6048619013  3.61E+00
   290 Broy./Diag. 0.40E+00   10.0     1.83450912     -1078.1910027388 -4.59E+00
   291 Broy./Diag. 0.40E+00   10.0     1.72303111     -1078.6089426782 -4.18E-01
   292 Broy./Diag. 0.40E+00    9.9     1.73426815     -1077.0851387909  1.52E+00
   293 Broy./Diag. 0.40E+00    9.9     1.75394709     -1077.0208027102  6.43E-02
   294 Broy./Diag. 0.40E+00    9.9     1.53420703     -1075.1070721553  1.91E+00
   295 Broy./Diag. 0.40E+00   10.1     1.73457428     -1076.7603187988 -1.65E+00
   296 Broy./Diag. 0.40E+00   10.0     1.81233630     -1078.3837928438 -1.62E+00
   297 Broy./Diag. 0.40E+00   10.3     1.82577310     -1075.3681885785  3.02E+00
   298 Broy./Diag. 0.40E+00   10.2     1.82593429     -1073.8818667157  1.49E+00
   299 Broy./Diag. 0.40E+00   10.1     1.83414192     -1079.5621954819 -5.68E+00
   300 Broy./Diag. 0.40E+00   10.2     1.72544087     -1077.1110821460  2.45E+00

  Leaving inner SCF loop after reaching   300 steps.


  Electronic density on regular grids:       -511.9998102564        0.0001897436
  Core density on regular grids:              512.0000042284        0.0000042284
  Total charge density on r-space grids:        0.0001939720
  Total charge density g-space grids:           0.0001939720

  Overlap energy of the core charge distribution:               0.00000000000000
  Self energy of the core charge distribution:              -2838.21791979120962
  Core Hamiltonian energy:                                    759.09494762676832
  Hartree energy:                                            1240.71593664051306
  Exchange-correlation energy:                               -238.70404662206718

  Total energy:                                             -1077.11108214599540

 *** WARNING in qs_scf.F:542 :: SCF run NOT converged ***


 ENERGY| Total FORCE_EVAL ( QS ) energy (a.u.):            -1075.128445638244784


 ATOMIC FORCES in [a.u.]

 # Atom   Kind   Element          X              Y              Z
      1      1      O          -0.04742111    -0.00912090    -0.02525232
      2      2      H          -0.01702225    -0.02871329     0.07470890
      3      2      H           0.09060977     0.04128548    -0.00666725
      4      1      O           0.07077666     0.02863876     0.01340711
      5      2      H          -0.01706188    -0.06532259     0.02047811
      6      2      H           0.03821401    -0.01281996    -0.09385293
      7      1      O           0.04166731     0.01880146    -0.05056095
      8      2      H          -0.07486309     0.01160882     0.01469938
      9      2      H          -0.00763310    -0.07824977    -0.02715827
     10      1      O          -0.04145976    -0.01716427    -0.04189802
     11      2      H           0.07106488    -0.05833496     0.02226637
     12      2      H          -0.03519440    -0.00585852     0.06610849
     13      1      O          -0.03425883    -0.03761602     0.05668667
     14      2      H           0.01645864     0.07523805    -0.01440359
     15      2      H          -0.00980975    -0.01956173    -0.08308080
     16      1      O          -0.00042109     0.06200962    -0.06136692
     17      2      H          -0.00948403    -0.00267413     0.05054145
     18      2      H           0.02352963    -0.00746497    -0.03275656
     19      1      O           0.04850484     0.01598530     0.10279931
     20      2      H           0.01358959    -0.05745755    -0.06845873
     21      2      H          -0.00567202     0.07809013    -0.02558710
     22      1      O          -0.03965577    -0.06925541     0.06155582
     23      2      H          -0.08014968     0.03323073    -0.02042037
     24      2      H           0.07852161     0.06451432    -0.01761714
     25      1      O           0.04075286    -0.12324558     0.03092129
     26      2      H          -0.02903927     0.02229645    -0.06923080
     27      2      H          -0.01377628     0.07058210     0.05510381
     28      1      O           0.03199118     0.03724033     0.05517427
     29      2      H           0.02441829     0.03277866    -0.07025147
     30      2      H          -0.02157840    -0.05418381    -0.00747229
     31      1      O          -0.04660400    -0.04315903    -0.10762287
     32      2      H           0.00194384    -0.02525753     0.05787717
     33      2      H           0.02676927     0.06938799     0.02227743
     34      1      O           0.03158117     0.12345637    -0.01343493
     35      2      H          -0.08103078    -0.03159745     0.00795658
     36      2      H           0.06526897    -0.02896655    -0.01905759
     37      1      O           0.10177947    -0.00677804    -0.05580955
     38      2      H           0.00555326     0.06458166     0.07548392
     39      2      H          -0.07763135    -0.01147415    -0.02760490
     40      1      O           0.11054442     0.02099219    -0.01171946
     41      2      H          -0.02123507     0.01555119     0.08263605
     42      2      H          -0.06180484     0.00404735    -0.02392024
     43      1      O          -0.02888623     0.07305503     0.08667884
     44      2      H          -0.07078038    -0.00089066    -0.02943304
     45      2      H           0.06730765    -0.05119710    -0.06458995
     46      1      O           0.04710902    -0.02966116     0.07894312
     47      2      H          -0.03182489     0.08152088    -0.05160381
     48      2      H           0.00342259    -0.08631786    -0.05087426
     49      1      O           0.01702370     0.05341294    -0.05100262
     50      2      H           0.07227083     0.02563471     0.05694185
     51      2      H          -0.07074024    -0.02246668     0.02427639
     52      1      O          -0.04987873    -0.01263236    -0.06357548
     53      2      H           0.06117383     0.05087368     0.00946631
     54      2      H          -0.05713089     0.00632444     0.09087733
     55      1      O          -0.10324745    -0.03111397    -0.00812888
     56      2      H           0.02334907     0.05764138    -0.06304610
     57      2      H           0.00548090     0.02271878     0.07091656
     58      1      O           0.06685907     0.04289880     0.09017052
     59      2      H          -0.05554849    -0.02639442    -0.02136601
     60      2      H           0.02498720    -0.04849530    -0.00698283
     61      1      O          -0.03855516     0.09250754     0.01216061
     62      2      H          -0.00615757    -0.06480859    -0.05820306
     63      2      H           0.06059006     0.03054345     0.03415002
     64      1      O          -0.07415260     0.02455039     0.06024012
     65      2      H           0.09171561    -0.05137314     0.02326816
     66      2      H          -0.00636886    -0.04026474    -0.08208423
     67      1      O           0.08137238     0.05720870    -0.04080736
     68      2      H          -0.05971141     0.04542048     0.01623108
     69      2      H          -0.03787800    -0.07713597    -0.02029261
     70      1      O           0.04188635     0.00353040     0.06560679
     71      2      H          -0.07328803     0.02597538     0.00481717
     72      2      H          -0.02205821    -0.09121493    -0.03678197
     73      1      O           0.10691957    -0.00689422    -0.03958880
     74      2      H          -0.00612098     0.06075062     0.04716136
     75      2      H          -0.08937992    -0.01039622    -0.01908362
     76      1      O          -0.01326143    -0.08858206     0.10035225
     77      2      H           0.07392730     0.01474846     0.00124848
     78      2      H          -0.01645620     0.02913184    -0.06623834
     79      1      O           0.13587494    -0.02517959    -0.03022249
     80      2      H          -0.09993752     0.07669743     0.04655283
     81      2      H           0.00098177     0.00677017    -0.00696813
     82      1      O           0.06734338     0.01992115     0.02494675
     83      2      H          -0.05788459     0.01969851    -0.03932746
     84      2      H          -0.01274652    -0.07015643     0.00031351
     85      1      O           0.05147047    -0.04272130    -0.06229198
     86      2      H          -0.07970510     0.03666974    -0.00752477
     87      2      H          -0.01359572    -0.02698421     0.06647271
     88      1      O          -0.04118223     0.02176942    -0.08236375
     89      2      H           0.00472760    -0.06522918     0.05078013
     90      2      H           0.04933760     0.07166016     0.00913606
     91      1      O          -0.09167565     0.04641630     0.05861050
     92      2      H           0.04247287    -0.06744870     0.02835087
     93      2      H           0.03144155     0.07244138    -0.02153850
     94      1      O          -0.00413757     0.10755234     0.04008501
     95      2      H          -0.04820118    -0.06108675     0.03687859
     96      2      H           0.06734982    -0.01644340    -0.02577634
     97      1      O           0.06363828     0.01296133     0.09315969
     98      2      H          -0.03192008     0.08458702    -0.02476849
     99      2      H           0.00207103    -0.06123294    -0.03623260
    100      1      O           0.10218974    -0.08446810    -0.00389428
    101      2      H          -0.04869953     0.01366844    -0.05542801
    102      2      H          -0.05784653    -0.02321699     0.05118001
    103      1      O          -0.06211974    -0.08756829     0.05408924
    104      2      H           0.03992281    -0.05787605    -0.06644520
    105      2      H           0.02322414     0.11397319    -0.02824292
    106      1      O           0.02340943     0.06757760     0.06862793
    107      2      H          -0.08791472     0.00831283    -0.00691487
    108      2      H           0.02108279    -0.07123594    -0.00069741
    109      1      O           0.04698970     0.05244352    -0.08200441
    110      2      H          -0.03878369    -0.06048464    -0.02435718
    111      2      H          -0.00645902     0.02484088     0.04002822
    112      1      O          -0.02752704     0.01248982     0.02724531
    113      2      H           0.01939196    -0.05626160    -0.01197090
    114      2      H           0.08440792     0.03016986     0.02749042
    115      1      O          -0.02865665     0.05132075    -0.08411742
    116      2      H           0.03525819    -0.04695230     0.04246912
    117      2      H          -0.05119676     0.03293913     0.04714387
    118      1      O          -0.01066615     0.10262215    -0.08999027
    119      2      H           0.08192409    -0.04633598     0.03217139
    120      2      H          -0.05366772    -0.03569005     0.03977075
    121      1      O           0.01287054     0.12281449    -0.02702085
    122      2      H          -0.08106824    -0.04036979    -0.02608446
    123      2      H           0.06369717    -0.07200675     0.03008140
    124      1      O           0.10034374    -0.03330901     0.08578576
    125      2      H          -0.07489039    -0.04596442     0.02490426
    126      2      H           0.01283476     0.03486478    -0.06890730
    127      1      O          -0.03553266    -0.03873938     0.03531964
    128      2      H           0.01064208     0.03882701    -0.03183258
    129      2      H           0.06221413    -0.01424435     0.07388647
    130      1      O           0.11639818    -0.05612742     0.01546961
    131      2      H          -0.02187423     0.03127070    -0.06679949
    132      2      H          -0.04405472    -0.00321991     0.05371057
    133      1      O           0.05478897     0.11971474    -0.02079724
    134      2      H          -0.01689893    -0.05020968    -0.06516971
    135      2      H          -0.00728998    -0.02900340     0.07210837
    136      1      O          -0.11385119    -0.00154552    -0.04209417
    137      2      H           0.04055160    -0.04877345     0.04046383
    138      2      H           0.05781490     0.01810583    -0.02982027
    139      1      O          -0.02447996     0.04724424     0.11973845
    140      2      H           0.07882530    -0.05364186    -0.02486026
    141      2      H          -0.04395033     0.00016207    -0.06539918
    142      1      O           0.03675646    -0.04214699    -0.08709893
    143      2      H          -0.01279695     0.01785269     0.05202335
    144      2      H          -0.05219996    -0.04227664    -0.03777864
    145      1      O           0.01818744    -0.04802619    -0.01247099
    146      2      H           0.01931753    -0.01814830     0.01497786
    147      2      H           0.00254086     0.00841874     0.00212114
    148      1      O           0.02147742    -0.10224035     0.10384227
    149      2      H           0.08041333     0.03761918    -0.04512589
    150      2      H          -0.09203273     0.01874035    -0.02083371
    151      1      O           0.08002335     0.00514831    -0.00491360
    152      2      H           0.00837047    -0.01055070    -0.00249247
    153      2      H          -0.05164467     0.00887187    -0.01500439
    154      1      O           0.06649356    -0.03111348     0.09558190
    155      2      H          -0.02211570     0.03058676    -0.01645108
    156      2      H           0.00462091    -0.07444251    -0.03746313
    157      1      O          -0.00939240     0.06846783    -0.10297066
    158      2      H           0.03938524    -0.04009670    -0.00027136
    159      2      H          -0.02168547     0.02600822     0.06524255
    160      1      O           0.00893469     0.07841934    -0.00958740
    161      2      H          -0.05172025    -0.00359080    -0.04706837
    162      2      H           0.03738282    -0.06808594     0.03580037
    163      1      O          -0.02870596     0.12240899    -0.07128163
    164      2      H           0.05428343    -0.04956589    -0.00016243
    165      2      H          -0.06359441    -0.06821680    -0.02136660
    166      1      O          -0.00122859     0.06260966     0.00757505
    167      2      H           0.01529186     0.02845498    -0.00528864
    168      2      H          -0.01994437    -0.00502256     0.01273441
    169      1      O           0.08833509     0.00385730    -0.00044785
    170      2      H          -0.05341994    -0.06317236    -0.00249414
    171      2      H          -0.03935576     0.08349776     0.00241188
    172      1      O           0.05795052     0.02520339    -0.03462209
    173      2      H          -0.06726428     0.02804838    -0.01257711
    174      2      H           0.00125783    -0.04573637    -0.00165401
    175      1      O           0.01934193    -0.11933839    -0.00162769
    176      2      H          -0.03816498     0.04504101    -0.00116232
    177      2      H           0.08663977     0.03528674     0.04281114
    178      1      O           0.01497008    -0.01792222     0.03290634
    179      2      H           0.06883477    -0.00032513    -0.03790630
    180      2      H          -0.05723678     0.06995455    -0.00927613
    181      1      O           0.04603128    -0.03042566    -0.06866770
    182      2      H          -0.04308161     0.02244368    -0.02147179
    183      2      H          -0.04357043    -0.02117443     0.05339286
    184      1      O           0.01070407    -0.08301295     0.09761544
    185      2      H          -0.05042723     0.03812946    -0.00357330
    186      2      H           0.05019146     0.04202477    -0.00609813
    187      1      O          -0.03542656     0.05097533     0.10135299
    188      2      H           0.07142485    -0.01594049    -0.02327092
    189      2      H          -0.08971433    -0.01759573    -0.03135358
    190      1      O           0.05503824     0.09062304     0.04005615
    191      2      H          -0.05026892    -0.01291713    -0.05197924
    192      2      H          -0.03763719    -0.05427481     0.06899641
 SUM OF ATOMIC FORCES           0.31334923     0.12476160     0.15603943     0.37162011

 -------------------------------------------------------------------------------
 -                                                                             -
 -                                DBCSR STATISTICS                             -
 -                                                                             -
 -------------------------------------------------------------------------------
 COUNTER                                    TOTAL       BLAS       SMM       ACC
 flops     5 x     5 x   256           4361369600       0.0%    100.0%      0.0%
 flops     5 x    13 x   256           5219002880       0.0%    100.0%      0.0%
 flops    13 x     5 x   256           5409331200       0.0%    100.0%      0.0%
 flops    13 x    13 x   256           7292579840       0.0%    100.0%      0.0%
 flops inhomo. stacks                           0       0.0%      0.0%      0.0%
 flops total                        22.282284E+09       0.0%    100.0%      0.0%
 flops max/rank                     22.282284E+09       0.0%    100.0%      0.0%
 matmuls inhomo. stacks                         0       0.0%      0.0%      0.0%
 matmuls total                             744373       0.0%    100.0%      0.0%
 number of processed stacks                 42140       0.0%    100.0%      0.0%
 average stack size                                     0.0      17.7       0.0
 marketing flops                   333.927416E+09
 -------------------------------------------------------------------------------
 # multiplications                            301
 max memory usage/rank               6.030459E+09
 # max total images/rank                        1
 # max 3D layers                                1
 # MPI messages exchanged                       0
 MPI messages size (bytes):
  total size                         0.000000E+00
  min size                           0.000000E+00
  max size                           0.000000E+00
  average size                       0.000000E+00
 MPI breakdown and total messages size (bytes):
             size <=      128                   0                        0
       128 < size <=     8192                   0                        0
      8192 < size <=    32768                   0                        0
     32768 < size <=   131072                   0                        0
    131072 < size <=  4194304                   0                        0
   4194304 < size <= 16777216                   0                        0
  16777216 < size                               0                        0
 -------------------------------------------------------------------------------

 MEMORY| Estimated peak process memory [MiB]                                5745

 -------------------------------------------------------------------------------
 -                                                                             -
 -                           R E F E R E N C E S                               -
 -                                                                             -
 -------------------------------------------------------------------------------
 
 CP2K version 7.1, the CP2K developers group (2019).
 CP2K is freely available from https://www.cp2k.org/ .

 Schuett, Ole; Messmer, Peter; Hutter, Juerg; VandeVondele, Joost. 
 Electronic Structure Calculations on Graphics Processing Units, John
 Wiley & Sons, Ltd, 173-190 (2016). 
 GPU-Accelerated Sparse Matrix-Matrix Multiplication for
 Linear Scaling Density Functional Theory.
 https://dx.doi.org/10.1002/9781118670712.ch8

 Borstnik, U; VandeVondele, J; Weber, V; Hutter, J. 
 PARALLEL COMPUTING, 40 (5-6), 47-58 (2014). 
 Sparse matrix multiplication: The distributed block-compressed sparse
 row library.
 https://dx.doi.org/10.1016/j.parco.2014.03.012

 Hutter, J; Iannuzzi, M; Schiffmann, F; VandeVondele, J. 
 WIREs Comput Mol Sci., 4 (1), 15-25 (2014). 
 CP2K: atomistic simulations of condensed matter systems.
 https://dx.doi.org/10.1002/wcms.1159

 Krack, M. 
 THEORETICAL CHEMISTRY ACCOUNTS, 114 (1-3), 145-152 (2005). 
 Pseudopotentials for H to Kr optimized for gradient-corrected
 exchange-correlation functionals.
 https://dx.doi.org/10.1007/s00214-005-0655-y

 VandeVondele, J; Krack, M; Mohamed, F; Parrinello, M; Chassaing, T;
 Hutter, J. COMPUTER PHYSICS COMMUNICATIONS, 167 (2), 103-128 (2005). 
 QUICKSTEP: Fast and accurate density functional calculations using a
 mixed Gaussian and plane waves approach.
 https://dx.doi.org/10.1016/j.cpc.2004.12.014

 Frigo, M; Johnson, SG. 
 PROCEEDINGS OF THE IEEE, 93 (2), 216-231 (2005). 
 The design and implementation of FFTW3.
 https://dx.doi.org/10.1109/JPROC.2004.840301

 Hartwigsen, C; Goedecker, S; Hutter, J. 
 PHYSICAL REVIEW B, 58 (7), 3641-3662 (1998). 
 Relativistic separable dual-space Gaussian pseudopotentials from H to Rn.
 https://dx.doi.org/10.1103/PhysRevB.58.3641

 Lippert, G; Hutter, J; Parrinello, M. 
 MOLECULAR PHYSICS, 92 (3), 477-487 (1997). 
 A hybrid Gaussian and plane wave density functional scheme.
 https://dx.doi.org/10.1080/002689797170220

 Goedecker, S; Teter, M; Hutter, J. 
 PHYSICAL REVIEW B, 54 (3), 1703-1710 (1996). 
 Separable dual-space Gaussian pseudopotentials.
 https://dx.doi.org/10.1103/PhysRevB.54.1703


 -------------------------------------------------------------------------------
 -                                                                             -
 -                                T I M I N G                                  -
 -                                                                             -
 -------------------------------------------------------------------------------
 SUBROUTINE                       CALLS  ASD         SELF TIME        TOTAL TIME
                                MAXIMUM       AVERAGE  MAXIMUM  AVERAGE  MAXIMUM
 CP2K                                 1  1.0    0.203    0.203 2988.870 2988.870
 qs_forces                            1  2.0    0.000    0.000 2986.381 2986.381
 qs_energies                          1  3.0    0.000    0.000 2985.517 2985.517
 scf_env_do_scf                       1  4.0    0.001    0.001 2982.733 2982.733
 scf_env_do_scf_inner_loop          300  5.0    0.065    0.065 2982.732 2982.732
 qs_scf_new_mos                     300  6.0    0.011    0.011 1975.646 1975.646
 eigensolver                        300  7.0    0.044    0.044 1944.946 1944.946
 cp_fm_syevd                        300  8.0 1269.280 1269.280 1271.031 1271.031
 cp_fm_cholesky_restore             900  8.0  672.807  672.807  672.807  672.807
 gspace_mixing                      299  6.0    8.045    8.045  569.274  569.274
 broyden_mixing                     299  7.0  514.343  514.343  514.346  514.346
 rebuild_ks_matrix                  301  7.0    0.001    0.001  226.387  226.387
 qs_ks_build_kohn_sham_matrix       301  8.0    0.084    0.084  226.386  226.386
 qs_ks_update_qs_env                300  6.0    0.004    0.004  225.943  225.943
 pw_transfer                       3912  9.9    0.326    0.326  221.868  221.868
 fft_wrap_pw1pw2                   3310 10.9    0.043    0.043  216.171  216.171
 qs_rho_update_rho                  301  6.0    0.004    0.004  211.097  211.097
 calculate_rho_elec                 301  7.0  100.115  100.115  211.093  211.093
 fft_wrap_pw1pw2_70                1504 11.2   21.857   21.857  200.681  200.681
 density_rs2pw                      301  8.0    0.029    0.029  108.068  108.068
 fft3d_s                           3311 12.9  101.391  101.391  101.421  101.421
 pw_scatter_s                      1804 13.2   74.906   74.906   74.906   74.906
 pw_poisson_solve                   301  9.0   65.899   65.899   71.383   71.383
 sum_up_and_integrate               301  9.0    3.664    3.664   62.448   62.448
 -------------------------------------------------------------------------------

 The number of warnings for this run is : 1
 
 -------------------------------------------------------------------------------
  **** **** ******  **  PROGRAM ENDED AT                 2021-02-25 21:01:40.772
 ***** ** ***  *** **   PROGRAM RAN ON                                   gnode75
 **    ****   ******    PROGRAM RAN BY                               mayank.modi
 ***** **    ** ** **   PROGRAM PROCESS ID                                 29206
  **** **  *******  **  PROGRAM STOPPED IN /home/mayank.modi/ab-initio-thermodyn
                                           amics-of-water/mayank/cp2k_energy_cal
                                           culations
