 DBCSR| CPU Multiplication driver                                           XSMM
 DBCSR| Multrec recursion limit                                              512
 DBCSR| Multiplication stack size                                           1000
 DBCSR| Maximum elements for images                                    UNLIMITED
 DBCSR| Multiplicative factor virtual images                                   1
 DBCSR| Use multiplication densification                                       T
 DBCSR| Multiplication size stacks                                             3


  **** **** ******  **  PROGRAM STARTED AT               2021-02-27 12:50:12.145
 ***** ** ***  *** **   PROGRAM STARTED ON                               gnode75
 **    ****   ******    PROGRAM STARTED BY                           mayank.modi
 ***** **    ** ** **   PROGRAM PROCESS ID                                 16159
  **** **  *******  **  PROGRAM STARTED IN /home/mayank.modi/ab-initio-thermodyn
                                           amics-of-water/mayank/cp2k_energy_cal
                                           culations

 CP2K| version string:                                          CP2K version 7.1
 CP2K| source code revision number:                                  git:e635599
 CP2K| cp2kflags: omp libint fftw3 libxc xsmm spglib                            
 CP2K| is freely available from                            https://www.cp2k.org/
 CP2K| Program compiled at                          Mon Dec 23 19:23:12 CET 2019
 CP2K| Program compiled on                                                pc9404
 CP2K| Program compiled for                                Linux-x86-64-gfortran
 CP2K| Data directory path                                        /opt/cp2k/data
 CP2K| Input file name                   input_training_correct_cell/input473.in

 GLOBAL| Force Environment number                                              1
 GLOBAL| Basis set file name                                           BASIS_SET
 GLOBAL| Potential file name                                      GTH_POTENTIALS
 GLOBAL| MM Potential file name                                     MM_POTENTIAL
 GLOBAL| Coordinate file name                                      __STD_INPUT__
 GLOBAL| Method name                                                        CP2K
 GLOBAL| Project name                                                   H2O_bulk
 GLOBAL| Preferred FFT library                                             FFTW3
 GLOBAL| Preferred diagonalization lib.                                       SL
 GLOBAL| Run type                                                   ENERGY_FORCE
 GLOBAL| All-to-all communication in single precision                          F
 GLOBAL| FFTs using library dependent lengths                                  F
 GLOBAL| Global print level                                                  LOW
 GLOBAL| MPI I/O enabled                                                       T
 GLOBAL| Total number of message passing processes                             1
 GLOBAL| Number of threads for this process                                   36
 GLOBAL| This output is from process                                           0
 GLOBAL| CPU model name                Intel(R) Xeon(R) CPU E5-2640 v4 @ 2.40GHz
 GLOBAL| CPUID                                                              1002
 GLOBAL| Compiled for CPUID                                                    0

 MEMORY| system memory details [Kb]
 MEMORY|                        rank 0           min           max       average
 MEMORY| MemTotal            131893432     131893432     131893432     131893432
 MEMORY| MemFree             123190548     123190548     123190548     123190548
 MEMORY| Buffers               1045208       1045208       1045208       1045208
 MEMORY| Cached                6257816       6257816       6257816       6257816
 MEMORY| Slab                   961104        961104        961104        961104
 MEMORY| SReclaimable           704992        704992        704992        704992
 MEMORY| MemLikelyFree       131198564     131198564     131198564     131198564


 GENERATE|  Preliminary Number of Bonds generated:                             0
 GENERATE|  Achieved consistency in connectivity generation.

 *******************************************************************************
 *******************************************************************************
 **                                                                           **
 **     #####                         ##              ##                      **
 **    ##   ##            ##          ##              ##                      **
 **   ##     ##                       ##            ######                    **
 **   ##     ##  ##   ##  ##   #####  ##  ##   ####   ##    #####    #####    **
 **   ##     ##  ##   ##  ##  ##      ## ##   ##      ##   ##   ##  ##   ##   **
 **   ##  ## ##  ##   ##  ##  ##      ####     ###    ##   ######   ######    **
 **    ##  ###   ##   ##  ##  ##      ## ##      ##   ##   ##       ##        **
 **     #######   #####   ##   #####  ##  ##  ####    ##    #####   ##        **
 **           ##                                                    ##        **
 **                                                                           **
 **                                                ... make the atoms dance   **
 **                                                                           **
 **            Copyright (C) by CP2K developers group (2000 - 2019)           **
 **                                                                           **
 *******************************************************************************


 TOTAL NUMBERS AND MAXIMUM NUMBERS

  Total number of            - Atomic kinds:                                   2
                             - Atoms:                                        192
                             - Shell sets:                                   384
                             - Shells:                                       704
                             - Primitive Cartesian functions:                960
                             - Cartesian basis functions:                   1536
                             - Spherical basis functions:                   1472

  Maximum angular momentum of- Orbital basis functions:                        2
                             - Local part of the GTH pseudopotential:          2
                             - Non-local part of the GTH pseudopotential:      0


 SCF PARAMETERS         Density guess:                                    ATOMIC
                        --------------------------------------------------------
                        max_scf:                                             300
                        max_scf_history:                                       0
                        max_diis:                                              4
                        --------------------------------------------------------
                        eps_scf:                                        1.00E-07
                        eps_scf_history:                                0.00E+00
                        eps_diis:                                       1.00E-01
                        eps_eigval:                                     1.00E-05
                        --------------------------------------------------------
                        level_shift [a.u.]:                                 0.00
                        --------------------------------------------------------
                        Mixing method:                            BROYDEN_MIXING
                                                charge density mixing in g-space
                        --------------------------------------------------------
                        No outer SCF

 Number of electrons:                                                        512
 Number of occupied orbitals:                                                256
 Number of molecular orbitals:                                               256

 Number of orbital functions:                                               1472
 Number of independent orbital functions:                                   1472

 Extrapolation method: initial_guess


 SCF WAVEFUNCTION OPTIMIZATION

  Step     Update method      Time    Convergence         Total energy    Change
  ------------------------------------------------------------------------------
     1 NoMix/Diag. 0.40E+00    7.0     0.67386505     -1063.7959737190 -1.06E+03
     2 Broy./Diag. 0.40E+00    7.7     1.94707824      -991.7795873462  7.20E+01
     3 Broy./Diag. 0.40E+00    7.8     1.93159861     -1278.9763496485 -2.87E+02
     4 Broy./Diag. 0.40E+00    8.0     1.72212828     -1131.7043156271  1.47E+02
     5 Broy./Diag. 0.40E+00    8.1     1.73186384     -1089.7361920337  4.20E+01
     6 Broy./Diag. 0.40E+00    8.2     1.89056740     -1099.8757664091 -1.01E+01
     7 Broy./Diag. 0.40E+00    8.3     1.68382559     -1099.6492036017  2.27E-01
     8 Broy./Diag. 0.40E+00    8.4     1.89767069     -1085.2198767148  1.44E+01
     9 Broy./Diag. 0.40E+00    8.6     1.50096451     -1076.9091010346  8.31E+00
    10 Broy./Diag. 0.40E+00    8.7     1.59788425     -1070.0625777478  6.85E+00
    11 Broy./Diag. 0.40E+00    8.7     1.42807203     -1072.3139997555 -2.25E+00
    12 Broy./Diag. 0.40E+00    8.7     1.50722958     -1073.6032439154 -1.29E+00
    13 Broy./Diag. 0.40E+00    8.6     1.63437656     -1069.5568503706  4.05E+00
    14 Broy./Diag. 0.40E+00    8.4     1.68620930     -1078.6644227186 -9.11E+00
    15 Broy./Diag. 0.40E+00    8.7     1.78953197     -1079.6891151339 -1.02E+00
    16 Broy./Diag. 0.40E+00    8.8     1.81515250     -1082.0803500845 -2.39E+00
    17 Broy./Diag. 0.40E+00    8.6     1.55669652     -1082.2806760989 -2.00E-01
    18 Broy./Diag. 0.40E+00    8.9     1.77490567     -1070.8580744311  1.14E+01
    19 Broy./Diag. 0.40E+00    8.6     1.82509839     -1075.7790016685 -4.92E+00
    20 Broy./Diag. 0.40E+00    8.7     1.51426435     -1075.3682874923  4.11E-01
    21 Broy./Diag. 0.40E+00    8.9     1.53436140     -1075.6514801450 -2.83E-01
    22 Broy./Diag. 0.40E+00    8.8     1.29996503     -1072.9903061072  2.66E+00
    23 Broy./Diag. 0.40E+00    8.6     1.39586345     -1078.1203568868 -5.13E+00
    24 Broy./Diag. 0.40E+00    8.8     1.36734866     -1073.4779119458  4.64E+00
    25 Broy./Diag. 0.40E+00    8.7     1.54306524     -1075.8271584110 -2.35E+00
    26 Broy./Diag. 0.40E+00    8.8     1.45840264     -1075.5097839919  3.17E-01
    27 Broy./Diag. 0.40E+00    8.7     1.15911716     -1079.1426982117 -3.63E+00
    28 Broy./Diag. 0.40E+00    8.6     1.78369711     -1074.6142918675  4.53E+00
    29 Broy./Diag. 0.40E+00    8.6     1.70160761     -1078.4227335831 -3.81E+00
    30 Broy./Diag. 0.40E+00    8.8     1.80528119     -1078.2877913626  1.35E-01
    31 Broy./Diag. 0.40E+00    8.7     1.69407536     -1075.0138400011  3.27E+00
    32 Broy./Diag. 0.40E+00    8.5     1.79264427     -1075.3628012820 -3.49E-01
    33 Broy./Diag. 0.40E+00    8.6     1.79495219     -1077.0311668924 -1.67E+00
    34 Broy./Diag. 0.40E+00    8.6     1.21317122     -1073.2326279415  3.80E+00
    35 Broy./Diag. 0.40E+00    8.8     1.68441015     -1072.2787932127  9.54E-01
    36 Broy./Diag. 0.40E+00    9.4     1.66855864     -1081.4003356041 -9.12E+00
    37 Broy./Diag. 0.40E+00    8.6     1.46201544     -1079.5426803001  1.86E+00
    38 Broy./Diag. 0.40E+00    8.7     1.34180391     -1073.5234546795  6.02E+00
    39 Broy./Diag. 0.40E+00    8.8     1.47973103     -1076.6102432993 -3.09E+00
    40 Broy./Diag. 0.40E+00    8.7     1.63088321     -1076.9088595184 -2.99E-01
    41 Broy./Diag. 0.40E+00    8.7     1.70730603     -1075.4719793059  1.44E+00
    42 Broy./Diag. 0.40E+00    8.7     1.75931772     -1074.3840389638  1.09E+00
    43 Broy./Diag. 0.40E+00    8.5     1.82379058     -1076.1340975603 -1.75E+00
    44 Broy./Diag. 0.40E+00    8.5     1.24627623     -1073.3522555963  2.78E+00
    45 Broy./Diag. 0.40E+00    8.5     1.41954957     -1071.3623491245  1.99E+00
    46 Broy./Diag. 0.40E+00    8.8     1.40889101     -1077.0294741862 -5.67E+00
    47 Broy./Diag. 0.40E+00    8.8     1.18244126     -1080.8121762740 -3.78E+00
    48 Broy./Diag. 0.40E+00    8.5     1.53236371     -1073.5111043945  7.30E+00
    49 Broy./Diag. 0.40E+00    8.7     1.71032961     -1076.7270682951 -3.22E+00
    50 Broy./Diag. 0.40E+00    8.7     1.51018524     -1074.8001242957  1.93E+00
    51 Broy./Diag. 0.40E+00    8.5     1.50473947     -1076.3483288956 -1.55E+00
    52 Broy./Diag. 0.40E+00    8.7     1.74827344     -1074.6661744707  1.68E+00
    53 Broy./Diag. 0.40E+00    8.8     1.81022502     -1075.6361893565 -9.70E-01
    54 Broy./Diag. 0.40E+00    8.7     1.30753118     -1072.5160727177  3.12E+00
    55 Broy./Diag. 0.40E+00    8.6     1.71467265     -1077.1827402627 -4.67E+00
    56 Broy./Diag. 0.40E+00    8.8     1.78892660     -1077.3675795363 -1.85E-01
    57 Broy./Diag. 0.40E+00    8.7     1.28085227     -1079.5810791301 -2.21E+00
    58 Broy./Diag. 0.40E+00    8.7     1.57595096     -1073.7776456966  5.80E+00
    59 Broy./Diag. 0.40E+00    8.5     1.70297489     -1075.9985266063 -2.22E+00
    60 Broy./Diag. 0.40E+00    8.7     1.03605183     -1073.4329172315  2.57E+00
    61 Broy./Diag. 0.40E+00    8.6     0.93795069     -1076.6020051384 -3.17E+00
    62 Broy./Diag. 0.40E+00    8.4     1.46380486     -1072.9811919354  3.62E+00
    63 Broy./Diag. 0.40E+00    8.8     1.41158675     -1078.7273204931 -5.75E+00
    64 Broy./Diag. 0.40E+00    8.6     1.51618487     -1078.0127525248  7.15E-01
    65 Broy./Diag. 0.40E+00    8.4     1.48290600     -1077.2385256168  7.74E-01
    66 Broy./Diag. 0.40E+00    8.5     1.78083103     -1078.3044330853 -1.07E+00
    67 Broy./Diag. 0.40E+00    8.7     1.68349670     -1075.3223314354  2.98E+00
    68 Broy./Diag. 0.40E+00    8.9     1.77421367     -1075.6955924009 -3.73E-01
    69 Broy./Diag. 0.40E+00    8.7     1.78443996     -1075.4521111953  2.43E-01
    70 Broy./Diag. 0.40E+00    8.3     1.76175786     -1074.6576667070  7.94E-01
    71 Broy./Diag. 0.40E+00    8.3     1.79129445     -1077.6611038080 -3.00E+00
    72 Broy./Diag. 0.40E+00    8.3     1.79006663     -1071.4290830071  6.23E+00
    73 Broy./Diag. 0.40E+00    8.6     1.79669222     -1081.5820102104 -1.02E+01
    74 Broy./Diag. 0.40E+00    8.5     1.59782728     -1075.6745740068  5.91E+00
    75 Broy./Diag. 0.40E+00    8.6     1.44929585     -1074.2184520946  1.46E+00
    76 Broy./Diag. 0.40E+00    8.7     1.53594810     -1078.0331601378 -3.81E+00
    77 Broy./Diag. 0.40E+00    8.7     0.91783449     -1073.7455743672  4.29E+00
    78 Broy./Diag. 0.40E+00    8.7     1.08954469     -1074.4046484123 -6.59E-01
    79 Broy./Diag. 0.40E+00    8.5     1.56911657     -1072.1832889230  2.22E+00
    80 Broy./Diag. 0.40E+00    8.6     1.49714933     -1078.9867787423 -6.80E+00
    81 Broy./Diag. 0.40E+00    8.7     1.78376313     -1076.6154577711  2.37E+00
    82 Broy./Diag. 0.40E+00    8.7     1.80643779     -1076.6943772503 -7.89E-02
    83 Broy./Diag. 0.40E+00    8.7     1.48046023     -1075.1719757992  1.52E+00
    84 Broy./Diag. 0.40E+00    8.5     1.54821424     -1074.8629582568  3.09E-01
    85 Broy./Diag. 0.40E+00    8.3     1.52920033     -1074.6096292216  2.53E-01
    86 Broy./Diag. 0.40E+00    8.4     1.55901127     -1072.9244428986  1.69E+00
    87 Broy./Diag. 0.40E+00    8.2     1.56135840     -1075.0495873012 -2.13E+00
    88 Broy./Diag. 0.40E+00    8.7     1.60067159     -1077.0838231420 -2.03E+00
    89 Broy./Diag. 0.40E+00    8.8     1.65539887     -1079.5201127109 -2.44E+00
    90 Broy./Diag. 0.40E+00    8.7     1.37347223     -1074.5675288124  4.95E+00
    91 Broy./Diag. 0.40E+00    8.8     1.65684494     -1073.7996810409  7.68E-01
    92 Broy./Diag. 0.40E+00    8.6     1.70483610     -1075.9265546925 -2.13E+00
    93 Broy./Diag. 0.40E+00    8.9     1.75616300     -1074.2964362237  1.63E+00
    94 Broy./Diag. 0.40E+00    8.6     1.79886440     -1079.0134785614 -4.72E+00
    95 Broy./Diag. 0.40E+00    8.4     1.74638143     -1075.4921421176  3.52E+00
    96 Broy./Diag. 0.40E+00    8.8     1.26832731     -1073.4940588393  2.00E+00
    97 Broy./Diag. 0.40E+00    8.7     1.76930012     -1072.0320152374  1.46E+00
    98 Broy./Diag. 0.40E+00    8.9     1.80541769     -1080.2493282417 -8.22E+00
    99 Broy./Diag. 0.40E+00    8.5     1.53210522     -1079.6729266937  5.76E-01
   100 Broy./Diag. 0.40E+00    8.7     1.51092450     -1074.7128778389  4.96E+00
   101 Broy./Diag. 0.40E+00    8.7     1.41285232     -1073.8834048106  8.29E-01
   102 Broy./Diag. 0.40E+00    8.6     0.70029104     -1074.8502718528 -9.67E-01
   103 Broy./Diag. 0.40E+00    8.5     1.76355188     -1071.9890871288  2.86E+00
   104 Broy./Diag. 0.40E+00    8.4     1.79708721     -1076.9473682482 -4.96E+00
   105 Broy./Diag. 0.40E+00    8.4     1.14635164     -1075.6184369041  1.33E+00
   106 Broy./Diag. 0.40E+00    8.7     1.32281076     -1073.1395214178  2.48E+00
   107 Broy./Diag. 0.40E+00    8.8     1.20445426     -1077.2898356658 -4.15E+00
   108 Broy./Diag. 0.40E+00    8.6     1.47143020     -1078.7571672056 -1.47E+00
   109 Broy./Diag. 0.40E+00    8.6     1.54944887     -1075.7872242640  2.97E+00
   110 Broy./Diag. 0.40E+00    8.7     1.48851576     -1078.1384573384 -2.35E+00
   111 Broy./Diag. 0.40E+00    8.6     1.44507078     -1074.2342360449  3.90E+00
   112 Broy./Diag. 0.40E+00    8.7     1.49810204     -1073.3195538013  9.15E-01
   113 Broy./Diag. 0.40E+00    8.7     1.46465836     -1073.3978660113 -7.83E-02
   114 Broy./Diag. 0.40E+00    8.7     1.82900254     -1076.3499314782 -2.95E+00
   115 Broy./Diag. 0.40E+00    8.7     1.37731538     -1073.9382326010  2.41E+00
   116 Broy./Diag. 0.40E+00    8.8     1.42799954     -1073.6031884683  3.35E-01
   117 Broy./Diag. 0.40E+00    8.6     1.75958788     -1075.4634920296 -1.86E+00
   118 Broy./Diag. 0.40E+00    8.7     1.80685823     -1076.2736553707 -8.10E-01
   119 Broy./Diag. 0.40E+00    8.8     1.71040073     -1076.0238438591  2.50E-01
   120 Broy./Diag. 0.40E+00    8.7     1.52733700     -1078.7525888152 -2.73E+00
   121 Broy./Diag. 0.40E+00    8.7     1.55924119     -1073.9489914471  4.80E+00
   122 Broy./Diag. 0.40E+00    8.7     1.22347290     -1073.7739278886  1.75E-01
   123 Broy./Diag. 0.40E+00    8.6     1.75519759     -1075.6844263103 -1.91E+00
   124 Broy./Diag. 0.40E+00    8.7     1.82267582     -1075.5346600164  1.50E-01
   125 Broy./Diag. 0.40E+00    8.7     1.33272201     -1073.2670132209  2.27E+00
   126 Broy./Diag. 0.40E+00    8.8     1.35147629     -1074.2824118594 -1.02E+00
   127 Broy./Diag. 0.40E+00    8.6     1.55471421     -1076.4024100191 -2.12E+00
   128 Broy./Diag. 0.40E+00    8.3     1.73589382     -1076.5162490874 -1.14E-01
   129 Broy./Diag. 0.40E+00    8.5     1.55358294     -1074.3706622873  2.15E+00
   130 Broy./Diag. 0.40E+00    8.7     1.54354698     -1077.6854580655 -3.31E+00
   131 Broy./Diag. 0.40E+00    8.6     1.49211793     -1073.1667501246  4.52E+00
   132 Broy./Diag. 0.40E+00    8.7     1.40214953     -1082.7533041355 -9.59E+00
   133 Broy./Diag. 0.40E+00    8.5     1.78316234     -1075.0880793655  7.67E+00
   134 Broy./Diag. 0.40E+00    8.3     1.81329453     -1076.9075037497 -1.82E+00
   135 Broy./Diag. 0.40E+00    8.6     1.78108768     -1074.7414606478  2.17E+00
   136 Broy./Diag. 0.40E+00    8.7     1.38443693     -1073.7834849826  9.58E-01
   137 Broy./Diag. 0.40E+00    8.7     1.65396044     -1077.2692955032 -3.49E+00
   138 Broy./Diag. 0.40E+00    8.8     1.76212292     -1075.3900294067  1.88E+00
   139 Broy./Diag. 0.40E+00    8.7     1.77355237     -1075.8006236518 -4.11E-01
   140 Broy./Diag. 0.40E+00    8.5     1.76296636     -1077.8352322377 -2.03E+00
   141 Broy./Diag. 0.40E+00    8.2     1.76298869     -1072.1282584708  5.71E+00
   142 Broy./Diag. 0.40E+00    8.3     1.76681848     -1079.8789037548 -7.75E+00
   143 Broy./Diag. 0.40E+00    8.3     1.76678530     -1075.3952162066  4.48E+00
   144 Broy./Diag. 0.40E+00    8.4     1.79977522     -1078.2728123693 -2.88E+00
   145 Broy./Diag. 0.40E+00    8.7     1.49413411     -1074.4921046239  3.78E+00
   146 Broy./Diag. 0.40E+00    8.7     1.76393495     -1075.1861523217 -6.94E-01
   147 Broy./Diag. 0.40E+00    8.6     1.78921386     -1077.6623689861 -2.48E+00
   148 Broy./Diag. 0.40E+00    8.7     1.63137094     -1076.7872194267  8.75E-01
   149 Broy./Diag. 0.40E+00    8.6     1.43774698     -1073.5907178541  3.20E+00
   150 Broy./Diag. 0.40E+00    8.9     1.60211191     -1076.2912388947 -2.70E+00
   151 Broy./Diag. 0.40E+00    8.8     1.76434624     -1073.2523620653  3.04E+00
   152 Broy./Diag. 0.40E+00    8.7     1.82457157     -1076.1381307506 -2.89E+00
   153 Broy./Diag. 0.40E+00    8.6     1.50893614     -1079.3700769519 -3.23E+00
   154 Broy./Diag. 0.40E+00    8.7     1.79828216     -1071.9524958808  7.42E+00
   155 Broy./Diag. 0.40E+00    8.6     1.78365003     -1081.0454237239 -9.09E+00
   156 Broy./Diag. 0.40E+00    8.4     1.50206803     -1076.3851981556  4.66E+00
   157 Broy./Diag. 0.40E+00    8.2     1.59091624     -1078.4118837375 -2.03E+00
   158 Broy./Diag. 0.40E+00    8.4     1.18803033     -1073.9738228971  4.44E+00
   159 Broy./Diag. 0.40E+00    8.6     0.99307654     -1073.8742109246  9.96E-02
   160 Broy./Diag. 0.40E+00    8.7     1.75925188     -1072.1376608349  1.74E+00
   161 Broy./Diag. 0.40E+00    8.5     1.78501762     -1077.5187952370 -5.38E+00
   162 Broy./Diag. 0.40E+00    8.5     1.54324194     -1074.9038711724  2.61E+00
   163 Broy./Diag. 0.40E+00    8.6     1.43986881     -1074.3679795819  5.36E-01
   164 Broy./Diag. 0.40E+00    8.4     1.76174003     -1076.5933511547 -2.23E+00
   165 Broy./Diag. 0.40E+00    8.6     1.79237299     -1079.0057300912 -2.41E+00
   166 Broy./Diag. 0.40E+00    8.9     1.77904662     -1073.2870856627  5.72E+00
   167 Broy./Diag. 0.40E+00    8.6     1.72111897     -1077.6736254699 -4.39E+00
   168 Broy./Diag. 0.40E+00    8.8     1.51765675     -1073.0563794353  4.62E+00
   169 Broy./Diag. 0.40E+00    8.8     1.53963610     -1073.2171781784 -1.61E-01
   170 Broy./Diag. 0.40E+00    8.7     1.47646869     -1073.6989776288 -4.82E-01
   171 Broy./Diag. 0.40E+00    8.6     1.49774522     -1074.8895423535 -1.19E+00
   172 Broy./Diag. 0.40E+00    8.6     1.80184236     -1075.7641236135 -8.75E-01
   173 Broy./Diag. 0.40E+00    8.6     1.79764829     -1081.8343017961 -6.07E+00
   174 Broy./Diag. 0.40E+00    8.7     1.67053606     -1076.0176802170  5.82E+00
   175 Broy./Diag. 0.40E+00    8.8     1.81037537     -1071.4424157706  4.58E+00
   176 Broy./Diag. 0.40E+00    8.7     1.81368391     -1078.5146824774 -7.07E+00
   177 Broy./Diag. 0.40E+00    8.7     1.40583568     -1081.5856752576 -3.07E+00
   178 Broy./Diag. 0.40E+00    8.8     1.15635388     -1074.7333789753  6.85E+00
   179 Broy./Diag. 0.40E+00    8.7     1.41001067     -1073.2943941087  1.44E+00
   180 Broy./Diag. 0.40E+00    8.9     1.63516145     -1074.2221952977 -9.28E-01
   181 Broy./Diag. 0.40E+00    8.6     1.51317368     -1075.5233104379 -1.30E+00
   182 Broy./Diag. 0.40E+00    8.8     1.51524314     -1077.2976448220 -1.77E+00
   183 Broy./Diag. 0.40E+00    8.8     1.52877576     -1073.7184175744  3.58E+00
   184 Broy./Diag. 0.40E+00    8.8     1.37414732     -1074.5737147105 -8.55E-01
   185 Broy./Diag. 0.40E+00    8.5     1.75236991     -1073.2495413223  1.32E+00
   186 Broy./Diag. 0.40E+00    8.4     1.46384673     -1083.4275622399 -1.02E+01
   187 Broy./Diag. 0.40E+00    8.5     1.80846155     -1077.0124388319  6.42E+00
   188 Broy./Diag. 0.40E+00    8.7     1.42056561     -1078.9891061243 -1.98E+00
   189 Broy./Diag. 0.40E+00    8.7     1.59441706     -1074.0692932592  4.92E+00
   190 Broy./Diag. 0.40E+00    8.6     1.76293610     -1074.3615058193 -2.92E-01
   191 Broy./Diag. 0.40E+00    8.8     1.51271242     -1074.2910586400  7.04E-02
   192 Broy./Diag. 0.40E+00    8.8     1.28219174     -1077.7646274945 -3.47E+00
   193 Broy./Diag. 0.40E+00    8.6     1.45625382     -1073.4870475752  4.28E+00
   194 Broy./Diag. 0.40E+00    8.5     1.76355682     -1073.3847279449  1.02E-01
   195 Broy./Diag. 0.40E+00    8.4     1.81451093     -1076.2049543286 -2.82E+00
   196 Broy./Diag. 0.40E+00    8.5     1.24979494     -1074.7300243034  1.47E+00
   197 Broy./Diag. 0.40E+00    8.5     1.46256033     -1073.4662624549  1.26E+00
   198 Broy./Diag. 0.40E+00    8.6     1.52088473     -1080.3909330662 -6.92E+00
   199 Broy./Diag. 0.40E+00    8.7     1.55498494     -1076.7245240599  3.67E+00
   200 Broy./Diag. 0.40E+00    8.7     1.71607163     -1071.2858015038  5.44E+00
   201 Broy./Diag. 0.40E+00    8.6     1.65293027     -1080.1675181270 -8.88E+00
   202 Broy./Diag. 0.40E+00    8.9     1.29835300     -1080.4542220485 -2.87E-01
   203 Broy./Diag. 0.40E+00    8.7     1.49237110     -1074.3328604321  6.12E+00
   204 Broy./Diag. 0.40E+00    8.6     1.75258503     -1073.6756785219  6.57E-01
   205 Broy./Diag. 0.40E+00    8.8     1.81953803     -1075.3971332982 -1.72E+00
   206 Broy./Diag. 0.40E+00    9.0     1.77622280     -1073.9213356608  1.48E+00
   207 Broy./Diag. 0.40E+00    8.8     1.78903925     -1071.7575824066  2.16E+00
   208 Broy./Diag. 0.40E+00    8.5     1.31519892     -1079.3760716270 -7.62E+00
   209 Broy./Diag. 0.40E+00    8.2     1.43357698     -1077.7415615137  1.63E+00
   210 Broy./Diag. 0.40E+00    8.7     1.29431205     -1072.6371216542  5.10E+00
   211 Broy./Diag. 0.40E+00    8.6     1.31214852     -1077.7752018862 -5.14E+00
   212 Broy./Diag. 0.40E+00    8.6     1.20190644     -1080.1879150660 -2.41E+00
   213 Broy./Diag. 0.40E+00    8.7     1.42023185     -1072.4579177555  7.73E+00
   214 Broy./Diag. 0.40E+00    8.9     1.76804036     -1076.4391117113 -3.98E+00
   215 Broy./Diag. 0.40E+00    8.7     1.77790891     -1078.5868104357 -2.15E+00
   216 Broy./Diag. 0.40E+00    8.7     1.56684332     -1076.2647001225  2.32E+00
   217 Broy./Diag. 0.40E+00    8.8     1.27666020     -1073.7830715300  2.48E+00
   218 Broy./Diag. 0.40E+00    8.7     1.75332475     -1074.4379862187 -6.55E-01
   219 Broy./Diag. 0.40E+00    8.6     1.76454060     -1074.2383020506  2.00E-01
   220 Broy./Diag. 0.40E+00    8.5     1.75697064     -1076.0387716696 -1.80E+00
   221 Broy./Diag. 0.40E+00    8.5     1.82133261     -1074.5724190349  1.47E+00
   222 Broy./Diag. 0.40E+00    8.8     1.46259552     -1081.6833094052 -7.11E+00
   223 Broy./Diag. 0.40E+00    8.8     1.48506246     -1075.8010164947  5.88E+00
   224 Broy./Diag. 0.40E+00    8.5     1.14924378     -1073.7174167845  2.08E+00
   225 Broy./Diag. 0.40E+00    8.7     1.49902533     -1075.3376317477 -1.62E+00
   226 Broy./Diag. 0.40E+00    8.8     1.77728746     -1078.2102232753 -2.87E+00
   227 Broy./Diag. 0.40E+00    8.8     1.82262934     -1080.0460788213 -1.84E+00
   228 Broy./Diag. 0.40E+00    8.5     1.71642788     -1073.7963791406  6.25E+00
   229 Broy./Diag. 0.40E+00    8.4     1.69743098     -1073.3610824778  4.35E-01
   230 Broy./Diag. 0.40E+00    8.4     1.62801057     -1077.5776355143 -4.22E+00
   231 Broy./Diag. 0.40E+00    8.8     1.69761514     -1073.5667047075  4.01E+00
   232 Broy./Diag. 0.40E+00    8.7     1.77568247     -1077.2057881898 -3.64E+00
   233 Broy./Diag. 0.40E+00    8.6     1.59941192     -1075.1062511285  2.10E+00
   234 Broy./Diag. 0.40E+00    8.5     1.19193820     -1075.1308284010 -2.46E-02
   235 Broy./Diag. 0.40E+00    8.5     1.77234108     -1074.8921114734  2.39E-01
   236 Broy./Diag. 0.40E+00    8.7     1.81491754     -1076.0682901894 -1.18E+00
   237 Broy./Diag. 0.40E+00    8.7     1.28475397     -1076.5618311209 -4.94E-01
   238 Broy./Diag. 0.40E+00    8.8     1.68110888     -1073.2247995687  3.34E+00
   239 Broy./Diag. 0.40E+00    8.7     1.76765803     -1073.8486053747 -6.24E-01
   240 Broy./Diag. 0.40E+00    8.6     1.54521451     -1073.6193590141  2.29E-01
   241 Broy./Diag. 0.40E+00    8.8     1.56322435     -1079.5480567172 -5.93E+00
   242 Broy./Diag. 0.40E+00    8.7     1.65846501     -1074.0731482019  5.47E+00
   243 Broy./Diag. 0.40E+00    8.6     1.76626502     -1076.4490121896 -2.38E+00
   244 Broy./Diag. 0.40E+00    9.0     1.20439569     -1073.7040449269  2.74E+00
   245 Broy./Diag. 0.40E+00    8.8     1.78215229     -1073.4542180168  2.50E-01
   246 Broy./Diag. 0.40E+00    8.7     1.83426487     -1074.6936655273 -1.24E+00
   247 Broy./Diag. 0.40E+00    8.8     1.82264160     -1075.5041519060 -8.10E-01
   248 Broy./Diag. 0.40E+00    8.8     1.76953449     -1078.9361673805 -3.43E+00
   249 Broy./Diag. 0.40E+00    8.7     1.15381787     -1074.0014527119  4.93E+00
   250 Broy./Diag. 0.40E+00    8.7     1.74944944     -1072.4868307594  1.51E+00
   251 Broy./Diag. 0.40E+00    8.7     1.78978332     -1080.3465280364 -7.86E+00
   252 Broy./Diag. 0.40E+00    8.6     1.41177374     -1073.3631572485  6.98E+00
   253 Broy./Diag. 0.40E+00    8.6     1.65738455     -1078.0927584558 -4.73E+00
   254 Broy./Diag. 0.40E+00    8.5     1.14388148     -1076.5489402235  1.54E+00
   255 Broy./Diag. 0.40E+00    8.5     1.46878450     -1072.6239457806  3.92E+00
   256 Broy./Diag. 0.40E+00    8.3     1.67437641     -1077.0065391994 -4.38E+00
   257 Broy./Diag. 0.40E+00    8.7     1.77511992     -1077.0051678484  1.37E-03
   258 Broy./Diag. 0.40E+00    8.8     1.78969997     -1078.4232001433 -1.42E+00
   259 Broy./Diag. 0.40E+00    8.7     1.18972047     -1074.6141458853  3.81E+00
   260 Broy./Diag. 0.40E+00    8.9     1.77433237     -1072.2035903991  2.41E+00
   261 Broy./Diag. 0.40E+00    8.7     1.77521253     -1082.1441479659 -9.94E+00
   262 Broy./Diag. 0.40E+00    8.6     1.49849656     -1074.8589642359  7.29E+00
   263 Broy./Diag. 0.40E+00    8.2     1.52967691     -1074.6668683575  1.92E-01
   264 Broy./Diag. 0.40E+00    8.7     1.38768668     -1077.3933091749 -2.73E+00
   265 Broy./Diag. 0.40E+00    8.7     1.75033956     -1076.9662178968  4.27E-01
   266 Broy./Diag. 0.40E+00    8.8     1.79839729     -1076.2655630664  7.01E-01
   267 Broy./Diag. 0.40E+00    8.6     1.58274305     -1074.3933049177  1.87E+00
   268 Broy./Diag. 0.40E+00    8.7     1.62121782     -1078.1239254919 -3.73E+00
   269 Broy./Diag. 0.40E+00    8.5     1.23656484     -1076.5360719126  1.59E+00
   270 Broy./Diag. 0.40E+00    8.6     1.53922492     -1075.4849060436  1.05E+00
   271 Broy./Diag. 0.40E+00    8.9     1.68179896     -1072.8707091483  2.61E+00
   272 Broy./Diag. 0.40E+00    8.6     1.76067920     -1073.4619779618 -5.91E-01
   273 Broy./Diag. 0.40E+00    8.7     1.06359670     -1073.2356894413  2.26E-01
   274 Broy./Diag. 0.40E+00    8.6     1.19024462     -1075.6805840470 -2.44E+00
   275 Broy./Diag. 0.40E+00    8.7     1.79376975     -1076.7292893002 -1.05E+00
   276 Broy./Diag. 0.40E+00    8.8     1.79963924     -1075.5931056565  1.14E+00
   277 Broy./Diag. 0.40E+00    8.6     1.57424925     -1074.5768732249  1.02E+00
   278 Broy./Diag. 0.40E+00    8.6     1.72201016     -1078.7615606849 -4.18E+00
   279 Broy./Diag. 0.40E+00    8.8     1.56543560     -1073.6828727516  5.08E+00
   280 Broy./Diag. 0.40E+00    8.7     1.72971364     -1074.4768146546 -7.94E-01
   281 Broy./Diag. 0.40E+00    8.7     1.82077012     -1075.3322235275 -8.55E-01
   282 Broy./Diag. 0.40E+00    8.7     1.76992643     -1075.9857697072 -6.54E-01
   283 Broy./Diag. 0.40E+00    8.7     1.43582942     -1073.0697362086  2.92E+00
   284 Broy./Diag. 0.40E+00    8.8     1.49569712     -1075.5021124930 -2.43E+00
   285 Broy./Diag. 0.40E+00    9.0     1.66295923     -1076.1446736703 -6.43E-01
   286 Broy./Diag. 0.40E+00    8.7     1.75559344     -1074.6205250948  1.52E+00
   287 Broy./Diag. 0.40E+00    8.7     1.45147478     -1074.7958284339 -1.75E-01
   288 Broy./Diag. 0.40E+00    8.9     1.56219873     -1074.5691644808  2.27E-01
   289 Broy./Diag. 0.40E+00    8.7     1.22885988     -1074.6557993122 -8.66E-02
   290 Broy./Diag. 0.40E+00    8.6     1.77171406     -1075.9037339171 -1.25E+00
   291 Broy./Diag. 0.40E+00    8.4     1.79509456     -1075.2455253565  6.58E-01
   292 Broy./Diag. 0.40E+00    8.4     1.77053442     -1073.3134463194  1.93E+00
   293 Broy./Diag. 0.40E+00    8.8     1.65527894     -1082.5592900653 -9.25E+00
   294 Broy./Diag. 0.40E+00    8.6     1.78676186     -1076.8743821360  5.68E+00
   295 Broy./Diag. 0.40E+00    8.7     1.17554580     -1077.4392340998 -5.65E-01
   296 Broy./Diag. 0.40E+00    8.5     1.16479451     -1074.3765335932  3.06E+00
   297 Broy./Diag. 0.40E+00    8.2     1.49551900     -1074.3703106857  6.22E-03
   298 Broy./Diag. 0.40E+00    8.8     1.48203706     -1077.6450379137 -3.27E+00
   299 Broy./Diag. 0.40E+00    8.6     1.48323257     -1074.1658007677  3.48E+00
   300 Broy./Diag. 0.40E+00    8.6     1.58458078     -1075.0157898566 -8.50E-01

  Leaving inner SCF loop after reaching   300 steps.


  Electronic density on regular grids:       -512.0004517379       -0.0004517379
  Core density on regular grids:              511.9997301417       -0.0002698583
  Total charge density on r-space grids:       -0.0007215962
  Total charge density g-space grids:          -0.0007215962

  Overlap energy of the core charge distribution:               0.00000000000000
  Self energy of the core charge distribution:              -2838.21791979120962
  Core Hamiltonian energy:                                    760.13974437932552
  Hartree energy:                                            1241.12757475633180
  Exchange-correlation energy:                               -238.06518920107044

  Total energy:                                             -1075.01578985662309

 *** WARNING in qs_scf.F:542 :: SCF run NOT converged ***


 ENERGY| Total FORCE_EVAL ( QS ) energy (a.u.):            -1074.254987002648022


 ATOMIC FORCES in [a.u.]

 # Atom   Kind   Element          X              Y              Z
      1      1      O          -0.12428808     0.05805964    -0.11375053
      2      2      H           0.05964687    -0.06485401     0.05113673
      3      2      H          -0.02339910     0.07128044     0.01987785
      4      1      O          -0.06040519     0.01563260     0.08011500
      5      2      H          -0.07323598    -0.05219872     0.03495051
      6      2      H          -0.04470814    -0.03560292    -0.04797890
      7      1      O           0.04453348    -0.03368535    -0.04719808
      8      2      H          -0.02887693     0.06086009    -0.03123759
      9      2      H           0.01887956    -0.10304598    -0.00031117
     10      1      O          -0.04367311    -0.06938499     0.15040334
     11      2      H           0.00581829    -0.00709050    -0.09276087
     12      2      H          -0.06850549    -0.05068430     0.00622956
     13      1      O           0.06182031     0.13459962     0.11712511
     14      2      H           0.06268822    -0.03847694     0.06800597
     15      2      H          -0.02632125    -0.01082768    -0.04151580
     16      1      O          -0.13151075    -0.09666815     0.07711102
     17      2      H           0.00187586     0.01665254     0.02870359
     18      2      H           0.06034706    -0.01936752    -0.05184229
     19      1      O          -0.01580755     0.12270236     0.08437412
     20      2      H           0.05945260    -0.00906711     0.03345876
     21      2      H           0.03077833     0.00933980    -0.09431474
     22      1      O           0.12374427     0.14885236     0.01478526
     23      2      H          -0.02687325    -0.05098060    -0.09138766
     24      2      H           0.06283303    -0.06061352    -0.01023629
     25      1      O          -0.00932503    -0.01833329     0.06461770
     26      2      H           0.04961044     0.02760977    -0.05793262
     27      2      H           0.04468984    -0.04985948     0.09190590
     28      1      O          -0.02711381     0.13864788     0.09196353
     29      2      H          -0.07688750     0.00526210    -0.03742023
     30      2      H          -0.00291148    -0.03078494     0.07176045
     31      1      O           0.08028130    -0.18858978    -0.03634655
     32      2      H           0.08990913     0.02469676    -0.01382699
     33      2      H          -0.08419744     0.07464212     0.00887754
     34      1      O          -0.11721812     0.03083470     0.06766470
     35      2      H          -0.05017060     0.05734119    -0.01518458
     36      2      H           0.08661324    -0.07939036    -0.02119466
     37      1      O          -0.02946700     0.12530449     0.07870237
     38      2      H           0.07885153    -0.05901857     0.01498536
     39      2      H          -0.05858883    -0.04048574    -0.00329176
     40      1      O           0.06137609     0.06495649    -0.03570850
     41      2      H           0.06579423    -0.04750806     0.03220031
     42      2      H          -0.11257558    -0.03495787     0.06686383
     43      1      O           0.10822133    -0.11048229    -0.04734290
     44      2      H          -0.04455590     0.04468537     0.05127429
     45      2      H           0.00805335    -0.00856512    -0.03591875
     46      1      O          -0.09310241    -0.02000572     0.02379040
     47      2      H           0.05018560    -0.08219686     0.06304929
     48      2      H           0.09824201     0.06069546    -0.07634791
     49      1      O           0.11023782    -0.15141762     0.04901563
     50      2      H           0.04619442     0.02001669    -0.00688452
     51      2      H          -0.04006402     0.04386158     0.01389357
     52      1      O           0.13490800     0.02362422    -0.08595585
     53      2      H          -0.00405641    -0.03347669     0.01792030
     54      2      H          -0.01925288     0.02209418    -0.00833691
     55      1      O           0.03038551    -0.07415446     0.13521230
     56      2      H          -0.02477903    -0.01292996    -0.01368313
     57      2      H           0.05155609     0.07346804    -0.01975425
     58      1      O          -0.06679324     0.11920709     0.05679074
     59      2      H          -0.06235924     0.01200411     0.03399345
     60      2      H           0.05205369    -0.07334296    -0.01212209
     61      1      O           0.10345032    -0.11235206     0.15034220
     62      2      H           0.05342646    -0.03356061    -0.00036771
     63      2      H          -0.03172904     0.03003055    -0.01766791
     64      1      O          -0.00304727    -0.07391644     0.00611575
     65      2      H          -0.01106949    -0.07755460     0.03969830
     66      2      H           0.03941080     0.03382013    -0.05428738
     67      1      O           0.06723094    -0.06394590     0.05950032
     68      2      H          -0.05907761    -0.08715939    -0.04671406
     69      2      H           0.05467920     0.04639186     0.00071087
     70      1      O          -0.14648134    -0.04060818     0.16445414
     71      2      H          -0.04795509    -0.07886316    -0.01298563
     72      2      H           0.03390312     0.00475935    -0.00037686
     73      1      O          -0.00347843     0.03502769    -0.13189052
     74      2      H           0.05592324    -0.04554535    -0.06173813
     75      2      H          -0.00709614     0.06034066     0.10148906
     76      1      O          -0.12269079     0.05233375    -0.00617119
     77      2      H           0.00805723    -0.02505348     0.01997720
     78      2      H           0.00860673    -0.01536491     0.09794578
     79      1      O           0.04953310     0.10235342    -0.12866537
     80      2      H           0.01955399    -0.03182827     0.03848461
     81      2      H          -0.01209934    -0.01381992     0.00884819
     82      1      O           0.00916403     0.14963893    -0.02672467
     83      2      H           0.03327805     0.03345535    -0.11366340
     84      2      H          -0.07881123    -0.04329694     0.01534912
     85      1      O          -0.02763860     0.00684735     0.14180836
     86      2      H           0.06323732    -0.00206629     0.02209373
     87      2      H          -0.02223121    -0.00277672    -0.07360374
     88      1      O          -0.01844157     0.01883773    -0.02290939
     89      2      H          -0.04099152    -0.01457500     0.00913457
     90      2      H           0.05128243    -0.03833202    -0.03887902
     91      1      O          -0.15133255     0.04848556     0.08714798
     92      2      H           0.03611007    -0.04888949    -0.06532172
     93      2      H           0.01294968     0.05131804     0.02678908
     94      1      O           0.03267776    -0.04829968     0.04949290
     95      2      H           0.03450027    -0.03487921     0.02802214
     96      2      H           0.04053622    -0.01813640    -0.07459700
     97      1      O           0.14378484    -0.00789505    -0.02885663
     98      2      H          -0.04894433     0.06020916    -0.09133128
     99      2      H           0.02780075    -0.05359523     0.04475381
    100      1      O           0.03138321    -0.03961508     0.14992129
    101      2      H          -0.01013713     0.09550658    -0.06289504
    102      2      H          -0.05702119    -0.07747539    -0.00633591
    103      1      O          -0.00513413     0.09040929    -0.09620649
    104      2      H          -0.04867471    -0.10483342     0.04782006
    105      2      H           0.05710988     0.06107457     0.05940184
    106      1      O          -0.07153370    -0.04217670     0.08877267
    107      2      H          -0.01382654     0.00784326    -0.05556946
    108      2      H           0.02393696    -0.09387005     0.00555963
    109      1      O          -0.06503410     0.02914229    -0.08945741
    110      2      H           0.02268732    -0.02415848    -0.03503142
    111      2      H          -0.03191442    -0.06883952    -0.05591394
    112      1      O          -0.06421948    -0.09496108    -0.09403826
    113      2      H           0.04706715     0.03559575     0.07053016
    114      2      H          -0.03384377     0.00639774    -0.02622655
    115      1      O           0.14260856     0.01439572    -0.02634027
    116      2      H          -0.09188837    -0.01534927     0.03531087
    117      2      H          -0.00500603     0.08837077    -0.01981807
    118      1      O          -0.08349519    -0.06056706    -0.10261023
    119      2      H           0.01177213    -0.01429315     0.09004647
    120      2      H           0.02190804     0.09290876    -0.05860781
    121      1      O          -0.10229959    -0.06970616     0.09994547
    122      2      H          -0.01462383    -0.05445281     0.01938074
    123      2      H          -0.10824231    -0.00593405     0.03288287
    124      1      O          -0.07533910     0.05318752    -0.11062415
    125      2      H           0.10926896    -0.02019508    -0.06630802
    126      2      H           0.02604912     0.05558302     0.03535965
    127      1      O           0.13347168     0.04358477    -0.06518854
    128      2      H           0.04375979     0.09179537    -0.03298042
    129      2      H          -0.10421700    -0.02024084    -0.00798896
    130      1      O           0.01195649    -0.07656144    -0.02412473
    131      2      H           0.07927665    -0.06039363     0.05731684
    132      2      H           0.03897515     0.03176287    -0.07814511
    133      1      O          -0.03830850     0.01386842    -0.12845826
    134      2      H          -0.03087290     0.04518480     0.00757919
    135      2      H           0.01723910    -0.03277831     0.00700496
    136      1      O          -0.05275514     0.00239434     0.09981193
    137      2      H           0.02616342    -0.04020992    -0.07560358
    138      2      H          -0.01076902    -0.03943399     0.04069974
    139      1      O          -0.14633634     0.01358361    -0.09545530
    140      2      H          -0.00663225    -0.03485036     0.00098892
    141      2      H           0.05294419     0.08963048    -0.00391948
    142      1      O          -0.02199747    -0.00486842    -0.13942926
    143      2      H          -0.04812188     0.05682548     0.01815441
    144      2      H           0.02927425    -0.01770977     0.05683844
    145      1      O           0.03414434     0.14620490    -0.10970771
    146      2      H           0.04628747    -0.04003301     0.01027750
    147      2      H          -0.08812258    -0.01853484     0.05066399
    148      1      O          -0.03887472     0.04636830     0.10087176
    149      2      H          -0.01703104     0.02956038    -0.04422511
    150      2      H          -0.01574819    -0.09421932    -0.02521458
    151      1      O           0.01185868    -0.12832872     0.05160774
    152      2      H           0.06597363    -0.00319227     0.10380641
    153      2      H           0.05312880     0.08034516    -0.03000302
    154      1      O          -0.05279221    -0.08572703     0.10765193
    155      2      H          -0.07359909    -0.06256901    -0.09650276
    156      2      H          -0.04359665     0.06952058    -0.02836701
    157      1      O          -0.14824114     0.11619466     0.06936710
    158      2      H           0.07229494    -0.02047540     0.02540769
    159      2      H          -0.01975369     0.03023204    -0.05887277
    160      1      O          -0.06394290    -0.13751542    -0.09063598
    161      2      H           0.06288564    -0.05448706     0.00929161
    162      2      H          -0.02918743     0.02455641    -0.00232983
    163      1      O           0.10390627     0.10701571    -0.00932476
    164      2      H           0.06523556     0.00097254     0.09939659
    165      2      H          -0.08423320    -0.04466519     0.00299880
    166      1      O          -0.01850949     0.06271528    -0.02922601
    167      2      H           0.07396148     0.04756396     0.04528018
    168      2      H          -0.01182647    -0.01871507    -0.02580901
    169      1      O           0.04823957    -0.06315078    -0.04379071
    170      2      H          -0.03374980    -0.02404353     0.02482559
    171      2      H           0.05419772     0.04032672     0.01505661
    172      1      O          -0.06641429     0.08179849     0.13880526
    173      2      H          -0.00951630    -0.10124445    -0.04759094
    174      2      H           0.00899853     0.09011417    -0.05486340
    175      1      O           0.03120216    -0.09428621     0.06135463
    176      2      H          -0.00708978     0.03637548     0.01811994
    177      2      H           0.09117001    -0.07321731    -0.04462493
    178      1      O           0.10907580     0.01667358     0.15325971
    179      2      H          -0.00339068    -0.08798999    -0.01953352
    180      2      H          -0.00434498    -0.03607162    -0.04547127
    181      1      O          -0.00452703     0.00409683     0.10933524
    182      2      H          -0.04222817     0.05377175     0.01029115
    183      2      H           0.04691882    -0.01547075     0.01242761
    184      1      O          -0.08060954     0.00743978    -0.02768860
    185      2      H          -0.01461210     0.11920870    -0.05351646
    186      2      H          -0.01080857    -0.09975867    -0.05656258
    187      1      O           0.11896203     0.01429747     0.01254734
    188      2      H           0.02084031     0.04604425     0.00560930
    189      2      H          -0.00193131    -0.02717743     0.08523259
    190      1      O           0.14477017    -0.01034137     0.07132905
    191      2      H           0.00497172     0.03534979    -0.01409504
    192      2      H          -0.06256624     0.00284359     0.00372467
 SUM OF ATOMIC FORCES           0.20092318    -0.61563369     0.67301235     0.93398104

 -------------------------------------------------------------------------------
 -                                                                             -
 -                                DBCSR STATISTICS                             -
 -                                                                             -
 -------------------------------------------------------------------------------
 COUNTER                                    TOTAL       BLAS       SMM       ACC
 flops     5 x     5 x   256           6380236800       0.0%    100.0%      0.0%
 flops     5 x    13 x   256           7703288320       0.0%    100.0%      0.0%
 flops    13 x     5 x   256           7833512960       0.0%    100.0%      0.0%
 flops    13 x    13 x   256          10834690048       0.0%    100.0%      0.0%
 flops inhomo. stacks                           0       0.0%      0.0%      0.0%
 flops total                        32.751728E+09       0.0%    100.0%      0.0%
 flops max/rank                     32.751728E+09       0.0%    100.0%      0.0%
 matmuls inhomo. stacks                         0       0.0%      0.0%      0.0%
 matmuls total                            1090523       0.0%    100.0%      0.0%
 number of processed stacks                 42140       0.0%    100.0%      0.0%
 average stack size                                     0.0      25.9       0.0
 marketing flops                   333.927416E+09
 -------------------------------------------------------------------------------
 # multiplications                            301
 max memory usage/rank               3.579994E+09
 # max total images/rank                        1
 # max 3D layers                                1
 # MPI messages exchanged                       0
 MPI messages size (bytes):
  total size                         0.000000E+00
  min size                           0.000000E+00
  max size                           0.000000E+00
  average size                       0.000000E+00
 MPI breakdown and total messages size (bytes):
             size <=      128                   0                        0
       128 < size <=     8192                   0                        0
      8192 < size <=    32768                   0                        0
     32768 < size <=   131072                   0                        0
    131072 < size <=  4194304                   0                        0
   4194304 < size <= 16777216                   0                        0
  16777216 < size                               0                        0
 -------------------------------------------------------------------------------

 MEMORY| Estimated peak process memory [MiB]                                3413

 -------------------------------------------------------------------------------
 -                                                                             -
 -                           R E F E R E N C E S                               -
 -                                                                             -
 -------------------------------------------------------------------------------
 
 CP2K version 7.1, the CP2K developers group (2019).
 CP2K is freely available from https://www.cp2k.org/ .

 Schuett, Ole; Messmer, Peter; Hutter, Juerg; VandeVondele, Joost. 
 Electronic Structure Calculations on Graphics Processing Units, John
 Wiley & Sons, Ltd, 173-190 (2016). 
 GPU-Accelerated Sparse Matrix-Matrix Multiplication for
 Linear Scaling Density Functional Theory.
 https://dx.doi.org/10.1002/9781118670712.ch8

 Borstnik, U; VandeVondele, J; Weber, V; Hutter, J. 
 PARALLEL COMPUTING, 40 (5-6), 47-58 (2014). 
 Sparse matrix multiplication: The distributed block-compressed sparse
 row library.
 https://dx.doi.org/10.1016/j.parco.2014.03.012

 Hutter, J; Iannuzzi, M; Schiffmann, F; VandeVondele, J. 
 WIREs Comput Mol Sci., 4 (1), 15-25 (2014). 
 CP2K: atomistic simulations of condensed matter systems.
 https://dx.doi.org/10.1002/wcms.1159

 Krack, M. 
 THEORETICAL CHEMISTRY ACCOUNTS, 114 (1-3), 145-152 (2005). 
 Pseudopotentials for H to Kr optimized for gradient-corrected
 exchange-correlation functionals.
 https://dx.doi.org/10.1007/s00214-005-0655-y

 VandeVondele, J; Krack, M; Mohamed, F; Parrinello, M; Chassaing, T;
 Hutter, J. COMPUTER PHYSICS COMMUNICATIONS, 167 (2), 103-128 (2005). 
 QUICKSTEP: Fast and accurate density functional calculations using a
 mixed Gaussian and plane waves approach.
 https://dx.doi.org/10.1016/j.cpc.2004.12.014

 Frigo, M; Johnson, SG. 
 PROCEEDINGS OF THE IEEE, 93 (2), 216-231 (2005). 
 The design and implementation of FFTW3.
 https://dx.doi.org/10.1109/JPROC.2004.840301

 Hartwigsen, C; Goedecker, S; Hutter, J. 
 PHYSICAL REVIEW B, 58 (7), 3641-3662 (1998). 
 Relativistic separable dual-space Gaussian pseudopotentials from H to Rn.
 https://dx.doi.org/10.1103/PhysRevB.58.3641

 Lippert, G; Hutter, J; Parrinello, M. 
 MOLECULAR PHYSICS, 92 (3), 477-487 (1997). 
 A hybrid Gaussian and plane wave density functional scheme.
 https://dx.doi.org/10.1080/002689797170220

 Goedecker, S; Teter, M; Hutter, J. 
 PHYSICAL REVIEW B, 54 (3), 1703-1710 (1996). 
 Separable dual-space Gaussian pseudopotentials.
 https://dx.doi.org/10.1103/PhysRevB.54.1703


 -------------------------------------------------------------------------------
 -                                                                             -
 -                                T I M I N G                                  -
 -                                                                             -
 -------------------------------------------------------------------------------
 SUBROUTINE                       CALLS  ASD         SELF TIME        TOTAL TIME
                                MAXIMUM       AVERAGE  MAXIMUM  AVERAGE  MAXIMUM
 CP2K                                 1  1.0    0.126    0.126 2593.421 2593.421
 qs_forces                            1  2.0    0.000    0.000 2591.934 2591.934
 qs_energies                          1  3.0    0.000    0.000 2591.333 2591.333
 scf_env_do_scf                       1  4.0    0.001    0.001 2589.330 2589.330
 scf_env_do_scf_inner_loop          300  5.0    0.057    0.057 2589.329 2589.329
 qs_scf_new_mos                     300  6.0    0.010    0.010 1998.448 1998.448
 eigensolver                        300  7.0    0.050    0.050 1968.136 1968.136
 cp_fm_syevd                        300  8.0 1266.371 1266.371 1268.122 1268.122
 cp_fm_cholesky_restore             900  8.0  698.918  698.918  698.918  698.918
 gspace_mixing                      299  6.0    4.620    4.620  323.537  323.537
 broyden_mixing                     299  7.0  292.215  292.215  292.218  292.218
 qs_ks_update_qs_env                300  6.0    0.003    0.003  134.974  134.974
 rebuild_ks_matrix                  301  7.0    0.001    0.001  134.952  134.952
 qs_ks_build_kohn_sham_matrix       301  8.0    0.073    0.073  134.951  134.951
 qs_rho_update_rho                  301  6.0    0.002    0.002  131.019  131.019
 calculate_rho_elec                 301  7.0   65.283   65.283  131.017  131.017
 pw_transfer                       3912  9.9    0.308    0.308  127.170  127.170
 fft_wrap_pw1pw2                   3310 10.9    0.038    0.038  123.269  123.269
 fft_wrap_pw1pw2_70                1504 11.2   14.584   14.584  114.706  114.706
 density_rs2pw                      301  8.0    0.026    0.026   63.388   63.388
 fft3d_s                           3311 12.9   57.353   57.353   57.378   57.378
 -------------------------------------------------------------------------------

 The number of warnings for this run is : 1
 
 -------------------------------------------------------------------------------
  **** **** ******  **  PROGRAM ENDED AT                 2021-02-27 13:33:25.756
 ***** ** ***  *** **   PROGRAM RAN ON                                   gnode75
 **    ****   ******    PROGRAM RAN BY                               mayank.modi
 ***** **    ** ** **   PROGRAM PROCESS ID                                 16159
  **** **  *******  **  PROGRAM STOPPED IN /home/mayank.modi/ab-initio-thermodyn
                                           amics-of-water/mayank/cp2k_energy_cal
                                           culations
