 DBCSR| CPU Multiplication driver                                           XSMM
 DBCSR| Multrec recursion limit                                              512
 DBCSR| Multiplication stack size                                           1000
 DBCSR| Maximum elements for images                                    UNLIMITED
 DBCSR| Multiplicative factor virtual images                                   1
 DBCSR| Use multiplication densification                                       T
 DBCSR| Multiplication size stacks                                             3


  **** **** ******  **  PROGRAM STARTED AT               2021-02-21 06:08:28.368
 ***** ** ***  *** **   PROGRAM STARTED ON                               gnode68
 **    ****   ******    PROGRAM STARTED BY                           mayank.modi
 ***** **    ** ** **   PROGRAM PROCESS ID                                  1706
  **** **  *******  **  PROGRAM STARTED IN /home/mayank.modi/ab-initio-thermodyn
                                           amics-of-water/mayank/cp2k_energy_cal
                                           culations

 CP2K| version string:                                          CP2K version 7.1
 CP2K| source code revision number:                                  git:e635599
 CP2K| cp2kflags: omp libint fftw3 libxc xsmm spglib                            
 CP2K| is freely available from                            https://www.cp2k.org/
 CP2K| Program compiled at                          Mon Dec 23 19:23:12 CET 2019
 CP2K| Program compiled on                                                pc9404
 CP2K| Program compiled for                                Linux-x86-64-gfortran
 CP2K| Data directory path                                        /opt/cp2k/data
 CP2K| Input file name                  input_training_correct_cell/input1140.in

 GLOBAL| Force Environment number                                              1
 GLOBAL| Basis set file name                                           BASIS_SET
 GLOBAL| Potential file name                                      GTH_POTENTIALS
 GLOBAL| MM Potential file name                                     MM_POTENTIAL
 GLOBAL| Coordinate file name                                      __STD_INPUT__
 GLOBAL| Method name                                                        CP2K
 GLOBAL| Project name                                                   H2O_bulk
 GLOBAL| Preferred FFT library                                             FFTW3
 GLOBAL| Preferred diagonalization lib.                                       SL
 GLOBAL| Run type                                                   ENERGY_FORCE
 GLOBAL| All-to-all communication in single precision                          F
 GLOBAL| FFTs using library dependent lengths                                  F
 GLOBAL| Global print level                                                  LOW
 GLOBAL| MPI I/O enabled                                                       T
 GLOBAL| Total number of message passing processes                             1
 GLOBAL| Number of threads for this process                                   36
 GLOBAL| This output is from process                                           0
 GLOBAL| CPU model name                Intel(R) Xeon(R) CPU E5-2640 v4 @ 2.40GHz
 GLOBAL| CPUID                                                              1002
 GLOBAL| Compiled for CPUID                                                    0

 MEMORY| system memory details [Kb]
 MEMORY|                        rank 0           min           max       average
 MEMORY| MemTotal            131893512     131893512     131893512     131893512
 MEMORY| MemFree             119719152     119719152     119719152     119719152
 MEMORY| Buffers               1024080       1024080       1024080       1024080
 MEMORY| Cached                9695920       9695920       9695920       9695920
 MEMORY| Slab                  1012196       1012196       1012196       1012196
 MEMORY| SReclaimable           622032        622032        622032        622032
 MEMORY| MemLikelyFree       131061184     131061184     131061184     131061184


 GENERATE|  Preliminary Number of Bonds generated:                             0
 GENERATE|  Achieved consistency in connectivity generation.

 *******************************************************************************
 *******************************************************************************
 **                                                                           **
 **     #####                         ##              ##                      **
 **    ##   ##            ##          ##              ##                      **
 **   ##     ##                       ##            ######                    **
 **   ##     ##  ##   ##  ##   #####  ##  ##   ####   ##    #####    #####    **
 **   ##     ##  ##   ##  ##  ##      ## ##   ##      ##   ##   ##  ##   ##   **
 **   ##  ## ##  ##   ##  ##  ##      ####     ###    ##   ######   ######    **
 **    ##  ###   ##   ##  ##  ##      ## ##      ##   ##   ##       ##        **
 **     #######   #####   ##   #####  ##  ##  ####    ##    #####   ##        **
 **           ##                                                    ##        **
 **                                                                           **
 **                                                ... make the atoms dance   **
 **                                                                           **
 **            Copyright (C) by CP2K developers group (2000 - 2019)           **
 **                                                                           **
 *******************************************************************************


 TOTAL NUMBERS AND MAXIMUM NUMBERS

  Total number of            - Atomic kinds:                                   2
                             - Atoms:                                        192
                             - Shell sets:                                   384
                             - Shells:                                       704
                             - Primitive Cartesian functions:                960
                             - Cartesian basis functions:                   1536
                             - Spherical basis functions:                   1472

  Maximum angular momentum of- Orbital basis functions:                        2
                             - Local part of the GTH pseudopotential:          2
                             - Non-local part of the GTH pseudopotential:      0


 SCF PARAMETERS         Density guess:                                    ATOMIC
                        --------------------------------------------------------
                        max_scf:                                             300
                        max_scf_history:                                       0
                        max_diis:                                              4
                        --------------------------------------------------------
                        eps_scf:                                        1.00E-07
                        eps_scf_history:                                0.00E+00
                        eps_diis:                                       1.00E-01
                        eps_eigval:                                     1.00E-05
                        --------------------------------------------------------
                        level_shift [a.u.]:                                 0.00
                        --------------------------------------------------------
                        Mixing method:                            BROYDEN_MIXING
                                                charge density mixing in g-space
                        --------------------------------------------------------
                        No outer SCF

 Number of electrons:                                                        512
 Number of occupied orbitals:                                                256
 Number of molecular orbitals:                                               256

 Number of orbital functions:                                               1472
 Number of independent orbital functions:                                   1472

 Extrapolation method: initial_guess


 SCF WAVEFUNCTION OPTIMIZATION

  Step     Update method      Time    Convergence         Total energy    Change
  ------------------------------------------------------------------------------
     1 NoMix/Diag. 0.40E+00    7.1     0.61314968     -1064.1724727860 -1.06E+03
     2 Broy./Diag. 0.40E+00    7.8     1.88393393      -994.7771326427  6.94E+01
     3 Broy./Diag. 0.40E+00    8.1     1.91674682     -1267.2627296978 -2.72E+02
     4 Broy./Diag. 0.40E+00    8.1     1.61140879     -1117.7347285742  1.50E+02
     5 Broy./Diag. 0.40E+00    8.4     1.69604199     -1094.8138024683  2.29E+01
     6 Broy./Diag. 0.40E+00    8.8     1.75468628     -1100.6438304890 -5.83E+00
     7 Broy./Diag. 0.40E+00    9.2     1.45679811     -1097.5571662609  3.09E+00
     8 Broy./Diag. 0.40E+00    9.8     0.40248143     -1081.5451217297  1.60E+01
     9 Broy./Diag. 0.40E+00    9.4     1.49656872     -1072.7192475546  8.83E+00
    10 Broy./Diag. 0.40E+00    9.5     1.55406967     -1075.2044146455 -2.49E+00
    11 Broy./Diag. 0.40E+00    9.5     0.18572711     -1073.5165304187  1.69E+00
    12 Broy./Diag. 0.40E+00    9.7     0.16581398     -1073.9297398491 -4.13E-01
    13 Broy./Diag. 0.40E+00    9.6     1.14483611     -1071.7807822135  2.15E+00
    14 Broy./Diag. 0.40E+00    9.6     1.18055562     -1079.4381446866 -7.66E+00
    15 Broy./Diag. 0.40E+00    9.5     0.36538721     -1078.1144753263  1.32E+00
    16 Broy./Diag. 0.40E+00    9.5     0.25713740     -1077.5583894328  5.56E-01
    17 Broy./Diag. 0.40E+00    9.5     0.11679844     -1075.5400584159  2.02E+00
    18 Broy./Diag. 0.40E+00    9.6     0.07853094     -1076.7388273864 -1.20E+00
    19 Broy./Diag. 0.40E+00    9.7     0.12235802     -1076.1641571542  5.75E-01
    20 Broy./Diag. 0.40E+00    9.5     0.08692034     -1075.9099104064  2.54E-01
    21 Broy./Diag. 0.40E+00    9.5     0.03214281     -1076.1931322167 -2.83E-01
    22 Broy./Diag. 0.40E+00    9.5     0.03258381     -1075.9429774913  2.50E-01
    23 Broy./Diag. 0.40E+00    9.4     0.01991878     -1076.0354949646 -9.25E-02
    24 Broy./Diag. 0.40E+00    9.8     0.01410050     -1076.1505240845 -1.15E-01
    25 Broy./Diag. 0.40E+00    9.6     0.00656887     -1075.9154994070  2.35E-01
    26 Broy./Diag. 0.40E+00    9.7     0.00632554     -1076.0533466757 -1.38E-01
    27 Broy./Diag. 0.40E+00    9.6     0.00484450     -1076.1628836191 -1.10E-01
    28 Broy./Diag. 0.40E+00    9.3     0.00429294     -1076.0449130899  1.18E-01
    29 Broy./Diag. 0.40E+00    9.1     0.00254999     -1076.0610520449 -1.61E-02
    30 Broy./Diag. 0.40E+00    9.7     0.00534076     -1076.0914788200 -3.04E-02
    31 Broy./Diag. 0.40E+00    9.7     0.00416050     -1076.0617968833  2.97E-02
    32 Broy./Diag. 0.40E+00    9.5     0.00211745     -1076.0713774200 -9.58E-03
    33 Broy./Diag. 0.40E+00    9.5     0.00209746     -1076.0651587969  6.22E-03
    34 Broy./Diag. 0.40E+00    9.4     0.00193450     -1076.0597954421  5.36E-03
    35 Broy./Diag. 0.40E+00    9.7     0.00121134     -1076.0654577665 -5.66E-03
    36 Broy./Diag. 0.40E+00    9.7     0.00097314     -1076.0524948364  1.30E-02
    37 Broy./Diag. 0.40E+00    9.5     0.00092018     -1076.0571908530 -4.70E-03
    38 Broy./Diag. 0.40E+00    9.3     0.00097165     -1076.0692906321 -1.21E-02
    39 Broy./Diag. 0.40E+00    9.6     0.00053573     -1076.0574771783  1.18E-02
    40 Broy./Diag. 0.40E+00    9.6     0.00039482     -1076.0597609669 -2.28E-03
    41 Broy./Diag. 0.40E+00    9.5     0.00030856     -1076.0597719751 -1.10E-05
    42 Broy./Diag. 0.40E+00    9.5     0.00034238     -1076.0602927995 -5.21E-04
    43 Broy./Diag. 0.40E+00    9.6     0.00023521     -1076.0599748592  3.18E-04
    44 Broy./Diag. 0.40E+00    9.6     0.00022582     -1076.0601126864 -1.38E-04
    45 Broy./Diag. 0.40E+00    9.4     0.00022448     -1076.0601752255 -6.25E-05
    46 Broy./Diag. 0.40E+00    9.4     0.00013516     -1076.0606845224 -5.09E-04
    47 Broy./Diag. 0.40E+00    9.4     0.00015031     -1076.0599365599  7.48E-04
    48 Broy./Diag. 0.40E+00    9.9     0.00009554     -1076.0594454500  4.91E-04
    49 Broy./Diag. 0.40E+00    9.7     0.00008153     -1076.0603194106 -8.74E-04
    50 Broy./Diag. 0.40E+00    9.4     0.00006514     -1076.0602931193  2.63E-05
    51 Broy./Diag. 0.40E+00    9.4     0.00005910     -1076.0599518791  3.41E-04
    52 Broy./Diag. 0.40E+00    9.4     0.00008747     -1076.0602866945 -3.35E-04
    53 Broy./Diag. 0.40E+00    9.6     0.00006534     -1076.0601099389  1.77E-04
    54 Broy./Diag. 0.40E+00    9.9     0.00005681     -1076.0601270002 -1.71E-05
    55 Broy./Diag. 0.40E+00    9.4     0.00005063     -1076.0601068725  2.01E-05
    56 Broy./Diag. 0.40E+00   10.2     0.00003872     -1076.0600943772  1.25E-05
    57 Broy./Diag. 0.40E+00    9.7     0.00004045     -1076.0601443146 -4.99E-05
    58 Broy./Diag. 0.40E+00    9.5     0.00002423     -1076.0601186802  2.56E-05
    59 Broy./Diag. 0.40E+00    9.5     0.00002202     -1076.0600511492  6.75E-05
    60 Broy./Diag. 0.40E+00    9.6     0.00001461     -1076.0600362433  1.49E-05
    61 Broy./Diag. 0.40E+00    9.6     0.00001201     -1076.0601184274 -8.22E-05
    62 Broy./Diag. 0.40E+00    9.7     0.00001422     -1076.0600571071  6.13E-05
    63 Broy./Diag. 0.40E+00    9.6     0.00001723     -1076.0600694747 -1.24E-05
    64 Broy./Diag. 0.40E+00    9.5     0.00001666     -1076.0600579763  1.15E-05
    65 Broy./Diag. 0.40E+00    9.5     0.00001136     -1076.0600924200 -3.44E-05
    66 Broy./Diag. 0.40E+00    9.3     0.00000667     -1076.0600695551  2.29E-05
    67 Broy./Diag. 0.40E+00    9.0     0.00000616     -1076.0600865611 -1.70E-05
    68 Broy./Diag. 0.40E+00    9.6     0.00000596     -1076.0600816940  4.87E-06
    69 Broy./Diag. 0.40E+00    9.5     0.00000327     -1076.0600736812  8.01E-06
    70 Broy./Diag. 0.40E+00    9.3     0.00000301     -1076.0600835087 -9.83E-06
    71 Broy./Diag. 0.40E+00    9.5     0.00000217     -1076.0600680219  1.55E-05
    72 Broy./Diag. 0.40E+00    9.2     0.00000309     -1076.0600749614 -6.94E-06
    73 Broy./Diag. 0.40E+00    9.4     0.00000339     -1076.0600728565  2.10E-06
    74 Broy./Diag. 0.40E+00   10.1     0.00000319     -1076.0600757372 -2.88E-06
    75 Broy./Diag. 0.40E+00    9.3     0.00000378     -1076.0600683461  7.39E-06
    76 Broy./Diag. 0.40E+00    9.7     0.00000240     -1076.0600799734 -1.16E-05
    77 Broy./Diag. 0.40E+00    9.1     0.00000220     -1076.0600712744  8.70E-06
    78 Broy./Diag. 0.40E+00    9.5     0.00000231     -1076.0600753071 -4.03E-06
    79 Broy./Diag. 0.40E+00    9.5     0.00000102     -1076.0600800004 -4.69E-06
    80 Broy./Diag. 0.40E+00    9.6     0.00000069     -1076.0600726652  7.34E-06
    81 Broy./Diag. 0.40E+00    9.7     0.00000062     -1076.0600757986 -3.13E-06
    82 Broy./Diag. 0.40E+00    9.5     0.00000071     -1076.0600765496 -7.51E-07
    83 Broy./Diag. 0.40E+00    9.6     0.00000082     -1076.0600753744  1.18E-06
    84 Broy./Diag. 0.40E+00    9.3     0.00000074     -1076.0600743562  1.02E-06
    85 Broy./Diag. 0.40E+00    9.3     0.00000080     -1076.0600757668 -1.41E-06
    86 Broy./Diag. 0.40E+00   10.3     0.00000049     -1076.0600736235  2.14E-06
    87 Broy./Diag. 0.40E+00   10.0     0.00000029     -1076.0600753835 -1.76E-06
    88 Broy./Diag. 0.40E+00    9.6     0.00000040     -1076.0600741566  1.23E-06
    89 Broy./Diag. 0.40E+00    9.3     0.00000026     -1076.0600738145  3.42E-07
    90 Broy./Diag. 0.40E+00    9.5     0.00000010     -1076.0600758628 -2.05E-06

  *** SCF run converged in    90 steps ***


  Electronic density on regular grids:       -512.0007633163       -0.0007633163
  Core density on regular grids:              512.0002486450        0.0002486450
  Total charge density on r-space grids:       -0.0005146712
  Total charge density g-space grids:          -0.0005146712

  Overlap energy of the core charge distribution:               0.00000000000000
  Self energy of the core charge distribution:              -2838.21791979120962
  Core Hamiltonian energy:                                    760.02461550290786
  Hartree energy:                                            1240.79049856220354
  Exchange-correlation energy:                               -238.65727013665992

  Total energy:                                             -1076.06007586275837

 ENERGY| Total FORCE_EVAL ( QS ) energy (a.u.):            -1076.060074602393797


 ATOMIC FORCES in [a.u.]

 # Atom   Kind   Element          X              Y              Z
      1      1      O          -0.01813604     0.02772889    -0.04862042
      2      2      H           0.05923117     0.00051785     0.00584566
      3      2      H          -0.03346120     0.08901600     0.04737420
      4      1      O           0.13252105     0.08677151    -0.01601439
      5      2      H          -0.04203608    -0.07684867    -0.02091976
      6      2      H          -0.03314872     0.03795772     0.10618725
      7      1      O           0.09848939    -0.04590970     0.08054319
      8      2      H          -0.00629952     0.05884511    -0.08927396
      9      2      H           0.02334075     0.04333465     0.06869325
     10      1      O           0.03065992     0.11779364    -0.02618888
     11      2      H          -0.04697515     0.00953407     0.05162265
     12      2      H          -0.01220419    -0.09349830    -0.02335736
     13      1      O          -0.02211579     0.09888638    -0.08241677
     14      2      H          -0.00595539    -0.04383497    -0.05729550
     15      2      H          -0.03994007    -0.00200085     0.08015376
     16      1      O          -0.09982985     0.00904305     0.02551223
     17      2      H           0.03190475     0.02297297    -0.06696717
     18      2      H           0.05062318     0.02382765     0.04002173
     19      1      O          -0.04087175    -0.06899141    -0.02828258
     20      2      H          -0.09101239    -0.01147338    -0.03551316
     21      2      H           0.06722592     0.01763238     0.03991712
     22      1      O          -0.00049195    -0.01691594    -0.12425059
     23      2      H          -0.00405769     0.01620822     0.04334920
     24      2      H           0.05430610    -0.04818649     0.00497290
     25      1      O           0.01348658    -0.04798881     0.00891394
     26      2      H           0.03463901     0.01796122     0.05311726
     27      2      H          -0.03850227     0.03113309    -0.05486175
     28      1      O           0.12419392     0.01891504     0.09831833
     29      2      H          -0.05506053     0.02273200     0.00511844
     30      2      H           0.01646531     0.05528612    -0.06111482
     31      1      O          -0.11023870    -0.02623494     0.03527241
     32      2      H          -0.01451259    -0.04238553     0.10045689
     33      2      H           0.07863066     0.02356990    -0.05121471
     34      1      O          -0.12751732     0.10880349    -0.07814351
     35      2      H           0.10514704    -0.07091975    -0.01019961
     36      2      H           0.01913925     0.00858658     0.08679969
     37      1      O          -0.07385264    -0.05504931     0.09899966
     38      2      H          -0.05157013     0.00644989     0.04162597
     39      2      H           0.02258209     0.04248696    -0.07059108
     40      1      O          -0.00431438    -0.02797167     0.08902163
     41      2      H          -0.00034172    -0.03475982    -0.09139652
     42      2      H           0.02135486     0.03055628     0.05514051
     43      1      O           0.07388997     0.09487979    -0.02978126
     44      2      H          -0.04169713    -0.00978462    -0.07146180
     45      2      H          -0.07234972     0.00601499     0.01256159
     46      1      O          -0.06449847    -0.01252404    -0.08729957
     47      2      H           0.03301949    -0.05026505     0.00032222
     48      2      H           0.00174180     0.07450148    -0.05328794
     49      1      O           0.09519497    -0.06168929    -0.02090805
     50      2      H           0.03729902     0.00122997     0.07071874
     51      2      H          -0.06223709    -0.06135320    -0.02558785
     52      1      O          -0.09131835    -0.14506759     0.02298765
     53      2      H          -0.01464841     0.01641998    -0.01541812
     54      2      H           0.06529163     0.02514450     0.05595268
     55      1      O          -0.06377830     0.07723388     0.07654693
     56      2      H           0.04206181    -0.09426371    -0.00201864
     57      2      H           0.04869723     0.05571369    -0.03132782
     58      1      O          -0.04790770     0.00453261     0.05425908
     59      2      H           0.03085280     0.05455290    -0.10334786
     60      2      H           0.04208898     0.01250800     0.02200507
     61      1      O           0.00697207    -0.12490716    -0.06987714
     62      2      H          -0.03248307     0.01855459     0.00802688
     63      2      H          -0.00023615     0.04775516    -0.02562295
     64      1      O           0.02499780     0.01343122     0.05963172
     65      2      H          -0.02037407    -0.07275947     0.00928649
     66      2      H          -0.08794164     0.04327372    -0.00376765
     67      1      O           0.06686359    -0.00727270    -0.08412690
     68      2      H           0.05872283    -0.03981256     0.02696491
     69      2      H          -0.06034378     0.07762602     0.01523598
     70      1      O          -0.07679792    -0.02404484    -0.01121214
     71      2      H           0.02792224    -0.07490019    -0.04066047
     72      2      H          -0.04390957     0.09217177    -0.07052193
     73      1      O          -0.14666755     0.08022463     0.08744749
     74      2      H           0.01875270     0.07216833     0.01188808
     75      2      H           0.08460549    -0.03906655    -0.04935705
     76      1      O          -0.06264796     0.03643976    -0.00134891
     77      2      H           0.06020655    -0.02911367     0.04594263
     78      2      H          -0.06127747     0.08576005    -0.00981184
     79      1      O           0.11063046    -0.04542826    -0.00305452
     80      2      H           0.03067349     0.08306218    -0.00676558
     81      2      H          -0.00270394    -0.00747522    -0.08307595
     82      1      O          -0.01968195    -0.03739321     0.00208456
     83      2      H           0.02436508     0.06814802    -0.03984441
     84      2      H           0.08447086    -0.02224891    -0.02611209
     85      1      O           0.12165099     0.01090649    -0.09303126
     86      2      H           0.01544377    -0.01942714     0.07023882
     87      2      H          -0.03425846     0.08506355     0.00985120
     88      1      O          -0.03202140    -0.08724102     0.06335660
     89      2      H           0.04803212     0.06915089    -0.01018809
     90      2      H          -0.08678721     0.02572775    -0.02590122
     91      1      O           0.10930130    -0.03232145    -0.11241557
     92      2      H          -0.05950415     0.00585344     0.01542044
     93      2      H          -0.01034617     0.00422802     0.10283735
     94      1      O          -0.01084564    -0.13673035    -0.02420063
     95      2      H          -0.02818486     0.03058169     0.05509803
     96      2      H           0.01699094     0.04041942    -0.04501205
     97      1      O           0.10884598     0.02265763    -0.02034353
     98      2      H          -0.05909901     0.04044240     0.07122716
     99      2      H           0.01642037     0.01030205    -0.02959123
    100      1      O          -0.02644519    -0.06262414     0.02894993
    101      2      H           0.06874903    -0.07480382    -0.05556080
    102      2      H           0.02238235     0.07582852    -0.04720354
    103      1      O          -0.05019292     0.05098438    -0.01008740
    104      2      H           0.01248782     0.02390077     0.06536170
    105      2      H           0.07849133     0.01500870    -0.05979667
    106      1      O          -0.11644595    -0.00480735    -0.09050066
    107      2      H          -0.00011857    -0.06909994     0.00597890
    108      2      H           0.06280043     0.06876019     0.04704414
    109      1      O          -0.00636241    -0.09400164    -0.04922981
    110      2      H          -0.00293674     0.04413601     0.05257284
    111      2      H           0.05031882     0.04001136    -0.00224169
    112      1      O           0.07898681     0.01976276    -0.00484151
    113      2      H           0.02841621     0.05205437     0.05688444
    114      2      H          -0.03172981    -0.06561531     0.06222815
    115      1      O          -0.11643267    -0.03386966     0.10233671
    116      2      H           0.05812924     0.08505102    -0.06594694
    117      2      H           0.04336564    -0.03219299     0.03333958
    118      1      O          -0.04947527    -0.00526651     0.01677891
    119      2      H          -0.03929495     0.05532536     0.01157044
    120      2      H           0.01286008     0.01001501     0.09005923
    121      1      O          -0.05333115    -0.01256043    -0.00736632
    122      2      H          -0.06369973     0.08325138    -0.08617381
    123      2      H           0.06410753    -0.04200961     0.03740932
    124      1      O          -0.04050276     0.00664610    -0.07119062
    125      2      H           0.03738033    -0.00422134     0.01999203
    126      2      H          -0.06250915     0.05679833    -0.02508494
    127      1      O           0.00076387    -0.02926137    -0.07348727
    128      2      H          -0.03602908     0.05330291    -0.01941891
    129      2      H           0.04305102     0.03808902     0.00522177
    130      1      O          -0.00956148    -0.00999467    -0.01393239
    131      2      H          -0.03903666    -0.03926278    -0.02383266
    132      2      H           0.06039436     0.04427222     0.00659271
    133      1      O          -0.13058494    -0.10141679    -0.00087619
    134      2      H           0.06069791     0.01792363    -0.04223627
    135      2      H           0.07108203    -0.00600003     0.01870349
    136      1      O          -0.05731691    -0.01546792    -0.00964743
    137      2      H          -0.02731907    -0.02493559     0.04920274
    138      2      H          -0.05774534     0.07994033    -0.00195216
    139      1      O          -0.07606419     0.01251159    -0.02654778
    140      2      H           0.01634747    -0.06204937    -0.05208252
    141      2      H           0.01357483     0.03090361     0.10551121
    142      1      O          -0.10725436     0.14017407     0.03111811
    143      2      H           0.04077715    -0.00247626    -0.02417717
    144      2      H           0.02081252    -0.05821111     0.06923278
    145      1      O           0.04294390    -0.12029729    -0.00546718
    146      2      H          -0.00699640     0.01725174    -0.09243767
    147      2      H          -0.00397971     0.07059432     0.07738153
    148      1      O          -0.12747535    -0.00318388     0.00947118
    149      2      H          -0.01125834    -0.08675205    -0.04269994
    150      2      H           0.04662213     0.07406054     0.00704999
    151      1      O          -0.08666483    -0.06406873    -0.01551048
    152      2      H           0.04032636    -0.03588834     0.07127997
    153      2      H           0.03451017     0.06893278     0.00044262
    154      1      O          -0.11319460    -0.09839487    -0.01836456
    155      2      H           0.07752080     0.01744809     0.00539433
    156      2      H          -0.03362270     0.02626196    -0.01920444
    157      1      O          -0.04748427     0.06846139    -0.11922817
    158      2      H           0.05746757     0.04692548    -0.04005312
    159      2      H           0.05191708    -0.04919738     0.05228790
    160      1      O          -0.02700973     0.03741391     0.11216820
    161      2      H          -0.02474374    -0.01812108    -0.01088272
    162      2      H           0.05149597     0.00413808    -0.04165989
    163      1      O           0.05747230    -0.05575226    -0.08422081
    164      2      H          -0.02652316     0.02800621    -0.03526869
    165      2      H           0.08220336    -0.00495083     0.06535494
    166      1      O           0.02439339    -0.07444685     0.01142398
    167      2      H           0.03502467     0.10353939    -0.02533232
    168      2      H          -0.03189936    -0.00969809    -0.04228192
    169      1      O           0.07209011     0.04771984     0.01268021
    170      2      H          -0.08019182     0.04772780    -0.06268847
    171      2      H          -0.02140667    -0.11013068     0.02612998
    172      1      O          -0.06330405     0.01380658    -0.04042599
    173      2      H           0.04142736    -0.00324431    -0.08540549
    174      2      H           0.03030257     0.04436524     0.05510128
    175      1      O           0.03765104    -0.06684035     0.07695228
    176      2      H           0.03645215     0.05739586    -0.01416653
    177      2      H          -0.04548808     0.05019000     0.04229306
    178      1      O           0.03391144    -0.04531096     0.06954482
    179      2      H          -0.05636136    -0.04770751    -0.05450956
    180      2      H          -0.01279401     0.01823898     0.05561705
    181      1      O          -0.01373214    -0.07072923     0.01372916
    182      2      H           0.03630849     0.07246873    -0.03617047
    183      2      H          -0.04633074    -0.03327813     0.05796242
    184      1      O          -0.02907502     0.00065904    -0.02523411
    185      2      H           0.03630560     0.01652701    -0.06063638
    186      2      H          -0.06584616     0.02160546    -0.00054390
    187      1      O           0.00314878    -0.06493085     0.06898530
    188      2      H          -0.06041708    -0.07171804    -0.01581031
    189      2      H           0.03429828     0.08317543     0.00493695
    190      1      O           0.02315631    -0.02807109    -0.00314295
    191      2      H          -0.04685939     0.01072031     0.02116053
    192      2      H          -0.03524946     0.00777304    -0.06216541
 SUM OF ATOMIC FORCES          -0.26241676     0.71236902    -0.20952454     0.78754854

 -------------------------------------------------------------------------------
 -                                                                             -
 -                                DBCSR STATISTICS                             -
 -                                                                             -
 -------------------------------------------------------------------------------
 COUNTER                                    TOTAL       BLAS       SMM       ACC
 flops     5 x     5 x   256           1468812800       0.0%    100.0%      0.0%
 flops    13 x     5 x   256           1768632320       0.0%    100.0%      0.0%
 flops     5 x    13 x   256           1817088000       0.0%    100.0%      0.0%
 flops    13 x    13 x   256           2314970112       0.0%    100.0%      0.0%
 flops inhomo. stacks                           0       0.0%      0.0%      0.0%
 flops total                         7.369503E+09       0.0%    100.0%      0.0%
 flops max/rank                      7.369503E+09       0.0%    100.0%      0.0%
 matmuls inhomo. stacks                         0       0.0%      0.0%      0.0%
 matmuls total                             249249       0.0%    100.0%      0.0%
 number of processed stacks                 12740       0.0%    100.0%      0.0%
 average stack size                                     0.0      19.6       0.0
 marketing flops                   100.954800E+09
 -------------------------------------------------------------------------------
 # multiplications                             91
 max memory usage/rank               5.025833E+09
 # max total images/rank                        1
 # max 3D layers                                1
 # MPI messages exchanged                       0
 MPI messages size (bytes):
  total size                         0.000000E+00
  min size                           0.000000E+00
  max size                           0.000000E+00
  average size                       0.000000E+00
 MPI breakdown and total messages size (bytes):
             size <=      128                   0                        0
       128 < size <=     8192                   0                        0
      8192 < size <=    32768                   0                        0
     32768 < size <=   131072                   0                        0
    131072 < size <=  4194304                   0                        0
   4194304 < size <= 16777216                   0                        0
  16777216 < size                               0                        0
 -------------------------------------------------------------------------------

 MEMORY| Estimated peak process memory [MiB]                                4788

 -------------------------------------------------------------------------------
 -                                                                             -
 -                           R E F E R E N C E S                               -
 -                                                                             -
 -------------------------------------------------------------------------------
 
 CP2K version 7.1, the CP2K developers group (2019).
 CP2K is freely available from https://www.cp2k.org/ .

 Schuett, Ole; Messmer, Peter; Hutter, Juerg; VandeVondele, Joost. 
 Electronic Structure Calculations on Graphics Processing Units, John
 Wiley & Sons, Ltd, 173-190 (2016). 
 GPU-Accelerated Sparse Matrix-Matrix Multiplication for
 Linear Scaling Density Functional Theory.
 https://dx.doi.org/10.1002/9781118670712.ch8

 Borstnik, U; VandeVondele, J; Weber, V; Hutter, J. 
 PARALLEL COMPUTING, 40 (5-6), 47-58 (2014). 
 Sparse matrix multiplication: The distributed block-compressed sparse
 row library.
 https://dx.doi.org/10.1016/j.parco.2014.03.012

 Hutter, J; Iannuzzi, M; Schiffmann, F; VandeVondele, J. 
 WIREs Comput Mol Sci., 4 (1), 15-25 (2014). 
 CP2K: atomistic simulations of condensed matter systems.
 https://dx.doi.org/10.1002/wcms.1159

 Krack, M. 
 THEORETICAL CHEMISTRY ACCOUNTS, 114 (1-3), 145-152 (2005). 
 Pseudopotentials for H to Kr optimized for gradient-corrected
 exchange-correlation functionals.
 https://dx.doi.org/10.1007/s00214-005-0655-y

 VandeVondele, J; Krack, M; Mohamed, F; Parrinello, M; Chassaing, T;
 Hutter, J. COMPUTER PHYSICS COMMUNICATIONS, 167 (2), 103-128 (2005). 
 QUICKSTEP: Fast and accurate density functional calculations using a
 mixed Gaussian and plane waves approach.
 https://dx.doi.org/10.1016/j.cpc.2004.12.014

 Frigo, M; Johnson, SG. 
 PROCEEDINGS OF THE IEEE, 93 (2), 216-231 (2005). 
 The design and implementation of FFTW3.
 https://dx.doi.org/10.1109/JPROC.2004.840301

 Hartwigsen, C; Goedecker, S; Hutter, J. 
 PHYSICAL REVIEW B, 58 (7), 3641-3662 (1998). 
 Relativistic separable dual-space Gaussian pseudopotentials from H to Rn.
 https://dx.doi.org/10.1103/PhysRevB.58.3641

 Lippert, G; Hutter, J; Parrinello, M. 
 MOLECULAR PHYSICS, 92 (3), 477-487 (1997). 
 A hybrid Gaussian and plane wave density functional scheme.
 https://dx.doi.org/10.1080/002689797170220

 Goedecker, S; Teter, M; Hutter, J. 
 PHYSICAL REVIEW B, 54 (3), 1703-1710 (1996). 
 Separable dual-space Gaussian pseudopotentials.
 https://dx.doi.org/10.1103/PhysRevB.54.1703


 -------------------------------------------------------------------------------
 -                                                                             -
 -                                T I M I N G                                  -
 -                                                                             -
 -------------------------------------------------------------------------------
 SUBROUTINE                       CALLS  ASD         SELF TIME        TOTAL TIME
                                MAXIMUM       AVERAGE  MAXIMUM  AVERAGE  MAXIMUM
 CP2K                                 1  1.0    0.154    0.154  856.182  856.182
 qs_forces                            1  2.0    0.000    0.000  853.986  853.986
 qs_energies                          1  3.0    0.000    0.000  853.185  853.185
 scf_env_do_scf                       1  4.0    0.000    0.000  850.795  850.795
 scf_env_do_scf_inner_loop           90  5.0    0.019    0.019  850.794  850.794
 qs_scf_new_mos                      90  6.0    0.003    0.003  601.003  601.003
 eigensolver                         90  7.0    0.014    0.014  591.009  591.009
 cp_fm_syevd                         90  8.0  387.174  387.174  387.711  387.711
 cp_fm_cholesky_restore             270  8.0  202.960  202.960  202.960  202.960
 gspace_mixing                       89  6.0    2.021    2.021  136.059  136.059
 broyden_mixing                      89  7.0  122.571  122.571  122.572  122.572
 rebuild_ks_matrix                   91  7.0    0.000    0.000   58.311   58.311
 qs_ks_build_kohn_sham_matrix        91  8.0    0.025    0.025   58.311   58.311
 qs_ks_update_qs_env                 90  6.0    0.001    0.001   57.726   57.726
 qs_rho_update_rho                   91  6.0    0.001    0.001   56.028   56.028
 calculate_rho_elec                  91  7.0   27.546   27.546   56.027   56.027
 pw_transfer                       1182  9.9    0.098    0.098   55.822   55.822
 fft_wrap_pw1pw2                   1000 10.9    0.012    0.012   54.153   54.153
 fft_wrap_pw1pw2_70                 454 11.2    5.656    5.656   49.452   49.452
 density_rs2pw                       91  8.0    0.007    0.007   27.537   27.537
 fft3d_s                           1001 12.9   24.969   24.969   24.980   24.980
 pw_scatter_s                       544 13.2   18.520   18.520   18.520   18.520
 pw_poisson_solve                    91  9.0   16.484   16.484   18.120   18.120
 -------------------------------------------------------------------------------

 The number of warnings for this run is : 0
 
 -------------------------------------------------------------------------------
  **** **** ******  **  PROGRAM ENDED AT                 2021-02-21 06:22:44.659
 ***** ** ***  *** **   PROGRAM RAN ON                                   gnode68
 **    ****   ******    PROGRAM RAN BY                               mayank.modi
 ***** **    ** ** **   PROGRAM PROCESS ID                                  1706
  **** **  *******  **  PROGRAM STOPPED IN /home/mayank.modi/ab-initio-thermodyn
                                           amics-of-water/mayank/cp2k_energy_cal
                                           culations
