 DBCSR| CPU Multiplication driver                                           XSMM
 DBCSR| Multrec recursion limit                                              512
 DBCSR| Multiplication stack size                                           1000
 DBCSR| Maximum elements for images                                    UNLIMITED
 DBCSR| Multiplicative factor virtual images                                   1
 DBCSR| Use multiplication densification                                       T
 DBCSR| Multiplication size stacks                                             3


  **** **** ******  **  PROGRAM STARTED AT               2021-01-11 04:56:21.384
 ***** ** ***  *** **   PROGRAM STARTED ON                               gnode23
 **    ****   ******    PROGRAM STARTED BY                           mayank.modi
 ***** **    ** ** **   PROGRAM PROCESS ID                                 32131
  **** **  *******  **  PROGRAM STARTED IN /home/mayank.modi/ab-initio-thermodyn
                                           amics-of-water/mayank/cp2k_energy_cal
                                           culations

 CP2K| version string:                                          CP2K version 7.1
 CP2K| source code revision number:                                  git:e635599
 CP2K| cp2kflags: omp libint fftw3 libxc xsmm spglib                            
 CP2K| is freely available from                            https://www.cp2k.org/
 CP2K| Program compiled at                          Mon Dec 23 19:23:12 CET 2019
 CP2K| Program compiled on                                                pc9404
 CP2K| Program compiled for                                Linux-x86-64-gfortran
 CP2K| Data directory path                                        /opt/cp2k/data
 CP2K| Input file name                   input_training_correct_cell/input140.in

 GLOBAL| Force Environment number                                              1
 GLOBAL| Basis set file name                                           BASIS_SET
 GLOBAL| Potential file name                                      GTH_POTENTIALS
 GLOBAL| MM Potential file name                                     MM_POTENTIAL
 GLOBAL| Coordinate file name                                      __STD_INPUT__
 GLOBAL| Method name                                                        CP2K
 GLOBAL| Project name                                                   H2O_bulk
 GLOBAL| Preferred FFT library                                             FFTW3
 GLOBAL| Preferred diagonalization lib.                                       SL
 GLOBAL| Run type                                                   ENERGY_FORCE
 GLOBAL| All-to-all communication in single precision                          F
 GLOBAL| FFTs using library dependent lengths                                  F
 GLOBAL| Global print level                                                  LOW
 GLOBAL| MPI I/O enabled                                                       T
 GLOBAL| Total number of message passing processes                             1
 GLOBAL| Number of threads for this process                                   36
 GLOBAL| This output is from process                                           0
 GLOBAL| CPU model name                Intel(R) Xeon(R) CPU E5-2640 v4 @ 2.40GHz
 GLOBAL| CPUID                                                              1002
 GLOBAL| Compiled for CPUID                                                    0

 MEMORY| system memory details [Kb]
 MEMORY|                        rank 0           min           max       average
 MEMORY| MemTotal            131897972     131897972     131897972     131897972
 MEMORY| MemFree             125566904     125566904     125566904     125566904
 MEMORY| Buffers               1894124       1894124       1894124       1894124
 MEMORY| Cached                1377280       1377280       1377280       1377280
 MEMORY| Slab                  2594496       2594496       2594496       2594496
 MEMORY| SReclaimable          1563252       1563252       1563252       1563252
 MEMORY| MemLikelyFree       130401560     130401560     130401560     130401560


 GENERATE|  Preliminary Number of Bonds generated:                             0
 GENERATE|  Achieved consistency in connectivity generation.

 *******************************************************************************
 *******************************************************************************
 **                                                                           **
 **     #####                         ##              ##                      **
 **    ##   ##            ##          ##              ##                      **
 **   ##     ##                       ##            ######                    **
 **   ##     ##  ##   ##  ##   #####  ##  ##   ####   ##    #####    #####    **
 **   ##     ##  ##   ##  ##  ##      ## ##   ##      ##   ##   ##  ##   ##   **
 **   ##  ## ##  ##   ##  ##  ##      ####     ###    ##   ######   ######    **
 **    ##  ###   ##   ##  ##  ##      ## ##      ##   ##   ##       ##        **
 **     #######   #####   ##   #####  ##  ##  ####    ##    #####   ##        **
 **           ##                                                    ##        **
 **                                                                           **
 **                                                ... make the atoms dance   **
 **                                                                           **
 **            Copyright (C) by CP2K developers group (2000 - 2019)           **
 **                                                                           **
 *******************************************************************************


 TOTAL NUMBERS AND MAXIMUM NUMBERS

  Total number of            - Atomic kinds:                                   2
                             - Atoms:                                        192
                             - Shell sets:                                   384
                             - Shells:                                       704
                             - Primitive Cartesian functions:                960
                             - Cartesian basis functions:                   1536
                             - Spherical basis functions:                   1472

  Maximum angular momentum of- Orbital basis functions:                        2
                             - Local part of the GTH pseudopotential:          2
                             - Non-local part of the GTH pseudopotential:      0


 SCF PARAMETERS         Density guess:                                    ATOMIC
                        --------------------------------------------------------
                        max_scf:                                             300
                        max_scf_history:                                       0
                        max_diis:                                              4
                        --------------------------------------------------------
                        eps_scf:                                        1.00E-07
                        eps_scf_history:                                0.00E+00
                        eps_diis:                                       1.00E-01
                        eps_eigval:                                     1.00E-05
                        --------------------------------------------------------
                        level_shift [a.u.]:                                 0.00
                        --------------------------------------------------------
                        Mixing method:                            BROYDEN_MIXING
                                                charge density mixing in g-space
                        --------------------------------------------------------
                        No outer SCF

 Number of electrons:                                                        512
 Number of occupied orbitals:                                                256
 Number of molecular orbitals:                                               256

 Number of orbital functions:                                               1472
 Number of independent orbital functions:                                   1472

 Extrapolation method: initial_guess


 SCF WAVEFUNCTION OPTIMIZATION

  Step     Update method      Time    Convergence         Total energy    Change
  ------------------------------------------------------------------------------
     1 NoMix/Diag. 0.40E+00    7.1     0.61178044     -1064.2038419065 -1.06E+03
     2 Broy./Diag. 0.40E+00    7.7     1.90519139      -996.9780528545  6.72E+01
     3 Broy./Diag. 0.40E+00    7.9     1.93202937     -1260.4987931140 -2.64E+02
     4 Broy./Diag. 0.40E+00    8.0     1.62842308     -1112.4774238230  1.48E+02
     5 Broy./Diag. 0.40E+00    8.1     1.66729387     -1095.6748164014  1.68E+01
     6 Broy./Diag. 0.40E+00    8.2     1.79657462     -1094.9119522035  7.63E-01
     7 Broy./Diag. 0.40E+00    8.2     0.33236896     -1088.8218161884  6.09E+00
     8 Broy./Diag. 0.40E+00    8.4     0.52076214     -1075.9105506380  1.29E+01
     9 Broy./Diag. 0.40E+00    8.8     1.61250703     -1075.5150036929  3.96E-01
    10 Broy./Diag. 0.40E+00    9.5     1.64108008     -1077.7754035306 -2.26E+00
    11 Broy./Diag. 0.40E+00    9.4     1.01861416     -1075.9403017159  1.84E+00
    12 Broy./Diag. 0.40E+00    9.3     1.55770447     -1078.3263085332 -2.39E+00
    13 Broy./Diag. 0.40E+00    9.3     1.61064058     -1077.0598399798  1.27E+00
    14 Broy./Diag. 0.40E+00    9.5     1.58063869     -1078.3073369098 -1.25E+00
    15 Broy./Diag. 0.40E+00    9.5     1.60930316     -1077.9140772523  3.93E-01
    16 Broy./Diag. 0.40E+00    9.4     1.05710109     -1076.2937642229  1.62E+00
    17 Broy./Diag. 0.40E+00    9.3     1.55712277     -1073.8727886658  2.42E+00
    18 Broy./Diag. 0.40E+00    9.5     1.60934247     -1079.2614172875 -5.39E+00
    19 Broy./Diag. 0.40E+00    9.5     1.65813383     -1076.4568988338  2.80E+00
    20 Broy./Diag. 0.40E+00    9.3     1.61999174     -1077.2411955178 -7.84E-01
    21 Broy./Diag. 0.40E+00    9.5     0.83102566     -1076.8474649452  3.94E-01
    22 Broy./Diag. 0.40E+00    9.3     1.57253093     -1075.7543066471  1.09E+00
    23 Broy./Diag. 0.40E+00    9.5     1.58317458     -1077.6484043839 -1.89E+00
    24 Broy./Diag. 0.40E+00    9.5     0.29817386     -1075.7808574698  1.87E+00
    25 Broy./Diag. 0.40E+00    9.5     0.98292714     -1076.3708051523 -5.90E-01
    26 Broy./Diag. 0.40E+00    9.5     1.01656003     -1077.6133052691 -1.24E+00
    27 Broy./Diag. 0.40E+00    9.4     1.58068767     -1075.9220270411  1.69E+00
    28 Broy./Diag. 0.40E+00    9.3     1.57095177     -1077.5933391266 -1.67E+00
    29 Broy./Diag. 0.40E+00    9.5     1.62683044     -1075.9690261675  1.62E+00
    30 Broy./Diag. 0.40E+00    9.5     1.66042161     -1077.5313519967 -1.56E+00
    31 Broy./Diag. 0.40E+00    9.3     1.30662529     -1075.7025900860  1.83E+00
    32 Broy./Diag. 0.40E+00    9.5     1.57619395     -1077.6290224768 -1.93E+00
    33 Broy./Diag. 0.40E+00    9.5     1.59356273     -1077.6031830456  2.58E-02
    34 Broy./Diag. 0.40E+00    9.5     0.81688878     -1077.3807500872  2.22E-01
    35 Broy./Diag. 0.40E+00    9.4     0.77345660     -1075.3645460491  2.02E+00
    36 Broy./Diag. 0.40E+00    9.2     0.72693082     -1078.3156085055 -2.95E+00
    37 Broy./Diag. 0.40E+00    9.1     0.48514269     -1075.7535909335  2.56E+00
    38 Broy./Diag. 0.40E+00    9.5     0.93948613     -1076.2662214174 -5.13E-01
    39 Broy./Diag. 0.40E+00    9.5     1.22641719     -1077.8444320383 -1.58E+00
    40 Broy./Diag. 0.40E+00    9.4     1.22941134     -1077.0271398804  8.17E-01
    41 Broy./Diag. 0.40E+00    9.5     0.11732744     -1075.9327641816  1.09E+00
    42 Broy./Diag. 0.40E+00    9.2     1.58756574     -1075.9702785737 -3.75E-02
    43 Broy./Diag. 0.40E+00    9.2     1.59067900     -1077.8809444622 -1.91E+00
    44 Broy./Diag. 0.40E+00    9.6     0.89919195     -1077.6091000723  2.72E-01
    45 Broy./Diag. 0.40E+00    9.4     0.89447140     -1075.2540867683  2.36E+00
    46 Broy./Diag. 0.40E+00    9.4     0.76622029     -1077.0401006506 -1.79E+00
    47 Broy./Diag. 0.40E+00    9.7     1.29027530     -1075.5848341920  1.46E+00
    48 Broy./Diag. 0.40E+00    9.3     1.31048027     -1077.6746857804 -2.09E+00
    49 Broy./Diag. 0.40E+00    9.2     1.39605021     -1077.8417818581 -1.67E-01
    50 Broy./Diag. 0.40E+00    9.5     1.41311424     -1077.1019330298  7.40E-01
    51 Broy./Diag. 0.40E+00    9.3     0.30221198     -1075.1966677470  1.91E+00
    52 Broy./Diag. 0.40E+00    9.5     1.58562276     -1076.2341437049 -1.04E+00
    53 Broy./Diag. 0.40E+00    9.5     1.58870547     -1077.7174829725 -1.48E+00
    54 Broy./Diag. 0.40E+00    9.5     0.77903618     -1076.9754706844  7.42E-01
    55 Broy./Diag. 0.40E+00    9.5     0.73031904     -1075.5235026175  1.45E+00
    56 Broy./Diag. 0.40E+00    9.6     0.60694471     -1076.4261593249 -9.03E-01
    57 Broy./Diag. 0.40E+00    9.3     1.29559381     -1075.6214890875  8.05E-01
    58 Broy./Diag. 0.40E+00    9.4     1.31149434     -1077.6880990552 -2.07E+00
    59 Broy./Diag. 0.40E+00    9.6     1.66436375     -1077.9516049493 -2.64E-01
    60 Broy./Diag. 0.40E+00    9.4     1.69730928     -1078.8804172119 -9.29E-01
    61 Broy./Diag. 0.40E+00    9.2     1.65266870     -1077.0725119313  1.81E+00
    62 Broy./Diag. 0.40E+00    9.6     1.58709032     -1074.7382668300  2.33E+00
    63 Broy./Diag. 0.40E+00    9.4     1.60521300     -1078.3572590214 -3.62E+00
    64 Broy./Diag. 0.40E+00    9.4     0.39891550     -1076.7163609137  1.64E+00
    65 Broy./Diag. 0.40E+00    9.5     0.14250737     -1075.5504477726  1.17E+00
    66 Broy./Diag. 0.40E+00    9.3     1.51840215     -1075.4368073090  1.14E-01
    67 Broy./Diag. 0.40E+00    9.4     1.52137708     -1077.3831153209 -1.95E+00
    68 Broy./Diag. 0.40E+00    9.5     1.32470159     -1077.6526517135 -2.70E-01
    69 Broy./Diag. 0.40E+00    9.6     1.01836874     -1077.8432645432 -1.91E-01
    70 Broy./Diag. 0.40E+00    9.6     0.63418068     -1075.9978579868  1.85E+00
    71 Broy./Diag. 0.40E+00    9.4     0.43880457     -1075.3864676335  6.11E-01
    72 Broy./Diag. 0.40E+00    9.4     1.58295874     -1076.2312275402 -8.45E-01
    73 Broy./Diag. 0.40E+00    9.4     1.59070148     -1077.7030945580 -1.47E+00
    74 Broy./Diag. 0.40E+00    9.4     0.49325344     -1075.4887804490  2.21E+00
    75 Broy./Diag. 0.40E+00    9.5     1.29929077     -1076.8088205154 -1.32E+00
    76 Broy./Diag. 0.40E+00    9.3     1.59933088     -1077.7509425253 -9.42E-01
    77 Broy./Diag. 0.40E+00    9.5     0.06355294     -1075.7625115069  1.99E+00
    78 Broy./Diag. 0.40E+00    9.2     0.95736599     -1075.5839191925  1.79E-01
    79 Broy./Diag. 0.40E+00    9.4     0.94875310     -1077.8386620779 -2.25E+00
    80 Broy./Diag. 0.40E+00    9.5     0.47005900     -1075.9412557091  1.90E+00
    81 Broy./Diag. 0.40E+00    9.5     0.41709292     -1075.5050360819  4.36E-01
    82 Broy./Diag. 0.40E+00    9.5     1.58489855     -1076.0175305119 -5.12E-01
    83 Broy./Diag. 0.40E+00    9.4     1.59216144     -1077.7440918208 -1.73E+00
    84 Broy./Diag. 0.40E+00    9.4     1.29993460     -1075.8907277515  1.85E+00
    85 Broy./Diag. 0.40E+00    9.6     1.64957584     -1077.6814206019 -1.79E+00
    86 Broy./Diag. 0.40E+00    9.5     1.68088740     -1079.0064691637 -1.33E+00
    87 Broy./Diag. 0.40E+00    9.3     1.14027507     -1077.2267190347  1.78E+00
    88 Broy./Diag. 0.40E+00    9.5     1.02731985     -1074.9526773190  2.27E+00
    89 Broy./Diag. 0.40E+00    9.5     1.04987567     -1078.7097317235 -3.76E+00
    90 Broy./Diag. 0.40E+00    9.4     1.04420778     -1077.5139354685  1.20E+00
    91 Broy./Diag. 0.40E+00    9.5     0.54727623     -1076.3794385646  1.13E+00
    92 Broy./Diag. 0.40E+00    9.2     1.58224989     -1075.2301971079  1.15E+00
    93 Broy./Diag. 0.40E+00    9.4     1.59369580     -1077.6267056170 -2.40E+00
    94 Broy./Diag. 0.40E+00    9.5     1.29658354     -1075.7352912428  1.89E+00
    95 Broy./Diag. 0.40E+00    9.7     1.51128231     -1077.6159003072 -1.88E+00
    96 Broy./Diag. 0.40E+00    9.5     1.53594077     -1077.4637409420  1.52E-01
    97 Broy./Diag. 0.40E+00    9.2     0.76257294     -1075.6328151214  1.83E+00
    98 Broy./Diag. 0.40E+00    9.5     0.98377190     -1077.2303879202 -1.60E+00
    99 Broy./Diag. 0.40E+00    9.6     0.94281918     -1077.8867307513 -6.56E-01
   100 Broy./Diag. 0.40E+00    9.9     0.24782401     -1075.4408829104  2.45E+00
   101 Broy./Diag. 0.40E+00    9.6     0.36533225     -1076.5798562925 -1.14E+00
   102 Broy./Diag. 0.40E+00    9.4     1.58627425     -1075.5355058027  1.04E+00
   103 Broy./Diag. 0.40E+00    9.7     1.59099787     -1077.8107868403 -2.28E+00
   104 Broy./Diag. 0.40E+00    9.4     0.19053225     -1075.9951048172  1.82E+00
   105 Broy./Diag. 0.40E+00    9.6     1.64818427     -1075.9088682915  8.62E-02
   106 Broy./Diag. 0.40E+00    9.6     1.66087418     -1079.1601439341 -3.25E+00
   107 Broy./Diag. 0.40E+00    9.4     1.34406208     -1077.4849861387  1.68E+00
   108 Broy./Diag. 0.40E+00    9.3     0.97350567     -1076.6441796743  8.41E-01
   109 Broy./Diag. 0.40E+00    9.4     1.05459454     -1077.9756963131 -1.33E+00
   110 Broy./Diag. 0.40E+00    9.3     0.46538463     -1075.1926536525  2.78E+00
   111 Broy./Diag. 0.40E+00    9.5     0.34550917     -1076.3355852272 -1.14E+00
   112 Broy./Diag. 0.40E+00    9.4     1.58107971     -1075.7376988013  5.98E-01
   113 Broy./Diag. 0.40E+00    9.5     1.59352297     -1077.7436944919 -2.01E+00
   114 Broy./Diag. 0.40E+00    9.4     0.72203546     -1076.0975232679  1.65E+00
   115 Broy./Diag. 0.40E+00    9.4     0.68428500     -1076.4617691037 -3.64E-01
   116 Broy./Diag. 0.40E+00    9.6     0.70667333     -1075.8765983364  5.85E-01
   117 Broy./Diag. 0.40E+00    9.3     0.76115049     -1077.4010708547 -1.52E+00
   118 Broy./Diag. 0.40E+00    9.4     0.91440353     -1075.8573296090  1.54E+00
   119 Broy./Diag. 0.40E+00    9.8     0.94088875     -1077.6896990371 -1.83E+00
   120 Broy./Diag. 0.40E+00    9.6     1.31448610     -1075.7621132921  1.93E+00
   121 Broy./Diag. 0.40E+00    9.6     1.30814043     -1077.9920012100 -2.23E+00
   122 Broy./Diag. 0.40E+00    9.4     1.58363655     -1075.9985547735  1.99E+00
   123 Broy./Diag. 0.40E+00    9.5     1.59347996     -1077.4499303285 -1.45E+00
   124 Broy./Diag. 0.40E+00    9.2     1.49465021     -1075.7052102644  1.74E+00
   125 Broy./Diag. 0.40E+00    9.1     1.58659190     -1077.7641480689 -2.06E+00
   126 Broy./Diag. 0.40E+00    9.5     0.14172095     -1076.2202908797  1.54E+00
   127 Broy./Diag. 0.40E+00    9.5     1.51691005     -1075.4371298469  7.83E-01
   128 Broy./Diag. 0.40E+00    9.6     1.50379520     -1077.7326063598 -2.30E+00
   129 Broy./Diag. 0.40E+00    9.2     1.63727842     -1077.9698210250 -2.37E-01
   130 Broy./Diag. 0.40E+00    9.0     1.37261853     -1077.4645183519  5.05E-01
   131 Broy./Diag. 0.40E+00    9.4     1.16840998     -1077.7487043590 -2.84E-01
   132 Broy./Diag. 0.40E+00    9.3     1.58480838     -1075.4157898183  2.33E+00
   133 Broy./Diag. 0.40E+00    9.3     1.59375011     -1077.7416092878 -2.33E+00
   134 Broy./Diag. 0.40E+00    9.4     0.39104984     -1076.0498522484  1.69E+00
   135 Broy./Diag. 0.40E+00    9.5     0.14990274     -1075.6670772034  3.83E-01
   136 Broy./Diag. 0.40E+00    9.4     0.23340250     -1075.7862853780 -1.19E-01
   137 Broy./Diag. 0.40E+00    9.5     0.08405394     -1076.4939953818 -7.08E-01
   138 Broy./Diag. 0.40E+00    9.6     0.91719081     -1076.4078239655  8.62E-02
   139 Broy./Diag. 0.40E+00    9.4     1.66869396     -1078.0716541764 -1.66E+00
   140 Broy./Diag. 0.40E+00    9.5     1.68880381     -1078.9350734593 -8.63E-01
   141 Broy./Diag. 0.40E+00    9.6     1.59359407     -1077.2625459259  1.67E+00
   142 Broy./Diag. 0.40E+00    9.2     1.65664425     -1077.0423451612  2.20E-01
   143 Broy./Diag. 0.40E+00    9.0     1.64217976     -1076.8591406848  1.83E-01
   144 Broy./Diag. 0.40E+00    8.8     0.17104341     -1074.5887918685  2.27E+00
   145 Broy./Diag. 0.40E+00    8.7     0.87205399     -1076.0146021871 -1.43E+00
   146 Broy./Diag. 0.40E+00    9.4     0.85311133     -1077.4780704496 -1.46E+00
   147 Broy./Diag. 0.40E+00    9.4     0.61225574     -1076.4597604867  1.02E+00
   148 Broy./Diag. 0.40E+00    9.5     0.87980028     -1075.7179329346  7.42E-01
   149 Broy./Diag. 0.40E+00    9.2     1.62609485     -1077.9687880979 -2.25E+00
   150 Broy./Diag. 0.40E+00    8.9     1.67181842     -1077.5422913685  4.26E-01
   151 Broy./Diag. 0.40E+00    9.6     0.23326463     -1075.3282196433  2.21E+00
   152 Broy./Diag. 0.40E+00    9.4     1.58688098     -1075.9184482551 -5.90E-01
   153 Broy./Diag. 0.40E+00    9.3     1.59713969     -1077.7706588192 -1.85E+00
   154 Broy./Diag. 0.40E+00    9.3     0.23188996     -1075.7619808044  2.01E+00
   155 Broy./Diag. 0.40E+00    9.5     0.05835292     -1076.0838989236 -3.22E-01
   156 Broy./Diag. 0.40E+00    9.4     0.12573128     -1076.0770797354  6.82E-03
   157 Broy./Diag. 0.40E+00    9.4     0.20447342     -1075.8112364260  2.66E-01
   158 Broy./Diag. 0.40E+00    9.4     0.92078500     -1076.3241321724 -5.13E-01
   159 Broy./Diag. 0.40E+00    9.3     1.66187036     -1078.0261333646 -1.70E+00
   160 Broy./Diag. 0.40E+00    9.2     1.68390132     -1079.0470984518 -1.02E+00
   161 Broy./Diag. 0.40E+00    9.1     1.35566755     -1077.2078456544  1.84E+00
   162 Broy./Diag. 0.40E+00    8.7     1.59253637     -1074.9789456007  2.23E+00
   163 Broy./Diag. 0.40E+00    8.8     1.60561909     -1078.4552942598 -3.48E+00
   164 Broy./Diag. 0.40E+00    9.2     1.55369510     -1076.4617832504  1.99E+00
   165 Broy./Diag. 0.40E+00    9.5     1.62404015     -1077.1514670954 -6.90E-01
   166 Broy./Diag. 0.40E+00    9.4     0.41657552     -1075.5681278665  1.58E+00
   167 Broy./Diag. 0.40E+00    9.3     0.46397288     -1075.6068217640 -3.87E-02
   168 Broy./Diag. 0.40E+00    9.3     0.93473181     -1076.2286787218 -6.22E-01
   169 Broy./Diag. 0.40E+00    9.5     1.32907358     -1077.9863035670 -1.76E+00
   170 Broy./Diag. 0.40E+00    9.4     1.37362542     -1077.2799390713  7.06E-01
   171 Broy./Diag. 0.40E+00    9.5     1.34742078     -1077.4324215991 -1.52E-01
   172 Broy./Diag. 0.40E+00    9.6     1.58706814     -1074.9140729143  2.52E+00
   173 Broy./Diag. 0.40E+00    9.4     1.59488972     -1078.1143470600 -3.20E+00
   174 Broy./Diag. 0.40E+00    9.6     0.52547149     -1077.1090360688  1.01E+00
   175 Broy./Diag. 0.40E+00    9.6     0.15809908     -1075.6585683768  1.45E+00
   176 Broy./Diag. 0.40E+00   10.0     0.05692173     -1075.5835414735  7.50E-02
   177 Broy./Diag. 0.40E+00    9.7     0.04814627     -1075.6230393939 -3.95E-02
   178 Broy./Diag. 0.40E+00    9.3     0.91269717     -1075.7426998456 -1.20E-01
   179 Broy./Diag. 0.40E+00    9.5     1.64534563     -1077.8443249443 -2.10E+00
   180 Broy./Diag. 0.40E+00    9.5     1.65812213     -1077.4250380151  4.19E-01
   181 Broy./Diag. 0.40E+00    9.4     0.26211272     -1075.9289818273  1.50E+00
   182 Broy./Diag. 0.40E+00    9.9     1.58435436     -1076.1587470440 -2.30E-01
   183 Broy./Diag. 0.40E+00    9.6     1.59460152     -1077.8570142455 -1.70E+00
   184 Broy./Diag. 0.40E+00   10.3     1.09278924     -1075.5306285393  2.33E+00
   185 Broy./Diag. 0.40E+00   10.3     1.44919052     -1078.0763403668 -2.55E+00
   186 Broy./Diag. 0.40E+00    9.9     0.69626039     -1077.5381903344  5.38E-01
   187 Broy./Diag. 0.40E+00    9.4     1.31282022     -1075.2693861415  2.27E+00
   188 Broy./Diag. 0.40E+00    9.2     1.30644368     -1077.5139428474 -2.24E+00
   189 Broy./Diag. 0.40E+00    9.3     0.96818767     -1077.7561217242 -2.42E-01
   190 Broy./Diag. 0.40E+00    9.6     0.45687118     -1075.9931924641  1.76E+00
   191 Broy./Diag. 0.40E+00    9.3     0.17669752     -1075.5772225398  4.16E-01
   192 Broy./Diag. 0.40E+00    9.5     1.58810358     -1075.5853601377 -8.14E-03
   193 Broy./Diag. 0.40E+00    9.2     1.59211125     -1077.7743821331 -2.19E+00
   194 Broy./Diag. 0.40E+00    9.4     1.38948478     -1077.4458684946  3.29E-01
   195 Broy./Diag. 0.40E+00    9.5     0.75311174     -1075.6931329248  1.75E+00
   196 Broy./Diag. 0.40E+00    9.2     0.70579838     -1076.6927634654 -1.00E+00
   197 Broy./Diag. 0.40E+00    9.0     0.17026745     -1075.5395638852  1.15E+00
   198 Broy./Diag. 0.40E+00    9.4     0.91397117     -1076.1779950731 -6.38E-01
   199 Broy./Diag. 0.40E+00    9.6     0.93343463     -1077.9099706043 -1.73E+00
   200 Broy./Diag. 0.40E+00    9.2     0.07038884     -1075.8960733436  2.01E+00
   201 Broy./Diag. 0.40E+00    9.1     0.09451610     -1076.0556636341 -1.60E-01
   202 Broy./Diag. 0.40E+00    9.3     1.58440865     -1076.0505886217  5.08E-03
   203 Broy./Diag. 0.40E+00    9.5     1.69356254     -1077.8641013454 -1.81E+00
   204 Broy./Diag. 0.40E+00    9.4     1.69365239     -1079.1289585947 -1.26E+00
   205 Broy./Diag. 0.40E+00    9.6     1.35967502     -1077.3605338059  1.77E+00
   206 Broy./Diag. 0.40E+00    9.5     1.61610710     -1075.2744298616  2.09E+00
   207 Broy./Diag. 0.40E+00    9.3     1.59658608     -1077.1806329683 -1.91E+00
   208 Broy./Diag. 0.40E+00    9.2     0.87445300     -1075.9013333235  1.28E+00
   209 Broy./Diag. 0.40E+00    9.4     0.94685239     -1078.0066474463 -2.11E+00
   210 Broy./Diag. 0.40E+00    9.7     1.19557964     -1075.4574869478  2.55E+00
   211 Broy./Diag. 0.40E+00    9.3     1.11122709     -1077.8313162631 -2.37E+00
   212 Broy./Diag. 0.40E+00    9.3     1.57939799     -1077.5799307146  2.51E-01
   213 Broy./Diag. 0.40E+00    9.4     1.59757156     -1077.7252620443 -1.45E-01
   214 Broy./Diag. 0.40E+00    9.6     0.68773690     -1075.4582025872  2.27E+00
   215 Broy./Diag. 0.40E+00    9.3     0.72319838     -1077.5441218894 -2.09E+00
   216 Broy./Diag. 0.40E+00    9.5     0.23854415     -1075.6231696581  1.92E+00
   217 Broy./Diag. 0.40E+00    9.5     0.07432273     -1075.6777013346 -5.45E-02
   218 Broy./Diag. 0.40E+00    9.2     0.92307356     -1075.8130023639 -1.35E-01
   219 Broy./Diag. 0.40E+00    8.9     0.93289206     -1077.9540927189 -2.14E+00
   220 Broy./Diag. 0.40E+00    8.9     0.07381575     -1075.8073608506  2.15E+00
   221 Broy./Diag. 0.40E+00    9.4     1.65071302     -1075.8023156424  5.05E-03
   222 Broy./Diag. 0.40E+00    9.5     1.68766133     -1077.6581995461 -1.86E+00
   223 Broy./Diag. 0.40E+00    9.3     1.59897816     -1077.8301474311 -1.72E-01
   224 Broy./Diag. 0.40E+00    9.5     0.30947443     -1076.0469638977  1.78E+00
   225 Broy./Diag. 0.40E+00    9.5     0.34043908     -1075.4263335525  6.21E-01
   226 Broy./Diag. 0.40E+00    9.3     0.22332312     -1076.1377928531 -7.11E-01
   227 Broy./Diag. 0.40E+00    9.4     0.13030430     -1075.8535992349  2.84E-01
   228 Broy./Diag. 0.40E+00    9.7     0.92441711     -1075.8330609585  2.05E-02
   229 Broy./Diag. 0.40E+00    9.3     1.64584017     -1077.9261787846 -2.09E+00
   230 Broy./Diag. 0.40E+00    9.0     1.66118239     -1077.5994208762  3.27E-01
   231 Broy./Diag. 0.40E+00    9.0     1.30287391     -1075.2496679927  2.35E+00
   232 Broy./Diag. 0.40E+00    9.6     1.58775980     -1077.7622926354 -2.51E+00
   233 Broy./Diag. 0.40E+00    9.5     1.60534135     -1077.7478421850  1.45E-02
   234 Broy./Diag. 0.40E+00    9.2     0.56748023     -1076.1897088714  1.56E+00
   235 Broy./Diag. 0.40E+00    9.0     0.23952110     -1075.4271090205  7.63E-01
   236 Broy./Diag. 0.40E+00    8.8     0.29060083     -1075.7441517313 -3.17E-01
   237 Broy./Diag. 0.40E+00    9.1     0.18291964     -1076.1938396490 -4.50E-01
   238 Broy./Diag. 0.40E+00    9.5     0.92248594     -1075.9091412906  2.85E-01
   239 Broy./Diag. 0.40E+00    9.3     1.65674327     -1077.9699810326 -2.06E+00
   240 Broy./Diag. 0.40E+00    9.4     1.68052393     -1079.0555240515 -1.09E+00
   241 Broy./Diag. 0.40E+00    9.3     1.64888814     -1077.2695313701  1.79E+00
   242 Broy./Diag. 0.40E+00    9.5     1.37722801     -1077.0481438172  2.21E-01
   243 Broy./Diag. 0.40E+00    9.5     0.33891424     -1074.8898687770  2.16E+00
   244 Broy./Diag. 0.40E+00    9.6     1.57914643     -1076.0940785223 -1.20E+00
   245 Broy./Diag. 0.40E+00    9.5     1.65691730     -1077.7333321747 -1.64E+00
   246 Broy./Diag. 0.40E+00    9.5     1.62025989     -1077.4963535670  2.37E-01
   247 Broy./Diag. 0.40E+00    9.2     0.19960958     -1075.9242191280  1.57E+00
   248 Broy./Diag. 0.40E+00    9.4     0.92153962     -1075.7565599410  1.68E-01
   249 Broy./Diag. 0.40E+00    9.3     0.93524717     -1077.9068605965 -2.15E+00
   250 Broy./Diag. 0.40E+00    9.3     0.83567381     -1077.0233370931  8.84E-01
   251 Broy./Diag. 0.40E+00    9.5     0.59209380     -1075.2016288533  1.82E+00
   252 Broy./Diag. 0.40E+00    9.6     0.53114632     -1077.0475121987 -1.85E+00
   253 Broy./Diag. 0.40E+00    9.6     0.28567947     -1075.5453460750  1.50E+00
   254 Broy./Diag. 0.40E+00    9.4     1.58182048     -1075.7117274544 -1.66E-01
   255 Broy./Diag. 0.40E+00    9.4     1.59137792     -1077.8962898946 -2.18E+00
   256 Broy./Diag. 0.40E+00    9.5     1.50179768     -1077.5021727610  3.94E-01
   257 Broy./Diag. 0.40E+00    9.3     0.37629155     -1075.8527545621  1.65E+00
   258 Broy./Diag. 0.40E+00    9.6     0.94050139     -1076.1005938887 -2.48E-01
   259 Broy./Diag. 0.40E+00    9.6     0.96608082     -1078.0014929969 -1.90E+00
   260 Broy./Diag. 0.40E+00    9.4     0.63607242     -1075.4728101543  2.53E+00
   261 Broy./Diag. 0.40E+00    9.2     1.07169409     -1077.3095163903 -1.84E+00
   262 Broy./Diag. 0.40E+00    9.6     0.90031771     -1077.3416808852 -3.22E-02
   263 Broy./Diag. 0.40E+00    9.8     0.29711052     -1075.4257781756  1.92E+00
   264 Broy./Diag. 0.40E+00    9.5     1.58360853     -1075.9281742189 -5.02E-01
   265 Broy./Diag. 0.40E+00    9.4     1.59292865     -1077.8394208542 -1.91E+00
   266 Broy./Diag. 0.40E+00    9.3     1.29921379     -1076.8798919220  9.60E-01
   267 Broy./Diag. 0.40E+00    9.4     1.31806865     -1077.9421004805 -1.06E+00
   268 Broy./Diag. 0.40E+00    9.2     0.86214920     -1075.8631041217  2.08E+00
   269 Broy./Diag. 0.40E+00    9.0     0.94237055     -1077.7249309509 -1.86E+00
   270 Broy./Diag. 0.40E+00    8.8     0.11760383     -1075.5924070367  2.13E+00
   271 Broy./Diag. 0.40E+00    9.5     1.63839695     -1076.3541319162 -7.62E-01
   272 Broy./Diag. 0.40E+00    9.2     1.66051849     -1077.5390714665 -1.18E+00
   273 Broy./Diag. 0.40E+00    9.2     0.99342781     -1075.2677652877  2.27E+00
   274 Broy./Diag. 0.40E+00    9.4     1.57465881     -1077.8637831886 -2.60E+00
   275 Broy./Diag. 0.40E+00    9.4     1.59666094     -1077.8982469399 -3.45E-02
   276 Broy./Diag. 0.40E+00    9.3     1.30149415     -1077.3431154728  5.55E-01
   277 Broy./Diag. 0.40E+00    9.5     1.33723140     -1077.6237290035 -2.81E-01
   278 Broy./Diag. 0.40E+00    9.3     1.00452305     -1075.1210989626  2.50E+00
   279 Broy./Diag. 0.40E+00    9.3     0.99656423     -1078.0751812383 -2.95E+00
   280 Broy./Diag. 0.40E+00    9.2     0.26031891     -1075.5955172528  2.48E+00
   281 Broy./Diag. 0.40E+00    8.9     1.61005211     -1076.3479353428 -7.52E-01
   282 Broy./Diag. 0.40E+00    8.7     1.64358878     -1077.6186169177 -1.27E+00
   283 Broy./Diag. 0.40E+00    9.4     0.06078537     -1075.7200363523  1.90E+00
   284 Broy./Diag. 0.40E+00    9.2     1.58048867     -1076.0887501703 -3.69E-01
   285 Broy./Diag. 0.40E+00    9.1     1.58886774     -1077.7613013279 -1.67E+00
   286 Broy./Diag. 0.40E+00    9.4     1.24060136     -1075.7671289229  1.99E+00
   287 Broy./Diag. 0.40E+00    9.6     1.03388678     -1077.4528809998 -1.69E+00
   288 Broy./Diag. 0.40E+00    9.5     1.51130249     -1077.4029991486  4.99E-02
   289 Broy./Diag. 0.40E+00    9.2     0.98576421     -1078.1099203242 -7.07E-01
   290 Broy./Diag. 0.40E+00    8.8     1.11515010     -1075.3400498875  2.77E+00
   291 Broy./Diag. 0.40E+00    9.0     1.04958953     -1077.5541837016 -2.21E+00
   292 Broy./Diag. 0.40E+00    9.1     0.31261456     -1075.6458415177  1.91E+00
   293 Broy./Diag. 0.40E+00    9.5     0.07220163     -1075.7946685013 -1.49E-01
   294 Broy./Diag. 0.40E+00    9.4     1.58359071     -1075.9443175426 -1.50E-01
   295 Broy./Diag. 0.40E+00    9.6     1.59137795     -1077.8303390557 -1.89E+00
   296 Broy./Diag. 0.40E+00    9.2     0.14346719     -1076.1064107069  1.72E+00
   297 Broy./Diag. 0.40E+00    8.9     1.62794506     -1075.9206579089  1.86E-01
   298 Broy./Diag. 0.40E+00    8.9     1.67499269     -1079.2660656461 -3.35E+00
   299 Broy./Diag. 0.40E+00    8.6     1.29454545     -1077.7849525875  1.48E+00
   300 Broy./Diag. 0.40E+00    9.5     1.34783601     -1077.2360353398  5.49E-01

  Leaving inner SCF loop after reaching   300 steps.


  Electronic density on regular grids:       -511.9998077980        0.0001922020
  Core density on regular grids:              511.9999024758       -0.0000975242
  Total charge density on r-space grids:        0.0000946777
  Total charge density g-space grids:           0.0000946777

  Overlap energy of the core charge distribution:               0.00000000000000
  Self energy of the core charge distribution:              -2838.21791979120962
  Core Hamiltonian energy:                                    758.68419154693674
  Hartree energy:                                            1240.98000713192505
  Exchange-correlation energy:                               -238.68231422740320

  Total energy:                                             -1077.23603533975097

 *** WARNING in qs_scf.F:542 :: SCF run NOT converged ***


 ENERGY| Total FORCE_EVAL ( QS ) energy (a.u.):            -1076.219061989393822


 ATOMIC FORCES in [a.u.]

 # Atom   Kind   Element          X              Y              Z
      1      1      O          -0.06270697     0.09468720     0.00694327
      2      2      H          -0.03592553    -0.05663316     0.04475291
      3      2      H           0.06359362    -0.01437442    -0.03716856
      4      1      O          -0.03174268     0.03023792     0.05965735
      5      2      H           0.03362789     0.03382386    -0.03470818
      6      2      H          -0.03188178    -0.06679607    -0.04233244
      7      1      O           0.08122823    -0.11054054     0.04732070
      8      2      H          -0.01195000     0.04252254     0.06359397
      9      2      H          -0.02639766     0.00648140    -0.08096903
     10      1      O          -0.05773393     0.02325977     0.04030398
     11      2      H           0.08726463     0.01381805     0.01824748
     12      2      H           0.01379942     0.00367098    -0.08989515
     13      1      O           0.03653575     0.07425301    -0.03973826
     14      2      H          -0.02796951     0.03004490     0.04344885
     15      2      H           0.02024748    -0.06454437     0.01904066
     16      1      O           0.02278324    -0.03433440     0.03893756
     17      2      H           0.03352698     0.06188074    -0.05864043
     18      2      H          -0.04904064    -0.03510483    -0.00671185
     19      1      O           0.00225406     0.07055169     0.04200421
     20      2      H           0.02931739    -0.06578396    -0.01834337
     21      2      H          -0.04356135     0.01419629    -0.03630591
     22      1      O          -0.05461292     0.05584423    -0.00420230
     23      2      H           0.02917699     0.00169350     0.08996165
     24      2      H           0.06026035    -0.05219298    -0.05816683
     25      1      O           0.06191323    -0.00336056     0.03768896
     26      2      H           0.01324401    -0.04737595     0.01889086
     27      2      H          -0.05158704     0.04710786    -0.02097534
     28      1      O          -0.01344431    -0.08477230     0.04653397
     29      2      H          -0.01063884    -0.01676096    -0.07079294
     30      2      H           0.02700699     0.05516803     0.00038474
     31      1      O          -0.00176005    -0.07384398     0.10234069
     32      2      H          -0.06893184     0.00547419    -0.01644913
     33      2      H           0.06576409     0.03847366    -0.03089709
     34      1      O           0.03302536     0.00582349    -0.03284514
     35      2      H          -0.06207611     0.00405107    -0.00362410
     36      2      H           0.03501601     0.01040349     0.05570501
     37      1      O          -0.04285899    -0.01246643    -0.07225406
     38      2      H           0.00744079    -0.00546618     0.06983584
     39      2      H          -0.03517204     0.02263262     0.02637440
     40      1      O          -0.06358623    -0.03901383    -0.02276702
     41      2      H           0.04799029     0.03224322    -0.02363322
     42      2      H           0.01901198     0.00972026     0.08926906
     43      1      O          -0.06779952    -0.02510121    -0.03240763
     44      2      H           0.00676079    -0.01119872     0.09305010
     45      2      H           0.07191155     0.01405144    -0.01884065
     46      1      O          -0.02092616     0.06065140     0.02450655
     47      2      H           0.01846306    -0.06286934     0.03770932
     48      2      H          -0.02634339    -0.04503909    -0.05992372
     49      1      O          -0.06292266     0.04978029     0.03412343
     50      2      H          -0.02910109    -0.00744321    -0.08108420
     51      2      H           0.05659845    -0.01107161     0.01668409
     52      1      O           0.00199060     0.05715862    -0.00673334
     53      2      H          -0.02985579    -0.02087058    -0.00941263
     54      2      H           0.03971986    -0.00472770     0.03906528
     55      1      O           0.00905065    -0.04761194    -0.10025712
     56      2      H          -0.00324795     0.06028702     0.02657906
     57      2      H          -0.00463960    -0.03604580     0.07439867
     58      1      O          -0.08659627     0.07303106    -0.03306226
     59      2      H           0.07333758    -0.01622445    -0.05286065
     60      2      H           0.01308838    -0.06038515     0.06368144
     61      1      O          -0.08955362     0.04706792    -0.00423373
     62      2      H           0.03486669    -0.04209551    -0.04941417
     63      2      H           0.07070557     0.03017608     0.02754890
     64      1      O          -0.05715264    -0.07338968    -0.03478631
     65      2      H           0.04118205     0.02982236    -0.06233384
     66      2      H          -0.00103030     0.04809452     0.07898239
     67      1      O          -0.04987556    -0.08298565    -0.07494170
     68      2      H           0.06885227     0.01430145     0.05485736
     69      2      H          -0.05594863     0.05395837    -0.01023014
     70      1      O           0.05766287    -0.04683131    -0.02885545
     71      2      H          -0.04710747    -0.00829236     0.07379522
     72      2      H           0.02911314     0.07897687    -0.00709157
     73      1      O           0.10281573     0.06509321     0.03311670
     74      2      H          -0.01654191    -0.08635788     0.02716482
     75      2      H          -0.06821936     0.01657751    -0.02576935
     76      1      O          -0.05150399    -0.01762706    -0.00023008
     77      2      H           0.05487341    -0.02376244     0.02759904
     78      2      H          -0.00137722     0.06226228    -0.00414923
     79      1      O          -0.00635390     0.05104644     0.05659246
     80      2      H           0.07368611    -0.02123940    -0.06432538
     81      2      H          -0.05674184    -0.04547832    -0.02590062
     82      1      O           0.06461104     0.06485220     0.02865962
     83      2      H           0.05114797    -0.07338825     0.00436080
     84      2      H          -0.08357693    -0.02306518    -0.00315395
     85      1      O          -0.08238008    -0.00631798     0.03370261
     86      2      H           0.06751672     0.05561079     0.02055169
     87      2      H           0.03554625    -0.08437590    -0.01836007
     88      1      O          -0.08217346     0.01340999    -0.02572945
     89      2      H           0.02938984    -0.00386037     0.06066951
     90      2      H           0.04467260     0.02465452    -0.04867486
     91      1      O          -0.00722067     0.03543505     0.01141925
     92      2      H           0.02669142    -0.03786353    -0.06620304
     93      2      H           0.05343592    -0.01979108     0.07550766
     94      1      O          -0.09190287    -0.01981777     0.01885261
     95      2      H           0.03423869     0.04092150     0.01970841
     96      2      H           0.02758157    -0.02737417    -0.07855282
     97      1      O           0.06540723    -0.01002123     0.05557116
     98      2      H          -0.05450675    -0.04966589     0.00290950
     99      2      H          -0.02185540     0.05614503    -0.03718392
    100      1      O           0.06399980     0.01689092    -0.08326493
    101      2      H          -0.02848959    -0.08273972     0.00710254
    102      2      H          -0.02904932     0.04412130     0.06929690
    103      1      O           0.02739460    -0.06579653    -0.05367251
    104      2      H          -0.02424479     0.00815072     0.06112300
    105      2      H           0.02438681     0.05997150    -0.03611684
    106      1      O          -0.03701127    -0.10992859    -0.05460737
    107      2      H           0.06216848     0.04356790    -0.00324075
    108      2      H          -0.06924100     0.03423040     0.03254816
    109      1      O           0.07904102    -0.09238353     0.00167701
    110      2      H           0.00749929     0.05082958    -0.06008379
    111      2      H          -0.06909076     0.00951498     0.06011655
    112      1      O           0.05741449    -0.02470770    -0.04208409
    113      2      H          -0.02796253    -0.04269608     0.06303129
    114      2      H          -0.01524442     0.06927131     0.02686331
    115      1      O          -0.00922402     0.05261778    -0.01503620
    116      2      H           0.00583532    -0.04274307    -0.07121157
    117      2      H          -0.06212094    -0.03415842     0.05268120
    118      1      O           0.05123930    -0.01152462     0.04900602
    119      2      H           0.00661316    -0.03711806    -0.08267025
    120      2      H           0.00068408     0.06543006    -0.01988693
    121      1      O          -0.02843931    -0.10138260     0.05803265
    122      2      H          -0.04610380     0.08438096    -0.01532728
    123      2      H           0.07924896    -0.00336656    -0.01314567
    124      1      O          -0.00325193    -0.09960740    -0.00349554
    125      2      H           0.05208894     0.01786654     0.03381213
    126      2      H          -0.02819770     0.05657013    -0.01523766
    127      1      O          -0.10724199    -0.00103224     0.01521810
    128      2      H           0.05782559    -0.08095729     0.02250121
    129      2      H           0.03530290     0.05277151    -0.03044982
    130      1      O          -0.07595494    -0.08255962    -0.01991230
    131      2      H           0.08955839    -0.01112282    -0.00688414
    132      2      H          -0.01014060     0.08046331    -0.00376701
    133      1      O           0.02695302    -0.06616513     0.03195517
    134      2      H           0.01412039    -0.00378825    -0.07525468
    135      2      H          -0.05537813     0.01729218     0.02710403
    136      1      O           0.10848834    -0.01205348    -0.01562635
    137      2      H          -0.03938309    -0.03078743     0.04440346
    138      2      H          -0.03759327     0.06868835    -0.03019008
    139      1      O          -0.08664033     0.09704534     0.01047406
    140      2      H           0.00701852    -0.08211095     0.02808049
    141      2      H           0.03042334     0.01855816    -0.08612385
    142      1      O           0.03613901    -0.06770931     0.02368191
    143      2      H          -0.03315422     0.01721733    -0.07541195
    144      2      H          -0.06409916     0.01124413     0.06947679
    145      1      O           0.04488807     0.01693187     0.02932318
    146      2      H          -0.00475146    -0.01930415    -0.06506455
    147      2      H          -0.06946847    -0.02257649     0.01238075
    148      1      O           0.08549791    -0.08754746     0.06824305
    149      2      H           0.03191821     0.06182746    -0.02991596
    150      2      H          -0.07075153    -0.02599431     0.00042708
    151      1      O          -0.06237815    -0.08071780    -0.00564228
    152      2      H           0.03489309     0.02886956     0.07262231
    153      2      H           0.04621952     0.01254666    -0.06485400
    154      1      O          -0.10345091    -0.01068832     0.01638076
    155      2      H           0.02362369     0.04715790    -0.05632828
    156      2      H           0.08066981    -0.01012793     0.04648354
    157      1      O           0.09225838     0.00023340    -0.05049570
    158      2      H          -0.07040426     0.00809730    -0.03619172
    159      2      H           0.00502314     0.01996855     0.06158185
    160      1      O          -0.01201821     0.03035203     0.09786133
    161      2      H           0.01958005     0.03004122    -0.08314470
    162      2      H          -0.05470774    -0.05227241    -0.00262675
    163      1      O           0.03858684     0.04405692     0.09527472
    164      2      H           0.04706707    -0.07274082    -0.00155656
    165      2      H          -0.03863218     0.02459571    -0.04403593
    166      1      O          -0.01416333     0.10256327    -0.05274860
    167      2      H           0.07262420    -0.02522307     0.04006278
    168      2      H          -0.01494852    -0.06414459    -0.02802583
    169      1      O          -0.06697684     0.07901300     0.08982657
    170      2      H          -0.04012975    -0.05596641    -0.02911522
    171      2      H           0.06830552     0.01900240    -0.03892878
    172      1      O          -0.03067682     0.05835083     0.01819574
    173      2      H          -0.00526118    -0.05277689    -0.06358586
    174      2      H           0.05212120    -0.00870225     0.06705844
    175      1      O          -0.03067317     0.04195665     0.06427205
    176      2      H           0.01947987     0.06445313    -0.03705763
    177      2      H          -0.01430560    -0.06678471    -0.02893069
    178      1      O           0.04822537     0.02959098    -0.03494959
    179      2      H          -0.07025665    -0.00140741    -0.03943210
    180      2      H          -0.01672754     0.01747881     0.07154189
    181      1      O          -0.08106172     0.03284543     0.06000291
    182      2      H           0.06981377     0.05696788     0.02288928
    183      2      H           0.01452790    -0.07507945    -0.03630563
    184      1      O           0.03560728     0.07692657     0.08743504
    185      2      H          -0.03334009    -0.00594102    -0.06197817
    186      2      H           0.04496222    -0.04641225     0.00600125
    187      1      O           0.09712316     0.00539830    -0.04749683
    188      2      H          -0.01454310     0.07445365     0.04628657
    189      2      H          -0.07403043    -0.03989601     0.01835648
    190      1      O          -0.07370398     0.02361518     0.03520196
    191      2      H           0.06180893     0.02471854     0.05145356
    192      2      H           0.00376158    -0.03434693    -0.07678145
 SUM OF ATOMIC FORCES           0.11632517    -0.08050727     0.25593623     0.29243173

 -------------------------------------------------------------------------------
 -                                                                             -
 -                                DBCSR STATISTICS                             -
 -                                                                             -
 -------------------------------------------------------------------------------
 COUNTER                                    TOTAL       BLAS       SMM       ACC
 flops     5 x     5 x   256           5659763200       0.0%    100.0%      0.0%
 flops    13 x     5 x   256           6891888640       0.0%    100.0%      0.0%
 flops     5 x    13 x   256           7052165120       0.0%    100.0%      0.0%
 flops    13 x    13 x   256           9298039296       0.0%    100.0%      0.0%
 flops inhomo. stacks                           0       0.0%      0.0%      0.0%
 flops total                        28.901856E+09       0.0%    100.0%      0.0%
 flops max/rank                     28.901856E+09       0.0%    100.0%      0.0%
 matmuls inhomo. stacks                         0       0.0%      0.0%      0.0%
 matmuls total                             968618       0.0%    100.0%      0.0%
 number of processed stacks                 42140       0.0%    100.0%      0.0%
 average stack size                                     0.0      23.0       0.0
 marketing flops                   333.927416E+09
 -------------------------------------------------------------------------------
 # multiplications                            301
 max memory usage/rank               4.978786E+09
 # max total images/rank                        1
 # max 3D layers                                1
 # MPI messages exchanged                       0
 MPI messages size (bytes):
  total size                         0.000000E+00
  min size                           0.000000E+00
  max size                           0.000000E+00
  average size                       0.000000E+00
 MPI breakdown and total messages size (bytes):
             size <=      128                   0                        0
       128 < size <=     8192                   0                        0
      8192 < size <=    32768                   0                        0
     32768 < size <=   131072                   0                        0
    131072 < size <=  4194304                   0                        0
   4194304 < size <= 16777216                   0                        0
  16777216 < size                               0                        0
 -------------------------------------------------------------------------------

 MEMORY| Estimated peak process memory [MiB]                                4743

 -------------------------------------------------------------------------------
 -                                                                             -
 -                           R E F E R E N C E S                               -
 -                                                                             -
 -------------------------------------------------------------------------------
 
 CP2K version 7.1, the CP2K developers group (2019).
 CP2K is freely available from https://www.cp2k.org/ .

 Schuett, Ole; Messmer, Peter; Hutter, Juerg; VandeVondele, Joost. 
 Electronic Structure Calculations on Graphics Processing Units, John
 Wiley & Sons, Ltd, 173-190 (2016). 
 GPU-Accelerated Sparse Matrix-Matrix Multiplication for
 Linear Scaling Density Functional Theory.
 https://dx.doi.org/10.1002/9781118670712.ch8

 Borstnik, U; VandeVondele, J; Weber, V; Hutter, J. 
 PARALLEL COMPUTING, 40 (5-6), 47-58 (2014). 
 Sparse matrix multiplication: The distributed block-compressed sparse
 row library.
 https://dx.doi.org/10.1016/j.parco.2014.03.012

 Hutter, J; Iannuzzi, M; Schiffmann, F; VandeVondele, J. 
 WIREs Comput Mol Sci., 4 (1), 15-25 (2014). 
 CP2K: atomistic simulations of condensed matter systems.
 https://dx.doi.org/10.1002/wcms.1159

 Krack, M. 
 THEORETICAL CHEMISTRY ACCOUNTS, 114 (1-3), 145-152 (2005). 
 Pseudopotentials for H to Kr optimized for gradient-corrected
 exchange-correlation functionals.
 https://dx.doi.org/10.1007/s00214-005-0655-y

 VandeVondele, J; Krack, M; Mohamed, F; Parrinello, M; Chassaing, T;
 Hutter, J. COMPUTER PHYSICS COMMUNICATIONS, 167 (2), 103-128 (2005). 
 QUICKSTEP: Fast and accurate density functional calculations using a
 mixed Gaussian and plane waves approach.
 https://dx.doi.org/10.1016/j.cpc.2004.12.014

 Frigo, M; Johnson, SG. 
 PROCEEDINGS OF THE IEEE, 93 (2), 216-231 (2005). 
 The design and implementation of FFTW3.
 https://dx.doi.org/10.1109/JPROC.2004.840301

 Hartwigsen, C; Goedecker, S; Hutter, J. 
 PHYSICAL REVIEW B, 58 (7), 3641-3662 (1998). 
 Relativistic separable dual-space Gaussian pseudopotentials from H to Rn.
 https://dx.doi.org/10.1103/PhysRevB.58.3641

 Lippert, G; Hutter, J; Parrinello, M. 
 MOLECULAR PHYSICS, 92 (3), 477-487 (1997). 
 A hybrid Gaussian and plane wave density functional scheme.
 https://dx.doi.org/10.1080/002689797170220

 Goedecker, S; Teter, M; Hutter, J. 
 PHYSICAL REVIEW B, 54 (3), 1703-1710 (1996). 
 Separable dual-space Gaussian pseudopotentials.
 https://dx.doi.org/10.1103/PhysRevB.54.1703


 -------------------------------------------------------------------------------
 -                                                                             -
 -                                T I M I N G                                  -
 -                                                                             -
 -------------------------------------------------------------------------------
 SUBROUTINE                       CALLS  ASD         SELF TIME        TOTAL TIME
                                MAXIMUM       AVERAGE  MAXIMUM  AVERAGE  MAXIMUM
 CP2K                                 1  1.0    0.178    0.178 2811.072 2811.072
 qs_forces                            1  2.0    0.000    0.000 2809.146 2809.146
 qs_energies                          1  3.0    0.000    0.000 2808.435 2808.435
 scf_env_do_scf                       1  4.0    0.000    0.000 2805.996 2805.996
 scf_env_do_scf_inner_loop          300  5.0    0.065    0.065 2805.996 2805.996
 qs_scf_new_mos                     300  6.0    0.011    0.011 1995.788 1995.788
 eigensolver                        300  7.0    0.050    0.050 1960.293 1960.293
 cp_fm_syevd                        300  8.0 1269.911 1269.911 1271.684 1271.684
 cp_fm_cholesky_restore             900  8.0  687.525  687.525  687.525  687.525
 gspace_mixing                      299  6.0    6.746    6.746  457.405  457.405
 broyden_mixing                     299  7.0  414.737  414.737  414.739  414.739
 rebuild_ks_matrix                  301  7.0    0.001    0.001  185.041  185.041
 qs_ks_build_kohn_sham_matrix       301  8.0    0.081    0.081  185.040  185.040
 qs_ks_update_qs_env                300  6.0    0.004    0.004  184.865  184.865
 pw_transfer                       3912  9.9    0.342    0.342  171.162  171.162
 qs_rho_update_rho                  301  6.0    0.003    0.003  166.813  166.813
 calculate_rho_elec                 301  7.0   79.668   79.668  166.810  166.810
 fft_wrap_pw1pw2                   3310 10.9    0.037    0.037  166.250  166.250
 fft_wrap_pw1pw2_70                1504 11.2   18.539   18.539  154.948  154.948
 density_rs2pw                      301  8.0    0.028    0.028   84.397   84.397
 fft3d_s                           3311 12.9   75.046   75.046   75.071   75.071
 pw_poisson_solve                   301  9.0   54.531   54.531   59.214   59.214
 pw_scatter_s                      1804 13.2   58.513   58.513   58.513   58.513
 -------------------------------------------------------------------------------

 The number of warnings for this run is : 1
 
 -------------------------------------------------------------------------------
  **** **** ******  **  PROGRAM ENDED AT                 2021-01-11 05:43:12.581
 ***** ** ***  *** **   PROGRAM RAN ON                                   gnode23
 **    ****   ******    PROGRAM RAN BY                               mayank.modi
 ***** **    ** ** **   PROGRAM PROCESS ID                                 32131
  **** **  *******  **  PROGRAM STOPPED IN /home/mayank.modi/ab-initio-thermodyn
                                           amics-of-water/mayank/cp2k_energy_cal
                                           culations
