 DBCSR| CPU Multiplication driver                                           XSMM
 DBCSR| Multrec recursion limit                                              512
 DBCSR| Multiplication stack size                                           1000
 DBCSR| Maximum elements for images                                    UNLIMITED
 DBCSR| Multiplicative factor virtual images                                   1
 DBCSR| Use multiplication densification                                       T
 DBCSR| Multiplication size stacks                                             3


  **** **** ******  **  PROGRAM STARTED AT               2021-02-22 13:05:45.544
 ***** ** ***  *** **   PROGRAM STARTED ON                               gnode68
 **    ****   ******    PROGRAM STARTED BY                           mayank.modi
 ***** **    ** ** **   PROGRAM PROCESS ID                                 21195
  **** **  *******  **  PROGRAM STARTED IN /home/mayank.modi/ab-initio-thermodyn
                                           amics-of-water/mayank/cp2k_energy_cal
                                           culations

 CP2K| version string:                                          CP2K version 7.1
 CP2K| source code revision number:                                  git:e635599
 CP2K| cp2kflags: omp libint fftw3 libxc xsmm spglib                            
 CP2K| is freely available from                            https://www.cp2k.org/
 CP2K| Program compiled at                          Mon Dec 23 19:23:12 CET 2019
 CP2K| Program compiled on                                                pc9404
 CP2K| Program compiled for                                Linux-x86-64-gfortran
 CP2K| Data directory path                                        /opt/cp2k/data
 CP2K| Input file name                  input_training_correct_cell/input1368.in

 GLOBAL| Force Environment number                                              1
 GLOBAL| Basis set file name                                           BASIS_SET
 GLOBAL| Potential file name                                      GTH_POTENTIALS
 GLOBAL| MM Potential file name                                     MM_POTENTIAL
 GLOBAL| Coordinate file name                                      __STD_INPUT__
 GLOBAL| Method name                                                        CP2K
 GLOBAL| Project name                                                   H2O_bulk
 GLOBAL| Preferred FFT library                                             FFTW3
 GLOBAL| Preferred diagonalization lib.                                       SL
 GLOBAL| Run type                                                   ENERGY_FORCE
 GLOBAL| All-to-all communication in single precision                          F
 GLOBAL| FFTs using library dependent lengths                                  F
 GLOBAL| Global print level                                                  LOW
 GLOBAL| MPI I/O enabled                                                       T
 GLOBAL| Total number of message passing processes                             1
 GLOBAL| Number of threads for this process                                   36
 GLOBAL| This output is from process                                           0
 GLOBAL| CPU model name                Intel(R) Xeon(R) CPU E5-2640 v4 @ 2.40GHz
 GLOBAL| CPUID                                                              1002
 GLOBAL| Compiled for CPUID                                                    0

 MEMORY| system memory details [Kb]
 MEMORY|                        rank 0           min           max       average
 MEMORY| MemTotal            131893512     131893512     131893512     131893512
 MEMORY| MemFree             119709816     119709816     119709816     119709816
 MEMORY| Buffers               1024308       1024308       1024308       1024308
 MEMORY| Cached                9698200       9698200       9698200       9698200
 MEMORY| Slab                  1016720       1016720       1016720       1016720
 MEMORY| SReclaimable           622812        622812        622812        622812
 MEMORY| MemLikelyFree       131055136     131055136     131055136     131055136


 GENERATE|  Preliminary Number of Bonds generated:                             0
 GENERATE|  Achieved consistency in connectivity generation.

 *******************************************************************************
 *******************************************************************************
 **                                                                           **
 **     #####                         ##              ##                      **
 **    ##   ##            ##          ##              ##                      **
 **   ##     ##                       ##            ######                    **
 **   ##     ##  ##   ##  ##   #####  ##  ##   ####   ##    #####    #####    **
 **   ##     ##  ##   ##  ##  ##      ## ##   ##      ##   ##   ##  ##   ##   **
 **   ##  ## ##  ##   ##  ##  ##      ####     ###    ##   ######   ######    **
 **    ##  ###   ##   ##  ##  ##      ## ##      ##   ##   ##       ##        **
 **     #######   #####   ##   #####  ##  ##  ####    ##    #####   ##        **
 **           ##                                                    ##        **
 **                                                                           **
 **                                                ... make the atoms dance   **
 **                                                                           **
 **            Copyright (C) by CP2K developers group (2000 - 2019)           **
 **                                                                           **
 *******************************************************************************


 TOTAL NUMBERS AND MAXIMUM NUMBERS

  Total number of            - Atomic kinds:                                   2
                             - Atoms:                                        192
                             - Shell sets:                                   384
                             - Shells:                                       704
                             - Primitive Cartesian functions:                960
                             - Cartesian basis functions:                   1536
                             - Spherical basis functions:                   1472

  Maximum angular momentum of- Orbital basis functions:                        2
                             - Local part of the GTH pseudopotential:          2
                             - Non-local part of the GTH pseudopotential:      0


 SCF PARAMETERS         Density guess:                                    ATOMIC
                        --------------------------------------------------------
                        max_scf:                                             300
                        max_scf_history:                                       0
                        max_diis:                                              4
                        --------------------------------------------------------
                        eps_scf:                                        1.00E-07
                        eps_scf_history:                                0.00E+00
                        eps_diis:                                       1.00E-01
                        eps_eigval:                                     1.00E-05
                        --------------------------------------------------------
                        level_shift [a.u.]:                                 0.00
                        --------------------------------------------------------
                        Mixing method:                            BROYDEN_MIXING
                                                charge density mixing in g-space
                        --------------------------------------------------------
                        No outer SCF

 Number of electrons:                                                        512
 Number of occupied orbitals:                                                256
 Number of molecular orbitals:                                               256

 Number of orbital functions:                                               1472
 Number of independent orbital functions:                                   1472

 Extrapolation method: initial_guess


 SCF WAVEFUNCTION OPTIMIZATION

  Step     Update method      Time    Convergence         Total energy    Change
  ------------------------------------------------------------------------------
     1 NoMix/Diag. 0.40E+00    7.3     0.62174681     -1064.0711919869 -1.06E+03
     2 Broy./Diag. 0.40E+00    8.0     1.90335503      -994.1729987865  6.99E+01
     3 Broy./Diag. 0.40E+00    8.0     1.93429674     -1269.8601591311 -2.76E+02
     4 Broy./Diag. 0.40E+00    8.4     1.79879675     -1118.7038221417  1.51E+02
     5 Broy./Diag. 0.40E+00    8.7     1.73967015     -1095.1526867073  2.36E+01
     6 Broy./Diag. 0.40E+00    8.8     1.80057573     -1099.9668900068 -4.81E+00
     7 Broy./Diag. 0.40E+00    9.0     1.81095888     -1096.1122081253  3.85E+00
     8 Broy./Diag. 0.40E+00    9.0     0.43557502     -1081.1070294979  1.50E+01
     9 Broy./Diag. 0.40E+00    9.1     0.22100607     -1073.0678735728  8.04E+00
    10 Broy./Diag. 0.40E+00    9.6     0.18927239     -1073.3968462195 -3.29E-01
    11 Broy./Diag. 0.40E+00    9.5     0.17206266     -1074.1496063138 -7.53E-01
    12 Broy./Diag. 0.40E+00    9.5     1.27727978     -1074.2573480864 -1.08E-01
    13 Broy./Diag. 0.40E+00    9.5     1.30574090     -1073.4255519629  8.32E-01
    14 Broy./Diag. 0.40E+00    9.6     0.13728254     -1073.6727105697 -2.47E-01
    15 Broy./Diag. 0.40E+00    9.4     0.19643035     -1075.2808002571 -1.61E+00
    16 Broy./Diag. 0.40E+00    9.4     0.14897075     -1077.9569989460 -2.68E+00
    17 Broy./Diag. 0.40E+00    9.6     0.08595757     -1076.2216381064  1.74E+00
    18 Broy./Diag. 0.40E+00    9.6     0.06809840     -1074.8917280500  1.33E+00
    19 Broy./Diag. 0.40E+00    9.7     0.03291439     -1076.2441249076 -1.35E+00
    20 Broy./Diag. 0.40E+00    9.6     0.02315353     -1076.3112660291 -6.71E-02
    21 Broy./Diag. 0.40E+00    9.4     0.02390570     -1075.8961265005  4.15E-01
    22 Broy./Diag. 0.40E+00    9.4     0.01464960     -1075.8471974916  4.89E-02
    23 Broy./Diag. 0.40E+00    9.8     0.00763326     -1075.8631749608 -1.60E-02
    24 Broy./Diag. 0.40E+00    9.7     0.01083988     -1075.9700033997 -1.07E-01
    25 Broy./Diag. 0.40E+00    9.6     0.00929714     -1075.9151463093  5.49E-02
    26 Broy./Diag. 0.40E+00    9.6     0.00665518     -1075.9299424901 -1.48E-02
    27 Broy./Diag. 0.40E+00    9.7     0.00396323     -1075.9612282908 -3.13E-02
    28 Broy./Diag. 0.40E+00   10.2     0.00323861     -1075.9332697098  2.80E-02
    29 Broy./Diag. 0.40E+00    9.4     0.00266373     -1075.9689443323 -3.57E-02
    30 Broy./Diag. 0.40E+00    9.6     0.00224902     -1075.9104020405  5.85E-02
    31 Broy./Diag. 0.40E+00    9.2     0.00160107     -1075.9451937901 -3.48E-02
    32 Broy./Diag. 0.40E+00    9.5     0.00212717     -1075.9315040782  1.37E-02
    33 Broy./Diag. 0.40E+00    9.9     0.00259946     -1075.9303702605  1.13E-03
    34 Broy./Diag. 0.40E+00    9.3     0.00260494     -1075.9304571267 -8.69E-05
    35 Broy./Diag. 0.40E+00    9.5     0.00245462     -1075.9203195901  1.01E-02
    36 Broy./Diag. 0.40E+00    9.6     0.00184843     -1075.9330064989 -1.27E-02
    37 Broy./Diag. 0.40E+00    9.7     0.00118629     -1075.9374452611 -4.44E-03
    38 Broy./Diag. 0.40E+00    9.4     0.00060954     -1075.9300317498  7.41E-03
    39 Broy./Diag. 0.40E+00    9.2     0.00098093     -1075.9279803260  2.05E-03
    40 Broy./Diag. 0.40E+00    9.1     0.00072567     -1075.9368743193 -8.89E-03
    41 Broy./Diag. 0.40E+00    9.0     0.00061772     -1075.9353028949  1.57E-03
    42 Broy./Diag. 0.40E+00    9.0     0.00038692     -1075.9336881759  1.61E-03
    43 Broy./Diag. 0.40E+00    9.0     0.00040988     -1075.9330994341  5.89E-04
    44 Broy./Diag. 0.40E+00    9.0     0.00025158     -1075.9329705999  1.29E-04
    45 Broy./Diag. 0.40E+00    8.9     0.00033051     -1075.9334497764 -4.79E-04
    46 Broy./Diag. 0.40E+00    9.1     0.00057315     -1075.9320652438  1.38E-03
    47 Broy./Diag. 0.40E+00    8.8     0.00036378     -1075.9337169770 -1.65E-03
    48 Broy./Diag. 0.40E+00    8.7     0.00028359     -1075.9317076815  2.01E-03
    49 Broy./Diag. 0.40E+00    8.7     0.00022561     -1075.9314191465  2.89E-04
    50 Broy./Diag. 0.40E+00    8.9     0.00024646     -1075.9333704444 -1.95E-03
    51 Broy./Diag. 0.40E+00    8.9     0.00016645     -1075.9332741977  9.62E-05
    52 Broy./Diag. 0.40E+00    8.8     0.00012324     -1075.9322460906  1.03E-03
    53 Broy./Diag. 0.40E+00    8.7     0.00012537     -1075.9325187478 -2.73E-04
    54 Broy./Diag. 0.40E+00    8.8     0.00011472     -1075.9323887386  1.30E-04
    55 Broy./Diag. 0.40E+00    8.9     0.00006521     -1075.9329127563 -5.24E-04
    56 Broy./Diag. 0.40E+00    9.0     0.00004108     -1075.9322690518  6.44E-04
    57 Broy./Diag. 0.40E+00    9.5     0.00004699     -1075.9324841216 -2.15E-04
    58 Broy./Diag. 0.40E+00    9.7     0.00009235     -1075.9327521684 -2.68E-04
    59 Broy./Diag. 0.40E+00    9.6     0.00006289     -1075.9327311846  2.10E-05
    60 Broy./Diag. 0.40E+00    9.5     0.00005570     -1075.9326434960  8.77E-05
    61 Broy./Diag. 0.40E+00    9.3     0.00004567     -1075.9324944249  1.49E-04
    62 Broy./Diag. 0.40E+00    9.2     0.00004733     -1075.9325086953 -1.43E-05
    63 Broy./Diag. 0.40E+00    9.5     0.00005219     -1075.9327157302 -2.07E-04
    64 Broy./Diag. 0.40E+00    9.5     0.00003055     -1075.9325843684  1.31E-04
    65 Broy./Diag. 0.40E+00    9.7     0.00002255     -1075.9326375385 -5.32E-05
    66 Broy./Diag. 0.40E+00    9.5     0.00001360     -1075.9324848908  1.53E-04
    67 Broy./Diag. 0.40E+00    9.5     0.00001086     -1075.9326020511 -1.17E-04
    68 Broy./Diag. 0.40E+00    9.5     0.00001647     -1075.9326438834 -4.18E-05
    69 Broy./Diag. 0.40E+00    9.6     0.00001477     -1075.9326071778  3.67E-05
    70 Broy./Diag. 0.40E+00    9.5     0.00000852     -1075.9325618422  4.53E-05
    71 Broy./Diag. 0.40E+00    9.7     0.00001350     -1075.9325585773  3.26E-06
    72 Broy./Diag. 0.40E+00    9.7     0.00000823     -1075.9326008594 -4.23E-05
    73 Broy./Diag. 0.40E+00    9.4     0.00001412     -1075.9326264969 -2.56E-05
    74 Broy./Diag. 0.40E+00    9.4     0.00000939     -1075.9325858715  4.06E-05
    75 Broy./Diag. 0.40E+00    9.3     0.00000776     -1075.9325815312  4.34E-06
    76 Broy./Diag. 0.40E+00    9.1     0.00000396     -1075.9325648469  1.67E-05
    77 Broy./Diag. 0.40E+00    9.1     0.00000280     -1075.9325956684 -3.08E-05
    78 Broy./Diag. 0.40E+00    8.9     0.00000379     -1075.9325934407  2.23E-06
    79 Broy./Diag. 0.40E+00    8.9     0.00000372     -1075.9325901855  3.26E-06
    80 Broy./Diag. 0.40E+00    9.0     0.00000162     -1075.9325808883  9.30E-06
    81 Broy./Diag. 0.40E+00    8.7     0.00000328     -1075.9325799445  9.44E-07
    82 Broy./Diag. 0.40E+00    9.1     0.00000307     -1075.9325961710 -1.62E-05
    83 Broy./Diag. 0.40E+00    9.6     0.00000410     -1075.9325998559 -3.68E-06
    84 Broy./Diag. 0.40E+00    9.3     0.00000308     -1075.9325831233  1.67E-05
    85 Broy./Diag. 0.40E+00    9.4     0.00000198     -1075.9325823709  7.52E-07
    86 Broy./Diag. 0.40E+00    9.3     0.00000182     -1075.9325844405 -2.07E-06
    87 Broy./Diag. 0.40E+00    9.4     0.00000099     -1075.9325928139 -8.37E-06
    88 Broy./Diag. 0.40E+00    9.5     0.00000131     -1075.9325887708  4.04E-06
    89 Broy./Diag. 0.40E+00    9.3     0.00000149     -1075.9325896672 -8.96E-07
    90 Broy./Diag. 0.40E+00    9.2     0.00000095     -1075.9325851152  4.55E-06
    91 Broy./Diag. 0.40E+00    9.4     0.00000112     -1075.9325856436 -5.28E-07
    92 Broy./Diag. 0.40E+00    9.6     0.00000124     -1075.9325929403 -7.30E-06
    93 Broy./Diag. 0.40E+00    9.6     0.00000158     -1075.9325916815  1.26E-06
    94 Broy./Diag. 0.40E+00    9.6     0.00000160     -1075.9325842349  7.45E-06
    95 Broy./Diag. 0.40E+00    9.5     0.00000076     -1075.9325861162 -1.88E-06
    96 Broy./Diag. 0.40E+00    9.6     0.00000097     -1075.9325888137 -2.70E-06
    97 Broy./Diag. 0.40E+00    9.6     0.00000052     -1075.9325907455 -1.93E-06
    98 Broy./Diag. 0.40E+00    9.6     0.00000065     -1075.9325876553  3.09E-06
    99 Broy./Diag. 0.40E+00    9.6     0.00000073     -1075.9325892259 -1.57E-06
   100 Broy./Diag. 0.40E+00    9.3     0.00000057     -1075.9325869670  2.26E-06
   101 Broy./Diag. 0.40E+00    9.5     0.00000034     -1075.9325876204 -6.53E-07
   102 Broy./Diag. 0.40E+00    9.4     0.00000048     -1075.9325900558 -2.44E-06
   103 Broy./Diag. 0.40E+00    9.4     0.00000059     -1075.9325892044  8.51E-07
   104 Broy./Diag. 0.40E+00    9.7     0.00000067     -1075.9325864612  2.74E-06
   105 Broy./Diag. 0.40E+00    9.7     0.00000026     -1075.9325881252 -1.66E-06
   106 Broy./Diag. 0.40E+00    9.4     0.00000039     -1075.9325888613 -7.36E-07
   107 Broy./Diag. 0.40E+00    9.5     0.00000022     -1075.9325890316 -1.70E-07
   108 Broy./Diag. 0.40E+00    9.5     0.00000029     -1075.9325876305  1.40E-06
   109 Broy./Diag. 0.40E+00    9.3     0.00000027     -1075.9325889575 -1.33E-06
   110 Broy./Diag. 0.40E+00    9.7     0.00000023     -1075.9325881352  8.22E-07
   111 Broy./Diag. 0.40E+00    9.5     0.00000013     -1075.9325882757 -1.41E-07
   112 Broy./Diag. 0.40E+00    9.6     0.00000016     -1075.9325889053 -6.30E-07
   113 Broy./Diag. 0.40E+00    9.5     0.00000018     -1075.9325886914  2.14E-07
   114 Broy./Diag. 0.40E+00    9.5     0.00000026     -1075.9325879825  7.09E-07
   115 Broy./Diag. 0.40E+00    9.6     0.00000016     -1075.9325887022 -7.20E-07
   116 Broy./Diag. 0.40E+00    9.3     0.00000017     -1075.9325886120  9.02E-08
   117 Broy./Diag. 0.40E+00    9.0     0.00000013     -1075.9325885949  1.71E-08
   118 Broy./Diag. 0.40E+00    9.5     0.00000014     -1075.9325881560  4.39E-07
   119 Broy./Diag. 0.40E+00    9.6     0.00000014     -1075.9325890205 -8.64E-07
   120 Broy./Diag. 0.40E+00    9.4     0.00000011     -1075.9325884303  5.90E-07
   121 Broy./Diag. 0.40E+00    9.3     0.00000007     -1075.9325883749  5.54E-08

  *** SCF run converged in   121 steps ***


  Electronic density on regular grids:       -512.0005522289       -0.0005522289
  Core density on regular grids:              511.9998549299       -0.0001450701
  Total charge density on r-space grids:       -0.0006972990
  Total charge density g-space grids:          -0.0006972990

  Overlap energy of the core charge distribution:               0.00000000000000
  Self energy of the core charge distribution:              -2838.21791979120962
  Core Hamiltonian energy:                                    759.67263346570689
  Hartree energy:                                            1241.05992197943101
  Exchange-correlation energy:                               -238.44722402883377

  Total energy:                                             -1075.93258837490544

 ENERGY| Total FORCE_EVAL ( QS ) energy (a.u.):            -1075.932588491693650


 ATOMIC FORCES in [a.u.]

 # Atom   Kind   Element          X              Y              Z
      1      1      O          -0.01858865    -0.00470466     0.05729488
      2      2      H           0.05097737    -0.06449928    -0.01943674
      3      2      H           0.01900844     0.07831575    -0.01304745
      4      1      O           0.03743062     0.01153146    -0.06501037
      5      2      H          -0.06568904    -0.04806697     0.00228316
      6      2      H           0.00406054     0.05040707     0.06485894
      7      1      O           0.03901014    -0.11411106     0.02128911
      8      2      H          -0.02669282    -0.03715200    -0.07587405
      9      2      H           0.07770101     0.05374182    -0.00603149
     10      1      O          -0.01404168     0.09911832    -0.08978417
     11      2      H          -0.05221387     0.02176974     0.05770382
     12      2      H           0.01377400    -0.05610668    -0.00235227
     13      1      O          -0.01419773     0.00494515     0.00936229
     14      2      H          -0.03909375    -0.06260584    -0.01880974
     15      2      H           0.03314163     0.01194473     0.03635814
     16      1      O           0.02685117    -0.00776572    -0.09976215
     17      2      H           0.05563412    -0.03042341    -0.00755111
     18      2      H           0.02421068     0.03722336     0.05813282
     19      1      O          -0.00571242    -0.09532059     0.04027799
     20      2      H          -0.07821638     0.08184266     0.00073406
     21      2      H           0.06842957     0.00722584     0.02795206
     22      1      O           0.00988381     0.07901344     0.02044238
     23      2      H          -0.07521667    -0.03410195    -0.02635962
     24      2      H           0.05200233    -0.07573290     0.02135569
     25      1      O          -0.10780959    -0.07304369     0.01273909
     26      2      H           0.07232073     0.00817535     0.00664731
     27      2      H           0.00080523     0.03706585    -0.04007157
     28      1      O          -0.03438233     0.03675910     0.03382319
     29      2      H          -0.04242043    -0.03354910    -0.00548126
     30      2      H           0.02512969     0.02431765    -0.04037124
     31      1      O           0.11018030    -0.03021389    -0.01219736
     32      2      H          -0.05575315     0.00290349     0.04619887
     33      2      H          -0.05603384    -0.00481992    -0.06554132
     34      1      O           0.01181279     0.04465247    -0.14600918
     35      2      H           0.09177853    -0.02429065     0.04865564
     36      2      H          -0.07126164     0.04524634     0.06755416
     37      1      O          -0.06476254    -0.08407600    -0.00653298
     38      2      H           0.00963091    -0.00100786     0.01330825
     39      2      H           0.00630227     0.03245549    -0.03723320
     40      1      O          -0.02362721    -0.09831165     0.00430618
     41      2      H           0.03224119    -0.01129297    -0.01828362
     42      2      H          -0.02680937     0.02212702     0.09117597
     43      1      O           0.02435003    -0.11648597    -0.10150096
     44      2      H          -0.07964911    -0.00715458     0.05496395
     45      2      H           0.03136313     0.09784009    -0.00611459
     46      1      O          -0.02746844     0.03341108    -0.12141497
     47      2      H          -0.01235081    -0.01387620     0.02487040
     48      2      H           0.03374941     0.05850501     0.01375381
     49      1      O           0.04254999    -0.06465683    -0.07773874
     50      2      H           0.04580714    -0.01452659     0.05754649
     51      2      H          -0.07054380    -0.01850298     0.02539883
     52      1      O          -0.06279591    -0.06383238     0.04789945
     53      2      H          -0.02032325    -0.00619832    -0.10538679
     54      2      H          -0.00374728     0.05978449     0.03565143
     55      1      O          -0.09076742     0.04738231    -0.00617903
     56      2      H           0.03390335    -0.05775715     0.04320387
     57      2      H           0.02830316     0.00369653    -0.03570549
     58      1      O          -0.10836507    -0.03563540    -0.01065377
     59      2      H           0.03479812    -0.00218492    -0.07154679
     60      2      H          -0.02606023     0.05307807     0.03645902
     61      1      O           0.12163393    -0.06581739     0.07824088
     62      2      H          -0.05208269    -0.03390866     0.03547629
     63      2      H          -0.02247855     0.06018735    -0.04173548
     64      1      O           0.03741780     0.06793191     0.08362320
     65      2      H          -0.02303373    -0.05338141    -0.00244486
     66      2      H          -0.02665583     0.05653831    -0.01374291
     67      1      O           0.10007513    -0.08700096    -0.00957407
     68      2      H          -0.01431987    -0.03443055     0.03182218
     69      2      H          -0.09219381     0.09225656     0.02190899
     70      1      O          -0.01107887     0.03078320    -0.07251314
     71      2      H           0.03067408    -0.05784748    -0.01012974
     72      2      H          -0.06281900     0.02083598     0.00417751
     73      1      O          -0.04038736    -0.00087880    -0.03195526
     74      2      H           0.06241347     0.03148400    -0.04552506
     75      2      H          -0.02027303    -0.09006088    -0.02467684
     76      1      O          -0.12460990    -0.00245044    -0.06882123
     77      2      H           0.03051291     0.01186783     0.03589114
     78      2      H           0.03941154    -0.08856596    -0.01974580
     79      1      O          -0.02296648    -0.05128409     0.03846851
     80      2      H           0.01930662     0.02453143    -0.00548458
     81      2      H          -0.04068269    -0.00112614    -0.08569939
     82      1      O          -0.08840240    -0.04167177     0.02249394
     83      2      H          -0.03097846     0.09528773     0.01031691
     84      2      H           0.05465867    -0.02063846     0.00677317
     85      1      O           0.04773361    -0.00633732     0.00632648
     86      2      H          -0.03813380    -0.01494039     0.06625931
     87      2      H           0.01540290     0.09773747    -0.05116266
     88      1      O           0.05746353    -0.03228836     0.02491862
     89      2      H           0.04567361     0.05624716    -0.02189675
     90      2      H          -0.02480766     0.01056321     0.02095181
     91      1      O           0.06675609     0.07084387     0.00751377
     92      2      H          -0.04218692     0.01342187    -0.00074211
     93      2      H           0.00288514    -0.01572992     0.00890093
     94      1      O           0.11012681    -0.11637235    -0.08978480
     95      2      H          -0.03742424    -0.01154345     0.10543133
     96      2      H          -0.03260697     0.08383600    -0.01270947
     97      1      O           0.01892495     0.02260475    -0.01351520
     98      2      H          -0.03866265    -0.01246038     0.01724799
     99      2      H          -0.02017257     0.07482090    -0.06657059
    100      1      O           0.02499510    -0.12795640    -0.01595616
    101      2      H          -0.05650115     0.03257088    -0.01839506
    102      2      H           0.06302182     0.06069044     0.02311777
    103      1      O           0.02703832     0.08518889    -0.09343740
    104      2      H          -0.04045250    -0.02764521     0.02092808
    105      2      H           0.03716154    -0.01056624     0.01232589
    106      1      O          -0.04872100    -0.10992565    -0.10332520
    107      2      H          -0.05764877     0.03606019     0.05588016
    108      2      H           0.05119359    -0.00684492     0.05282913
    109      1      O          -0.05688470    -0.08314246    -0.07209585
    110      2      H          -0.05753207     0.03244222     0.04677092
    111      2      H           0.05753377     0.04825328     0.00913767
    112      1      O           0.00475196     0.06849622    -0.11842296
    113      2      H           0.04389058     0.03249868     0.05755462
    114      2      H          -0.02638080    -0.06290962     0.05082172
    115      1      O          -0.10152841     0.01706674    -0.01045034
    116      2      H          -0.01644302     0.01807143     0.04449437
    117      2      H           0.04642894    -0.02244521     0.00925340
    118      1      O          -0.08594583    -0.09473198     0.05134029
    119      2      H          -0.03375481     0.01421994    -0.07092101
    120      2      H           0.01613271     0.08064395     0.01943631
    121      1      O           0.02363298    -0.14706482    -0.06295985
    122      2      H          -0.00575891     0.09627114    -0.00114320
    123      2      H           0.06210517     0.00356654     0.05225679
    124      1      O           0.06725834    -0.03343674    -0.02929201
    125      2      H          -0.04215885     0.07774029    -0.04533313
    126      2      H           0.01703639     0.00536896     0.05999817
    127      1      O           0.01423885    -0.15153027     0.09382933
    128      2      H          -0.07284138     0.05498837    -0.04818182
    129      2      H           0.03907563     0.07761982     0.03755975
    130      1      O          -0.04265572    -0.04893089    -0.09650920
    131      2      H          -0.05216920     0.02126237     0.00636191
    132      2      H           0.05887748    -0.04607271     0.05843177
    133      1      O          -0.05167192     0.08999221     0.01065249
    134      2      H           0.00523087    -0.02060972     0.00434060
    135      2      H          -0.00313010     0.01898273    -0.04345503
    136      1      O           0.08593179    -0.11724222    -0.05483731
    137      2      H          -0.03155117     0.01606001     0.07851444
    138      2      H           0.00959030     0.06942799    -0.05831927
    139      1      O          -0.10717017    -0.09263152    -0.03267466
    140      2      H           0.00390487     0.09559491     0.04773295
    141      2      H           0.06281297     0.01430101     0.02668812
    142      1      O           0.09616467     0.03556512     0.03869566
    143      2      H           0.00654617    -0.06752837    -0.04169906
    144      2      H          -0.07900910     0.00149387     0.06627944
    145      1      O          -0.00673921    -0.10014306     0.00268173
    146      2      H           0.05800489     0.00628194    -0.05382109
    147      2      H          -0.04755412     0.03542441     0.00823356
    148      1      O          -0.03900327     0.10190207    -0.04132264
    149      2      H           0.04563275    -0.04768725    -0.01897354
    150      2      H          -0.02706871    -0.02332138     0.04724482
    151      1      O          -0.13433676     0.08856161    -0.08556528
    152      2      H           0.02682832    -0.05383007     0.04704145
    153      2      H           0.06884914     0.01369362     0.01154254
    154      1      O          -0.04925762     0.05461629     0.00445547
    155      2      H           0.04214687     0.03526445     0.06200538
    156      2      H           0.06574547    -0.02431376    -0.02176320
    157      1      O          -0.10136426    -0.01148785    -0.02352507
    158      2      H           0.00000974     0.06175609    -0.08205207
    159      2      H           0.06253258    -0.00839452     0.05449934
    160      1      O           0.08303996    -0.03421421     0.04634031
    161      2      H          -0.07326293    -0.03772267     0.01133001
    162      2      H           0.00960702     0.01499854    -0.06431237
    163      1      O          -0.02246285    -0.05690970    -0.02925321
    164      2      H          -0.07799579     0.02734360    -0.03843675
    165      2      H           0.00924042     0.05676153     0.03244681
    166      1      O          -0.10204579     0.05750123    -0.00669177
    167      2      H           0.06725774     0.01422508     0.01405536
    168      2      H          -0.04190992    -0.01471706    -0.06631526
    169      1      O           0.10148784    -0.03731982     0.07297862
    170      2      H          -0.09496471     0.06601688     0.00500352
    171      2      H          -0.05203038    -0.06191073    -0.01528721
    172      1      O          -0.12679333    -0.10585079    -0.03773226
    173      2      H           0.04306312     0.01498869    -0.08772991
    174      2      H           0.03519193     0.05538846     0.08904973
    175      1      O          -0.00290459     0.08250054     0.08153527
    176      2      H           0.06415658     0.00950098     0.00219049
    177      2      H          -0.03785791    -0.01986965    -0.02413574
    178      1      O           0.06521333    -0.13725789     0.01689679
    179      2      H          -0.06569786     0.02372524    -0.01926888
    180      2      H           0.01704428     0.00391776     0.03868895
    181      1      O           0.00789143    -0.07622783    -0.11718497
    182      2      H           0.03604945     0.06178168     0.03317237
    183      2      H          -0.02883323     0.00066314     0.05384855
    184      1      O           0.04380851    -0.10928247    -0.04626976
    185      2      H          -0.01074050     0.06984455    -0.05189527
    186      2      H          -0.03334946     0.02544809     0.05489789
    187      1      O           0.08622730    -0.08835055    -0.02390688
    188      2      H          -0.06280549     0.01118629    -0.03910553
    189      2      H           0.02092873     0.04906883    -0.00077609
    190      1      O           0.08419124    -0.06791797     0.03605158
    191      2      H          -0.04641888     0.01451965    -0.00449392
    192      2      H           0.04000899    -0.02119355    -0.05029863
 SUM OF ATOMIC FORCES          -0.51993441    -0.31230236    -0.51757126     0.79733592

 -------------------------------------------------------------------------------
 -                                                                             -
 -                                DBCSR STATISTICS                             -
 -                                                                             -
 -------------------------------------------------------------------------------
 COUNTER                                    TOTAL       BLAS       SMM       ACC
 flops     5 x     5 x   256           2028518400       0.0%    100.0%      0.0%
 flops    13 x     5 x   256           2415795200       0.0%    100.0%      0.0%
 flops     5 x    13 x   256           2423915520       0.0%    100.0%      0.0%
 flops    13 x    13 x   256           3166924800       0.0%    100.0%      0.0%
 flops inhomo. stacks                           0       0.0%      0.0%      0.0%
 flops total                        10.035154E+09       0.0%    100.0%      0.0%
 flops max/rank                     10.035154E+09       0.0%    100.0%      0.0%
 matmuls inhomo. stacks                         0       0.0%      0.0%      0.0%
 matmuls total                             340502       0.0%    100.0%      0.0%
 number of processed stacks                 17080       0.0%    100.0%      0.0%
 average stack size                                     0.0      19.9       0.0
 marketing flops                   135.345996E+09
 -------------------------------------------------------------------------------
 # multiplications                            122
 max memory usage/rank               4.992791E+09
 # max total images/rank                        1
 # max 3D layers                                1
 # MPI messages exchanged                       0
 MPI messages size (bytes):
  total size                         0.000000E+00
  min size                           0.000000E+00
  max size                           0.000000E+00
  average size                       0.000000E+00
 MPI breakdown and total messages size (bytes):
             size <=      128                   0                        0
       128 < size <=     8192                   0                        0
      8192 < size <=    32768                   0                        0
     32768 < size <=   131072                   0                        0
    131072 < size <=  4194304                   0                        0
   4194304 < size <= 16777216                   0                        0
  16777216 < size                               0                        0
 -------------------------------------------------------------------------------

 MEMORY| Estimated peak process memory [MiB]                                4756

 -------------------------------------------------------------------------------
 -                                                                             -
 -                           R E F E R E N C E S                               -
 -                                                                             -
 -------------------------------------------------------------------------------
 
 CP2K version 7.1, the CP2K developers group (2019).
 CP2K is freely available from https://www.cp2k.org/ .

 Schuett, Ole; Messmer, Peter; Hutter, Juerg; VandeVondele, Joost. 
 Electronic Structure Calculations on Graphics Processing Units, John
 Wiley & Sons, Ltd, 173-190 (2016). 
 GPU-Accelerated Sparse Matrix-Matrix Multiplication for
 Linear Scaling Density Functional Theory.
 https://dx.doi.org/10.1002/9781118670712.ch8

 Borstnik, U; VandeVondele, J; Weber, V; Hutter, J. 
 PARALLEL COMPUTING, 40 (5-6), 47-58 (2014). 
 Sparse matrix multiplication: The distributed block-compressed sparse
 row library.
 https://dx.doi.org/10.1016/j.parco.2014.03.012

 Hutter, J; Iannuzzi, M; Schiffmann, F; VandeVondele, J. 
 WIREs Comput Mol Sci., 4 (1), 15-25 (2014). 
 CP2K: atomistic simulations of condensed matter systems.
 https://dx.doi.org/10.1002/wcms.1159

 Krack, M. 
 THEORETICAL CHEMISTRY ACCOUNTS, 114 (1-3), 145-152 (2005). 
 Pseudopotentials for H to Kr optimized for gradient-corrected
 exchange-correlation functionals.
 https://dx.doi.org/10.1007/s00214-005-0655-y

 VandeVondele, J; Krack, M; Mohamed, F; Parrinello, M; Chassaing, T;
 Hutter, J. COMPUTER PHYSICS COMMUNICATIONS, 167 (2), 103-128 (2005). 
 QUICKSTEP: Fast and accurate density functional calculations using a
 mixed Gaussian and plane waves approach.
 https://dx.doi.org/10.1016/j.cpc.2004.12.014

 Frigo, M; Johnson, SG. 
 PROCEEDINGS OF THE IEEE, 93 (2), 216-231 (2005). 
 The design and implementation of FFTW3.
 https://dx.doi.org/10.1109/JPROC.2004.840301

 Hartwigsen, C; Goedecker, S; Hutter, J. 
 PHYSICAL REVIEW B, 58 (7), 3641-3662 (1998). 
 Relativistic separable dual-space Gaussian pseudopotentials from H to Rn.
 https://dx.doi.org/10.1103/PhysRevB.58.3641

 Lippert, G; Hutter, J; Parrinello, M. 
 MOLECULAR PHYSICS, 92 (3), 477-487 (1997). 
 A hybrid Gaussian and plane wave density functional scheme.
 https://dx.doi.org/10.1080/002689797170220

 Goedecker, S; Teter, M; Hutter, J. 
 PHYSICAL REVIEW B, 54 (3), 1703-1710 (1996). 
 Separable dual-space Gaussian pseudopotentials.
 https://dx.doi.org/10.1103/PhysRevB.54.1703


 -------------------------------------------------------------------------------
 -                                                                             -
 -                                T I M I N G                                  -
 -                                                                             -
 -------------------------------------------------------------------------------
 SUBROUTINE                       CALLS  ASD         SELF TIME        TOTAL TIME
                                MAXIMUM       AVERAGE  MAXIMUM  AVERAGE  MAXIMUM
 CP2K                                 1  1.0    0.154    0.154 1132.651 1132.651
 qs_forces                            1  2.0    0.000    0.000 1130.700 1130.700
 qs_energies                          1  3.0    0.000    0.000 1130.010 1130.010
 scf_env_do_scf                       1  4.0    0.000    0.000 1127.555 1127.555
 scf_env_do_scf_inner_loop          121  5.0    0.025    0.025 1127.555 1127.555
 qs_scf_new_mos                     121  6.0    0.004    0.004  803.912  803.912
 eigensolver                        121  7.0    0.019    0.019  790.647  790.647
 cp_fm_syevd                        121  8.0  514.849  514.849  515.505  515.505
 cp_fm_cholesky_restore             363  8.0  274.699  274.699  274.699  274.699
 gspace_mixing                      120  6.0    2.715    2.715  177.561  177.561
 broyden_mixing                     120  7.0  159.978  159.978  159.979  159.979
 rebuild_ks_matrix                  122  7.0    0.000    0.000   74.099   74.099
 qs_ks_build_kohn_sham_matrix       122  8.0    0.028    0.028   74.099   74.099
 qs_ks_update_qs_env                121  6.0    0.001    0.001   73.634   73.634
 qs_rho_update_rho                  122  6.0    0.001    0.001   72.379   72.379
 calculate_rho_elec                 122  7.0   36.472   36.472   72.378   72.378
 pw_transfer                       1585  9.9    0.125    0.125   71.415   71.415
 fft_wrap_pw1pw2                   1341 10.9    0.014    0.014   69.303   69.303
 fft_wrap_pw1pw2_70                 609 11.2    7.121    7.121   64.612   64.612
 density_rs2pw                      122  8.0    0.008    0.008   34.915   34.915
 fft3d_s                           1342 12.9   32.161   32.161   32.173   32.173
 pw_scatter_s                       730 13.2   24.118   24.118   24.118   24.118
 pw_poisson_solve                   122  9.0   21.377   21.377   23.433   23.433
 -------------------------------------------------------------------------------

 The number of warnings for this run is : 0
 
 -------------------------------------------------------------------------------
  **** **** ******  **  PROGRAM ENDED AT                 2021-02-22 13:24:38.305
 ***** ** ***  *** **   PROGRAM RAN ON                                   gnode68
 **    ****   ******    PROGRAM RAN BY                               mayank.modi
 ***** **    ** ** **   PROGRAM PROCESS ID                                 21195
  **** **  *******  **  PROGRAM STOPPED IN /home/mayank.modi/ab-initio-thermodyn
                                           amics-of-water/mayank/cp2k_energy_cal
                                           culations
