 DBCSR| CPU Multiplication driver                                           XSMM
 DBCSR| Multrec recursion limit                                              512
 DBCSR| Multiplication stack size                                           1000
 DBCSR| Maximum elements for images                                    UNLIMITED
 DBCSR| Multiplicative factor virtual images                                   1
 DBCSR| Use multiplication densification                                       T
 DBCSR| Multiplication size stacks                                             3


  **** **** ******  **  PROGRAM STARTED AT               2021-01-12 15:38:18.834
 ***** ** ***  *** **   PROGRAM STARTED ON                               gnode23
 **    ****   ******    PROGRAM STARTED BY                           mayank.modi
 ***** **    ** ** **   PROGRAM PROCESS ID                                 35930
  **** **  *******  **  PROGRAM STARTED IN /home/mayank.modi/ab-initio-thermodyn
                                           amics-of-water/mayank/cp2k_energy_cal
                                           culations

 CP2K| version string:                                          CP2K version 7.1
 CP2K| source code revision number:                                  git:e635599
 CP2K| cp2kflags: omp libint fftw3 libxc xsmm spglib                            
 CP2K| is freely available from                            https://www.cp2k.org/
 CP2K| Program compiled at                          Mon Dec 23 19:23:12 CET 2019
 CP2K| Program compiled on                                                pc9404
 CP2K| Program compiled for                                Linux-x86-64-gfortran
 CP2K| Data directory path                                        /opt/cp2k/data
 CP2K| Input file name                   input_training_correct_cell/input324.in

 GLOBAL| Force Environment number                                              1
 GLOBAL| Basis set file name                                           BASIS_SET
 GLOBAL| Potential file name                                      GTH_POTENTIALS
 GLOBAL| MM Potential file name                                     MM_POTENTIAL
 GLOBAL| Coordinate file name                                      __STD_INPUT__
 GLOBAL| Method name                                                        CP2K
 GLOBAL| Project name                                                   H2O_bulk
 GLOBAL| Preferred FFT library                                             FFTW3
 GLOBAL| Preferred diagonalization lib.                                       SL
 GLOBAL| Run type                                                   ENERGY_FORCE
 GLOBAL| All-to-all communication in single precision                          F
 GLOBAL| FFTs using library dependent lengths                                  F
 GLOBAL| Global print level                                                  LOW
 GLOBAL| MPI I/O enabled                                                       T
 GLOBAL| Total number of message passing processes                             1
 GLOBAL| Number of threads for this process                                   36
 GLOBAL| This output is from process                                           0
 GLOBAL| CPU model name                Intel(R) Xeon(R) CPU E5-2640 v4 @ 2.40GHz
 GLOBAL| CPUID                                                              1002
 GLOBAL| Compiled for CPUID                                                    0

 MEMORY| system memory details [Kb]
 MEMORY|                        rank 0           min           max       average
 MEMORY| MemTotal            131897972     131897972     131897972     131897972
 MEMORY| MemFree             125525760     125525760     125525760     125525760
 MEMORY| Buffers               1898608       1898608       1898608       1898608
 MEMORY| Cached                1390524       1390524       1390524       1390524
 MEMORY| Slab                  2616116       2616116       2616116       2616116
 MEMORY| SReclaimable          1584444       1584444       1584444       1584444
 MEMORY| MemLikelyFree       130399336     130399336     130399336     130399336


 GENERATE| WARNING:: No connections detected for Hydrogen - Atom Nr:        53 !
 GENERATE|  Preliminary Number of Bonds generated:                             0
 GENERATE|  Achieved consistency in connectivity generation.

 *******************************************************************************
 *******************************************************************************
 **                                                                           **
 **     #####                         ##              ##                      **
 **    ##   ##            ##          ##              ##                      **
 **   ##     ##                       ##            ######                    **
 **   ##     ##  ##   ##  ##   #####  ##  ##   ####   ##    #####    #####    **
 **   ##     ##  ##   ##  ##  ##      ## ##   ##      ##   ##   ##  ##   ##   **
 **   ##  ## ##  ##   ##  ##  ##      ####     ###    ##   ######   ######    **
 **    ##  ###   ##   ##  ##  ##      ## ##      ##   ##   ##       ##        **
 **     #######   #####   ##   #####  ##  ##  ####    ##    #####   ##        **
 **           ##                                                    ##        **
 **                                                                           **
 **                                                ... make the atoms dance   **
 **                                                                           **
 **            Copyright (C) by CP2K developers group (2000 - 2019)           **
 **                                                                           **
 *******************************************************************************


 TOTAL NUMBERS AND MAXIMUM NUMBERS

  Total number of            - Atomic kinds:                                   2
                             - Atoms:                                        192
                             - Shell sets:                                   384
                             - Shells:                                       704
                             - Primitive Cartesian functions:                960
                             - Cartesian basis functions:                   1536
                             - Spherical basis functions:                   1472

  Maximum angular momentum of- Orbital basis functions:                        2
                             - Local part of the GTH pseudopotential:          2
                             - Non-local part of the GTH pseudopotential:      0


 SCF PARAMETERS         Density guess:                                    ATOMIC
                        --------------------------------------------------------
                        max_scf:                                             300
                        max_scf_history:                                       0
                        max_diis:                                              4
                        --------------------------------------------------------
                        eps_scf:                                        1.00E-07
                        eps_scf_history:                                0.00E+00
                        eps_diis:                                       1.00E-01
                        eps_eigval:                                     1.00E-05
                        --------------------------------------------------------
                        level_shift [a.u.]:                                 0.00
                        --------------------------------------------------------
                        Mixing method:                            BROYDEN_MIXING
                                                charge density mixing in g-space
                        --------------------------------------------------------
                        No outer SCF

 Number of electrons:                                                        512
 Number of occupied orbitals:                                                256
 Number of molecular orbitals:                                               256

 Number of orbital functions:                                               1472
 Number of independent orbital functions:                                   1472

 Extrapolation method: initial_guess


 SCF WAVEFUNCTION OPTIMIZATION

  Step     Update method      Time    Convergence         Total energy    Change
  ------------------------------------------------------------------------------
     1 NoMix/Diag. 0.40E+00    7.2     0.68379986     -1063.5181051993 -1.06E+03
     2 Broy./Diag. 0.40E+00    7.7     1.93478323      -988.9504258047  7.46E+01
     3 Broy./Diag. 0.40E+00    8.1     1.91399825     -1287.2091315963 -2.98E+02
     4 Broy./Diag. 0.40E+00    8.1     1.70665704     -1136.2142776559  1.51E+02
     5 Broy./Diag. 0.40E+00    8.1     1.79469825     -1090.6726078799  4.55E+01
     6 Broy./Diag. 0.40E+00    8.3     1.88401095     -1105.3155481996 -1.46E+01
     7 Broy./Diag. 0.40E+00    8.2     1.67948466     -1104.3446053844  9.71E-01
     8 Broy./Diag. 0.40E+00    8.4     1.84556086     -1088.4863622627  1.59E+01
     9 Broy./Diag. 0.40E+00    8.8     1.27884509     -1077.1603518967  1.13E+01
    10 Broy./Diag. 0.40E+00    9.2     1.36221932     -1075.0232608419  2.14E+00
    11 Broy./Diag. 0.40E+00    9.4     1.48721598     -1075.7896655592 -7.66E-01
    12 Broy./Diag. 0.40E+00    9.2     1.63724339     -1072.1969410639  3.59E+00
    13 Broy./Diag. 0.40E+00    9.3     1.64938420     -1066.0329018189  6.16E+00
    14 Broy./Diag. 0.40E+00    9.5     1.80114960     -1077.4183513923 -1.14E+01
    15 Broy./Diag. 0.40E+00    9.5     1.87425250     -1081.6332274706 -4.21E+00
    16 Broy./Diag. 0.40E+00    9.2     1.74977917     -1079.8948229248  1.74E+00
    17 Broy./Diag. 0.40E+00    9.1     1.79343429     -1069.8267513658  1.01E+01
    18 Broy./Diag. 0.40E+00    9.5     1.80437340     -1079.0065280038 -9.18E+00
    19 Broy./Diag. 0.40E+00    9.2     1.80473807     -1075.6574519750  3.35E+00
    20 Broy./Diag. 0.40E+00    9.3     1.83467819     -1078.9155164721 -3.26E+00
    21 Broy./Diag. 0.40E+00    9.4     1.85103279     -1077.2146868208  1.70E+00
    22 Broy./Diag. 0.40E+00    9.2     1.74691446     -1076.2410796502  9.74E-01
    23 Broy./Diag. 0.40E+00    9.5     1.82362016     -1066.7010164910  9.54E+00
    24 Broy./Diag. 0.40E+00    9.5     1.82454906     -1080.1708152034 -1.35E+01
    25 Broy./Diag. 0.40E+00    9.6     1.77379453     -1076.1948352346  3.98E+00
    26 Broy./Diag. 0.40E+00    9.4     1.85195602     -1072.1471060129  4.05E+00
    27 Broy./Diag. 0.40E+00    9.5     1.81742005     -1071.1066021232  1.04E+00
    28 Broy./Diag. 0.40E+00    9.4     1.65270902     -1078.1982697143 -7.09E+00
    29 Broy./Diag. 0.40E+00    9.6     1.79286719     -1070.6964857771  7.50E+00
    30 Broy./Diag. 0.40E+00    9.2     1.84722472     -1077.0738764725 -6.38E+00
    31 Broy./Diag. 0.40E+00    9.2     1.16111509     -1075.8151065679  1.26E+00
    32 Broy./Diag. 0.40E+00    9.5     1.43085272     -1073.4679451757  2.35E+00
    33 Broy./Diag. 0.40E+00    9.4     1.48816272     -1074.5429312623 -1.07E+00
    34 Broy./Diag. 0.40E+00    9.7     1.79430777     -1076.4163303773 -1.87E+00
    35 Broy./Diag. 0.40E+00    9.4     1.88313404     -1076.6846300854 -2.68E-01
    36 Broy./Diag. 0.40E+00    9.5     1.83778405     -1074.5969998506  2.09E+00
    37 Broy./Diag. 0.40E+00    9.2     1.55744338     -1070.0399279142  4.56E+00
    38 Broy./Diag. 0.40E+00    9.4     1.79579071     -1074.2178620354 -4.18E+00
    39 Broy./Diag. 0.40E+00    9.2     1.86814176     -1075.5609648238 -1.34E+00
    40 Broy./Diag. 0.40E+00    9.5     1.78349404     -1075.5156350405  4.53E-02
    41 Broy./Diag. 0.40E+00    9.4     1.82388783     -1074.2960576718  1.22E+00
    42 Broy./Diag. 0.40E+00    9.3     1.70820340     -1075.8165619584 -1.52E+00
    43 Broy./Diag. 0.40E+00    9.5     1.82350199     -1074.5493569595  1.27E+00
    44 Broy./Diag. 0.40E+00    9.6     1.68685642     -1076.6061259681 -2.06E+00
    45 Broy./Diag. 0.40E+00    9.4     1.84890591     -1073.2449405120  3.36E+00
    46 Broy./Diag. 0.40E+00    9.6     1.84226176     -1073.7197534305 -4.75E-01
    47 Broy./Diag. 0.40E+00    9.2     1.60775480     -1075.8510473913 -2.13E+00
    48 Broy./Diag. 0.40E+00    9.9     1.64511463     -1073.8193509924  2.03E+00
    49 Broy./Diag. 0.40E+00    9.5     1.40694661     -1074.7319331251 -9.13E-01
    50 Broy./Diag. 0.40E+00    9.3     1.72552203     -1075.8032801945 -1.07E+00
    51 Broy./Diag. 0.40E+00    9.4     1.75751051     -1074.3612899482  1.44E+00
    52 Broy./Diag. 0.40E+00    9.6     1.72740005     -1075.1070155054 -7.46E-01
    53 Broy./Diag. 0.40E+00    9.4     1.74883565     -1073.3868103074  1.72E+00
    54 Broy./Diag. 0.40E+00    9.2     1.81369768     -1076.1749327494 -2.79E+00
    55 Broy./Diag. 0.40E+00    8.9     1.70598692     -1073.9618813392  2.21E+00
    56 Broy./Diag. 0.40E+00    8.8     1.81903539     -1074.8930975419 -9.31E-01
    57 Broy./Diag. 0.40E+00    9.0     1.66206136     -1071.6908854533  3.20E+00
    58 Broy./Diag. 0.40E+00    8.9     1.74410622     -1076.4132082341 -4.72E+00
    59 Broy./Diag. 0.40E+00    9.5     1.79814779     -1074.8058382184  1.61E+00
    60 Broy./Diag. 0.40E+00    9.5     1.83678578     -1072.2017084316  2.60E+00
    61 Broy./Diag. 0.40E+00    9.5     1.78893582     -1077.0824581308 -4.88E+00
    62 Broy./Diag. 0.40E+00    9.3     1.88594363     -1077.7416726208 -6.59E-01
    63 Broy./Diag. 0.40E+00    9.2     1.38153329     -1074.9082771951  2.83E+00
    64 Broy./Diag. 0.40E+00    9.2     1.69953469     -1071.6103589375  3.30E+00
    65 Broy./Diag. 0.40E+00    9.4     1.80700166     -1076.6518049686 -5.04E+00
    66 Broy./Diag. 0.40E+00    9.5     1.83004676     -1074.1315455392  2.52E+00
    67 Broy./Diag. 0.40E+00    9.5     1.76719721     -1076.9360182747 -2.80E+00
    68 Broy./Diag. 0.40E+00    9.8     1.75725169     -1072.2984355644  4.64E+00
    69 Broy./Diag. 0.40E+00    9.4     1.81178129     -1079.2881341979 -6.99E+00
    70 Broy./Diag. 0.40E+00    9.6     1.87270542     -1074.7421825067  4.55E+00
    71 Broy./Diag. 0.40E+00    9.2     1.82639053     -1072.1887782848  2.55E+00
    72 Broy./Diag. 0.40E+00    9.4     1.62445067     -1073.4989911831 -1.31E+00
    73 Broy./Diag. 0.40E+00    9.2     1.70779920     -1078.4643711467 -4.97E+00
    74 Broy./Diag. 0.40E+00    8.9     1.47433162     -1072.2686054923  6.20E+00
    75 Broy./Diag. 0.40E+00    8.7     1.76596231     -1076.5495941279 -4.28E+00
    76 Broy./Diag. 0.40E+00    8.7     1.84505384     -1070.5203614683  6.03E+00
    77 Broy./Diag. 0.40E+00    9.5     1.86178686     -1072.1377006360 -1.62E+00
    78 Broy./Diag. 0.40E+00    9.4     1.75391812     -1077.2546543438 -5.12E+00
    79 Broy./Diag. 0.40E+00    9.5     1.76204217     -1078.1244102870 -8.70E-01
    80 Broy./Diag. 0.40E+00    9.5     1.71433745     -1071.3970947441  6.73E+00
    81 Broy./Diag. 0.40E+00    9.5     1.79003883     -1082.6912574241 -1.13E+01
    82 Broy./Diag. 0.40E+00    9.4     1.59166034     -1075.6517252821  7.04E+00
    83 Broy./Diag. 0.40E+00    9.1     1.74304200     -1073.1732137103  2.48E+00
    84 Broy./Diag. 0.40E+00    8.8     1.77837457     -1073.9522436662 -7.79E-01
    85 Broy./Diag. 0.40E+00    8.9     1.78295596     -1070.3510278284  3.60E+00
    86 Broy./Diag. 0.40E+00    8.9     1.84778959     -1072.6303882531 -2.28E+00
    87 Broy./Diag. 0.40E+00    9.3     1.85409938     -1075.0288371736 -2.40E+00
    88 Broy./Diag. 0.40E+00    9.3     1.75256412     -1080.8734418639 -5.84E+00
    89 Broy./Diag. 0.40E+00    9.6     1.76392072     -1078.1324448537  2.74E+00
    90 Broy./Diag. 0.40E+00    9.4     1.28331580     -1073.1856639757  4.95E+00
    91 Broy./Diag. 0.40E+00    9.4     1.03613213     -1069.3795867893  3.81E+00
    92 Broy./Diag. 0.40E+00    9.4     1.79831107     -1074.9985578828 -5.62E+00
    93 Broy./Diag. 0.40E+00    9.5     1.79323654     -1076.8735711822 -1.88E+00
    94 Broy./Diag. 0.40E+00    9.5     1.79360839     -1072.0816088931  4.79E+00
    95 Broy./Diag. 0.40E+00    9.4     1.81799088     -1075.9756282445 -3.89E+00
    96 Broy./Diag. 0.40E+00    9.1     1.57522175     -1076.9968115480 -1.02E+00
    97 Broy./Diag. 0.40E+00    8.9     1.73527902     -1073.7393680476  3.26E+00
    98 Broy./Diag. 0.40E+00    8.9     1.77875380     -1073.4690039412  2.70E-01
    99 Broy./Diag. 0.40E+00    8.8     1.81624271     -1079.1408531550 -5.67E+00
   100 Broy./Diag. 0.40E+00    8.7     1.80972403     -1071.6853396643  7.46E+00
   101 Broy./Diag. 0.40E+00    8.7     1.80650575     -1079.6512603712 -7.97E+00
   102 Broy./Diag. 0.40E+00    8.7     1.82066405     -1074.0640467565  5.59E+00
   103 Broy./Diag. 0.40E+00    8.8     1.80466915     -1077.4346993140 -3.37E+00
   104 Broy./Diag. 0.40E+00    9.5     1.80447926     -1071.7859237555  5.65E+00
   105 Broy./Diag. 0.40E+00    9.5     1.83310212     -1077.9706502787 -6.18E+00
   106 Broy./Diag. 0.40E+00    9.3     1.68468106     -1072.9298141760  5.04E+00
   107 Broy./Diag. 0.40E+00    9.2     1.44396624     -1073.7882872077 -8.58E-01
   108 Broy./Diag. 0.40E+00    9.4     1.79639455     -1072.8241995785  9.64E-01
   109 Broy./Diag. 0.40E+00    9.5     1.80827288     -1076.4596124646 -3.64E+00
   110 Broy./Diag. 0.40E+00    9.3     1.80569883     -1074.9256859581  1.53E+00
   111 Broy./Diag. 0.40E+00    9.5     1.85634708     -1075.3967412951 -4.71E-01
   112 Broy./Diag. 0.40E+00    9.5     1.79780880     -1082.5122377417 -7.12E+00
   113 Broy./Diag. 0.40E+00    9.4     1.73923250     -1070.4200703770  1.21E+01
   114 Broy./Diag. 0.40E+00    9.2     1.74367224     -1076.5475022592 -6.13E+00
   115 Broy./Diag. 0.40E+00    9.4     1.59301337     -1074.3733650673  2.17E+00
   116 Broy./Diag. 0.40E+00    9.6     1.71094943     -1076.0924348438 -1.72E+00
   117 Broy./Diag. 0.40E+00    9.5     1.55308027     -1072.9847075714  3.11E+00
   118 Broy./Diag. 0.40E+00    9.6     1.80157247     -1070.8545218931  2.13E+00
   119 Broy./Diag. 0.40E+00    9.6     1.83538219     -1078.6706636862 -7.82E+00
   120 Broy./Diag. 0.40E+00    9.3     1.61718464     -1070.7392994161  7.93E+00
   121 Broy./Diag. 0.40E+00    9.1     1.70422746     -1081.5295486045 -1.08E+01
   122 Broy./Diag. 0.40E+00    9.3     1.75939699     -1072.7747771218  8.75E+00
   123 Broy./Diag. 0.40E+00    9.5     1.85617354     -1077.7826171479 -5.01E+00
   124 Broy./Diag. 0.40E+00    9.5     1.83389156     -1075.0734352997  2.71E+00
   125 Broy./Diag. 0.40E+00    9.4     1.79599608     -1074.8942936474  1.79E-01
   126 Broy./Diag. 0.40E+00    9.4     1.79119057     -1075.8801453817 -9.86E-01
   127 Broy./Diag. 0.40E+00    9.4     1.82544779     -1077.6370576892 -1.76E+00
   128 Broy./Diag. 0.40E+00    9.5     1.84753090     -1071.6634877636  5.97E+00
   129 Broy./Diag. 0.40E+00    9.6     1.71368571     -1075.8750807826 -4.21E+00
   130 Broy./Diag. 0.40E+00    9.3     1.81716296     -1076.1116926628 -2.37E-01
   131 Broy./Diag. 0.40E+00    9.2     1.84727731     -1074.9962848672  1.12E+00
   132 Broy./Diag. 0.40E+00    9.2     1.78440001     -1072.0422388945  2.95E+00
   133 Broy./Diag. 0.40E+00    9.5     1.78648749     -1070.2950375237  1.75E+00
   134 Broy./Diag. 0.40E+00    9.5     1.83544089     -1078.2659356322 -7.97E+00
   135 Broy./Diag. 0.40E+00    9.3     1.86390520     -1076.7003220058  1.57E+00
   136 Broy./Diag. 0.40E+00    9.6     1.69293918     -1073.1158616530  3.58E+00
   137 Broy./Diag. 0.40E+00    9.6     1.79227814     -1074.8391435499 -1.72E+00
   138 Broy./Diag. 0.40E+00    9.4     1.64797646     -1069.0379562550  5.80E+00
   139 Broy./Diag. 0.40E+00    9.5     1.65568968     -1077.8997700831 -8.86E+00
   140 Broy./Diag. 0.40E+00    9.5     1.80075083     -1075.9945659449  1.91E+00
   141 Broy./Diag. 0.40E+00    9.5     1.84712726     -1076.7922173454 -7.98E-01
   142 Broy./Diag. 0.40E+00    9.3     1.86147766     -1072.6716352069  4.12E+00
   143 Broy./Diag. 0.40E+00    9.7     1.68410038     -1074.8925175873 -2.22E+00
   144 Broy./Diag. 0.40E+00    9.6     1.81936502     -1072.5273163320  2.37E+00
   145 Broy./Diag. 0.40E+00    9.5     1.86834464     -1072.8797576079 -3.52E-01
   146 Broy./Diag. 0.40E+00    9.5     1.65209016     -1078.1499601926 -5.27E+00
   147 Broy./Diag. 0.40E+00    9.5     1.76173575     -1075.6035505070  2.55E+00
   148 Broy./Diag. 0.40E+00    9.5     1.68220061     -1073.6739021544  1.93E+00
   149 Broy./Diag. 0.40E+00    9.8     1.50049915     -1076.0329777089 -2.36E+00
   150 Broy./Diag. 0.40E+00    9.3     1.81247847     -1074.7902996915  1.24E+00
   151 Broy./Diag. 0.40E+00    9.5     1.83075924     -1074.9503094653 -1.60E-01
   152 Broy./Diag. 0.40E+00    9.5     1.85071432     -1072.6699734310  2.28E+00
   153 Broy./Diag. 0.40E+00    9.4     1.53674288     -1075.7481720049 -3.08E+00
   154 Broy./Diag. 0.40E+00    9.3     1.80501422     -1072.0738440813  3.67E+00
   155 Broy./Diag. 0.40E+00    9.6     1.85117193     -1072.7829535861 -7.09E-01
   156 Broy./Diag. 0.40E+00    9.5     1.77723292     -1074.4187252043 -1.64E+00
   157 Broy./Diag. 0.40E+00    9.4     1.81567944     -1074.5844908200 -1.66E-01
   158 Broy./Diag. 0.40E+00    9.4     1.84610012     -1078.9012313758 -4.32E+00
   159 Broy./Diag. 0.40E+00    9.5     1.56525914     -1071.9562147488  6.95E+00
   160 Broy./Diag. 0.40E+00    9.5     1.68550917     -1072.2514443740 -2.95E-01
   161 Broy./Diag. 0.40E+00    9.6     1.77195447     -1076.5210002376 -4.27E+00
   162 Broy./Diag. 0.40E+00    9.5     1.79327905     -1070.7554754930  5.77E+00
   163 Broy./Diag. 0.40E+00    9.3     1.81301278     -1078.5373388820 -7.78E+00
   164 Broy./Diag. 0.40E+00    9.5     1.72376184     -1071.0611097443  7.48E+00
   165 Broy./Diag. 0.40E+00    9.3     1.75986955     -1081.3975838602 -1.03E+01
   166 Broy./Diag. 0.40E+00    9.5     1.81609262     -1074.0352602315  7.36E+00
   167 Broy./Diag. 0.40E+00    9.4     1.85476767     -1075.7329914317 -1.70E+00
   168 Broy./Diag. 0.40E+00    9.6     1.84334968     -1076.2604589679 -5.27E-01
   169 Broy./Diag. 0.40E+00    9.3     1.73338843     -1077.2044958075 -9.44E-01
   170 Broy./Diag. 0.40E+00    9.3     1.56876041     -1072.8001920927  4.40E+00
   171 Broy./Diag. 0.40E+00    9.4     1.78686384     -1072.7360469840  6.41E-02
   172 Broy./Diag. 0.40E+00    9.4     1.86050660     -1081.2007758583 -8.46E+00
   173 Broy./Diag. 0.40E+00    9.4     1.35675340     -1074.0671500805  7.13E+00
   174 Broy./Diag. 0.40E+00    9.4     1.73602365     -1073.4062700664  6.61E-01
   175 Broy./Diag. 0.40E+00    9.3     1.79790534     -1072.1839698871  1.22E+00
   176 Broy./Diag. 0.40E+00    9.5     1.85253774     -1074.2892744758 -2.11E+00
   177 Broy./Diag. 0.40E+00    9.8     1.69184682     -1074.2823596120  6.91E-03
   178 Broy./Diag. 0.40E+00    9.4     1.83207759     -1076.1857957693 -1.90E+00
   179 Broy./Diag. 0.40E+00    9.2     1.80144386     -1082.2118704604 -6.03E+00
   180 Broy./Diag. 0.40E+00    9.2     1.80198162     -1072.1034950763  1.01E+01
   181 Broy./Diag. 0.40E+00    9.3     1.81804569     -1078.4457041910 -6.34E+00
   182 Broy./Diag. 0.40E+00    9.5     1.68020253     -1074.9992895666  3.45E+00
   183 Broy./Diag. 0.40E+00    9.3     1.52235505     -1072.4636596458  2.54E+00
   184 Broy./Diag. 0.40E+00    9.5     1.76949113     -1076.0402237469 -3.58E+00
   185 Broy./Diag. 0.40E+00    9.5     1.89082834     -1072.0225958298  4.02E+00
   186 Broy./Diag. 0.40E+00    9.4     1.84645497     -1069.8926208543  2.13E+00
   187 Broy./Diag. 0.40E+00    9.3     1.80551954     -1077.8476676969 -7.96E+00
   188 Broy./Diag. 0.40E+00    9.0     1.80598253     -1076.2494313758  1.60E+00
   189 Broy./Diag. 0.40E+00    8.9     1.86567718     -1074.0912040435  2.16E+00
   190 Broy./Diag. 0.40E+00    9.5     1.29366515     -1076.9246863920 -2.83E+00
   191 Broy./Diag. 0.40E+00    9.2     1.21438207     -1072.1618036106  4.76E+00
   192 Broy./Diag. 0.40E+00    9.3     1.69532708     -1075.7862564431 -3.62E+00
   193 Broy./Diag. 0.40E+00    9.6     1.71923493     -1074.8047855262  9.81E-01
   194 Broy./Diag. 0.40E+00    9.6     1.80245993     -1075.3562222593 -5.51E-01
   195 Broy./Diag. 0.40E+00    9.4     1.84549916     -1074.8111925942  5.45E-01
   196 Broy./Diag. 0.40E+00    9.4     1.36556305     -1074.6620633016  1.49E-01
   197 Broy./Diag. 0.40E+00    9.5     1.45615980     -1077.0410908661 -2.38E+00
   198 Broy./Diag. 0.40E+00    9.9     1.80781711     -1073.4145596573  3.63E+00
   199 Broy./Diag. 0.40E+00    9.2     1.73180443     -1075.9155758198 -2.50E+00
   200 Broy./Diag. 0.40E+00    9.0     1.87174285     -1075.4851815306  4.30E-01
   201 Broy./Diag. 0.40E+00    8.8     1.61584754     -1071.9709854709  3.51E+00
   202 Broy./Diag. 0.40E+00    8.8     1.80482081     -1070.7814416809  1.19E+00
   203 Broy./Diag. 0.40E+00    9.4     1.81083309     -1077.5898659538 -6.81E+00
   204 Broy./Diag. 0.40E+00    9.5     1.79420497     -1075.7694838293  1.82E+00
   205 Broy./Diag. 0.40E+00    9.2     1.84405677     -1075.8824796650 -1.13E-01
   206 Broy./Diag. 0.40E+00    9.4     1.68819542     -1075.2903622513  5.92E-01
   207 Broy./Diag. 0.40E+00    9.5     1.68748036     -1073.8925126819  1.40E+00
   208 Broy./Diag. 0.40E+00    9.4     1.80669461     -1072.3015074963  1.59E+00
   209 Broy./Diag. 0.40E+00    9.6     1.83794811     -1074.5390784899 -2.24E+00
   210 Broy./Diag. 0.40E+00    9.2     1.82094932     -1077.2035561940 -2.66E+00
   211 Broy./Diag. 0.40E+00    9.1     1.72675097     -1070.8927810946  6.31E+00
   212 Broy./Diag. 0.40E+00    9.5     1.76553865     -1078.2867508837 -7.39E+00
   213 Broy./Diag. 0.40E+00    9.2     1.77129293     -1076.7201657893  1.57E+00
   214 Broy./Diag. 0.40E+00    9.2     1.86366662     -1078.3694950129 -1.65E+00
   215 Broy./Diag. 0.40E+00    9.4     1.82093342     -1069.8328120938  8.54E+00
   216 Broy./Diag. 0.40E+00    9.4     1.83673176     -1077.4674367985 -7.63E+00
   217 Broy./Diag. 0.40E+00    9.3     1.81093501     -1075.4096438056  2.06E+00
   218 Broy./Diag. 0.40E+00    9.4     1.85872592     -1076.6647503843 -1.26E+00
   219 Broy./Diag. 0.40E+00    9.3     1.85906849     -1068.3376138974  8.33E+00
   220 Broy./Diag. 0.40E+00    9.2     1.80579026     -1082.2647559079 -1.39E+01
   221 Broy./Diag. 0.40E+00    9.5     1.78641502     -1079.0595945273  3.21E+00
   222 Broy./Diag. 0.40E+00    9.4     1.82479146     -1077.6103293997  1.45E+00
   223 Broy./Diag. 0.40E+00    9.4     1.83529023     -1076.0056976317  1.60E+00
   224 Broy./Diag. 0.40E+00    9.3     1.52325362     -1072.7896030712  3.22E+00
   225 Broy./Diag. 0.40E+00    9.3     1.75858757     -1070.1173609555  2.67E+00
   226 Broy./Diag. 0.40E+00    9.6     1.79446443     -1070.1472643388 -2.99E-02
   227 Broy./Diag. 0.40E+00    9.8     1.81308394     -1073.0856099577 -2.94E+00
   228 Broy./Diag. 0.40E+00    9.4     1.49184315     -1073.6811505067 -5.96E-01
   229 Broy./Diag. 0.40E+00    9.5     1.80622905     -1079.1431079969 -5.46E+00
   230 Broy./Diag. 0.40E+00    9.4     1.84942205     -1077.4730724259  1.67E+00
   231 Broy./Diag. 0.40E+00    9.5     1.78949701     -1074.5513341284  2.92E+00
   232 Broy./Diag. 0.40E+00    9.2     1.64077099     -1073.9974715703  5.54E-01
   233 Broy./Diag. 0.40E+00    9.5     1.69320980     -1071.9327874372  2.06E+00
   234 Broy./Diag. 0.40E+00    9.5     1.77713359     -1073.9271361909 -1.99E+00
   235 Broy./Diag. 0.40E+00    9.3     1.77338159     -1077.1864243968 -3.26E+00
   236 Broy./Diag. 0.40E+00    9.2     1.83063718     -1072.4497235914  4.74E+00
   237 Broy./Diag. 0.40E+00    9.5     1.85123930     -1080.8267829891 -8.38E+00
   238 Broy./Diag. 0.40E+00    9.5     1.78978366     -1073.8358265276  6.99E+00
   239 Broy./Diag. 0.40E+00    9.8     1.89283662     -1076.7701323565 -2.93E+00
   240 Broy./Diag. 0.40E+00    9.4     1.84717161     -1074.5647999761  2.21E+00
   241 Broy./Diag. 0.40E+00    9.3     1.77498207     -1074.8896234946 -3.25E-01
   242 Broy./Diag. 0.40E+00    9.3     1.78903969     -1071.2750463962  3.61E+00
   243 Broy./Diag. 0.40E+00    9.2     1.50763729     -1077.6717212142 -6.40E+00
   244 Broy./Diag. 0.40E+00    9.4     1.84067295     -1074.6916233991  2.98E+00
   245 Broy./Diag. 0.40E+00    9.4     1.77215862     -1073.4868430222  1.20E+00
   246 Broy./Diag. 0.40E+00    9.5     1.72467527     -1076.9646456173 -3.48E+00
   247 Broy./Diag. 0.40E+00    9.3     1.76707015     -1074.3067041726  2.66E+00
   248 Broy./Diag. 0.40E+00    9.3     1.80712971     -1074.1889436475  1.18E-01
   249 Broy./Diag. 0.40E+00    9.5     1.85816761     -1076.1355578943 -1.95E+00
   250 Broy./Diag. 0.40E+00    9.5     1.82763066     -1077.0096447612 -8.74E-01
   251 Broy./Diag. 0.40E+00    9.6     1.83144090     -1072.1700466765  4.84E+00
   252 Broy./Diag. 0.40E+00    9.3     1.80286001     -1073.5816431174 -1.41E+00
   253 Broy./Diag. 0.40E+00    9.2     1.85368286     -1076.2291085122 -2.65E+00
   254 Broy./Diag. 0.40E+00    9.2     1.78225840     -1073.9518683991  2.28E+00
   255 Broy./Diag. 0.40E+00    9.4     1.83597846     -1075.7543455672 -1.80E+00
   256 Broy./Diag. 0.40E+00    9.2     1.80881976     -1071.4382993597  4.32E+00
   257 Broy./Diag. 0.40E+00    8.8     1.77217774     -1076.4042629718 -4.97E+00
   258 Broy./Diag. 0.40E+00    8.9     1.80440423     -1075.3780747449  1.03E+00
   259 Broy./Diag. 0.40E+00    8.7     1.79748554     -1079.4566767715 -4.08E+00
   260 Broy./Diag. 0.40E+00    9.3     1.70203983     -1071.9970474370  7.46E+00
   261 Broy./Diag. 0.40E+00    9.4     1.27374277     -1075.3830507131 -3.39E+00
   262 Broy./Diag. 0.40E+00    9.5     1.79834703     -1075.7524754600 -3.69E-01
   263 Broy./Diag. 0.40E+00    9.6     1.86862359     -1074.5832805283  1.17E+00
   264 Broy./Diag. 0.40E+00    9.4     1.50767295     -1075.9728737429 -1.39E+00
   265 Broy./Diag. 0.40E+00    9.4     1.71194613     -1070.2523592089  5.72E+00
   266 Broy./Diag. 0.40E+00    9.2     1.78676480     -1082.1880446434 -1.19E+01
   267 Broy./Diag. 0.40E+00    9.2     1.76550929     -1077.9420377507  4.25E+00
   268 Broy./Diag. 0.40E+00    9.5     1.81271268     -1075.0129210525  2.93E+00
   269 Broy./Diag. 0.40E+00    9.2     1.87855143     -1070.6789175087  4.33E+00
   270 Broy./Diag. 0.40E+00    9.3     1.83414733     -1072.3383794104 -1.66E+00
   271 Broy./Diag. 0.40E+00    9.4     1.70842778     -1076.6001289137 -4.26E+00
   272 Broy./Diag. 0.40E+00    9.6     1.80437511     -1070.9476665855  5.65E+00
   273 Broy./Diag. 0.40E+00    9.4     1.88572411     -1076.1165200961 -5.17E+00
   274 Broy./Diag. 0.40E+00    9.3     1.52520753     -1077.3775733969 -1.26E+00
   275 Broy./Diag. 0.40E+00    9.2     1.78798257     -1068.0504151794  9.33E+00
   276 Broy./Diag. 0.40E+00    9.2     1.83329195     -1082.0425976099 -1.40E+01
   277 Broy./Diag. 0.40E+00    9.0     1.67638437     -1082.0359347568  6.66E-03
   278 Broy./Diag. 0.40E+00    8.7     1.79739760     -1073.9395919721  8.10E+00
   279 Broy./Diag. 0.40E+00    9.0     1.39628314     -1073.2199194695  7.20E-01
   280 Broy./Diag. 0.40E+00    9.5     1.68817878     -1072.2434461100  9.76E-01
   281 Broy./Diag. 0.40E+00    9.4     1.83552565     -1079.3034330835 -7.06E+00
   282 Broy./Diag. 0.40E+00    9.5     1.80055917     -1076.1925007962  3.11E+00
   283 Broy./Diag. 0.40E+00    9.4     1.77613221     -1073.0138119036  3.18E+00
   284 Broy./Diag. 0.40E+00    9.4     1.79166540     -1076.4784384163 -3.46E+00
   285 Broy./Diag. 0.40E+00    9.6     1.85461378     -1074.9486537223  1.53E+00
   286 Broy./Diag. 0.40E+00    9.3     1.42288032     -1074.7034888976  2.45E-01
   287 Broy./Diag. 0.40E+00    9.5     1.81560197     -1073.9346828419  7.69E-01
   288 Broy./Diag. 0.40E+00    9.2     1.82379794     -1080.6923822449 -6.76E+00
   289 Broy./Diag. 0.40E+00    9.3     1.44389339     -1073.2876724202  7.40E+00
   290 Broy./Diag. 0.40E+00    9.7     1.66794709     -1078.2377699221 -4.95E+00
   291 Broy./Diag. 0.40E+00    9.4     1.73717356     -1071.9300647359  6.31E+00
   292 Broy./Diag. 0.40E+00    9.5     1.82169250     -1067.9558699688  3.97E+00
   293 Broy./Diag. 0.40E+00    9.5     1.83971644     -1072.4370229826 -4.48E+00
   294 Broy./Diag. 0.40E+00    9.5     1.83927590     -1075.2559428618 -2.82E+00
   295 Broy./Diag. 0.40E+00    9.3     1.66493443     -1078.4692612199 -3.21E+00
   296 Broy./Diag. 0.40E+00    9.4     1.80195631     -1078.0350047366  4.34E-01
   297 Broy./Diag. 0.40E+00    9.4     1.81457876     -1072.8907143923  5.14E+00
   298 Broy./Diag. 0.40E+00    9.4     1.81560613     -1070.5387649686  2.35E+00
   299 Broy./Diag. 0.40E+00    9.4     1.83298010     -1079.9620881742 -9.42E+00
   300 Broy./Diag. 0.40E+00    9.3     1.39999315     -1077.0511339925  2.91E+00

  Leaving inner SCF loop after reaching   300 steps.


  Electronic density on regular grids:       -512.0004089808       -0.0004089808
  Core density on regular grids:              512.0000255857        0.0000255857
  Total charge density on r-space grids:       -0.0003833950
  Total charge density g-space grids:          -0.0003833950

  Overlap energy of the core charge distribution:               0.00000000000000
  Self energy of the core charge distribution:              -2838.21791979120962
  Core Hamiltonian energy:                                    758.05568450452790
  Hartree energy:                                            1240.93328880783997
  Exchange-correlation energy:                               -237.82218751362146

  Total energy:                                             -1077.05113399246306

 *** WARNING in qs_scf.F:542 :: SCF run NOT converged ***


 ENERGY| Total FORCE_EVAL ( QS ) energy (a.u.):            -1069.428740125096283


 ATOMIC FORCES in [a.u.]

 # Atom   Kind   Element          X              Y              Z
      1      1      O           0.00722909    -0.08108695     0.02684756
      2      2      H           0.00638762    -0.02188853    -0.08223276
      3      2      H           0.04314917     0.02237029     0.04320405
      4      1      O           0.07099727     0.07880556    -0.05378934
      5      2      H          -0.05359356    -0.00709088     0.00297674
      6      2      H           0.02925444    -0.09973955    -0.00417460
      7      1      O          -0.03985134    -0.00445354     0.00022739
      8      2      H           0.01325729     0.04732538     0.04786987
      9      2      H          -0.00863843     0.00734255    -0.07804546
     10      1      O          -0.10713602    -0.06773602    -0.01905670
     11      2      H           0.07776162     0.03332295     0.02194555
     12      2      H           0.03045121     0.02305095    -0.04039838
     13      1      O          -0.01316214     0.13261799    -0.07770664
     14      2      H          -0.04662402     0.01927347     0.08689701
     15      2      H           0.02256345    -0.12342629     0.03372839
     16      1      O           0.05225335    -0.01363058     0.04824604
     17      2      H           0.02243002     0.07429612    -0.04696713
     18      2      H          -0.08329801    -0.01343959    -0.01236321
     19      1      O          -0.01046650    -0.05130037     0.02698923
     20      2      H          -0.01032404    -0.01112559    -0.00906239
     21      2      H          -0.03149519    -0.00332758    -0.00580698
     22      1      O          -0.07290195    -0.07948177    -0.00010973
     23      2      H           0.02594092    -0.00941049     0.04142503
     24      2      H           0.06302182     0.01803143    -0.03218485
     25      1      O           0.13187325     0.00856524    -0.07332827
     26      2      H          -0.02473802    -0.06195240    -0.01101994
     27      2      H          -0.05836240     0.00966484     0.01735750
     28      1      O          -0.02253876    -0.06373146     0.01064900
     29      2      H           0.02003502    -0.02006908    -0.04092230
     30      2      H           0.05919921     0.00771072     0.02394454
     31      1      O          -0.04025363    -0.08923859    -0.04971527
     32      2      H          -0.04002246     0.04849212    -0.00582796
     33      2      H           0.03975073     0.05533022    -0.00156606
     34      1      O           0.08419006    -0.02397846    -0.03292915
     35      2      H          -0.07627178    -0.01817682    -0.02473867
     36      2      H           0.05618131     0.02250760     0.10187430
     37      1      O           0.04149165    -0.03244331    -0.01276438
     38      2      H          -0.03083450    -0.08107082     0.06611569
     39      2      H          -0.05086936     0.09180352     0.00457002
     40      1      O          -0.01712877     0.10738267    -0.11515476
     41      2      H          -0.00996044    -0.09733230     0.02136386
     42      2      H           0.07037636    -0.00049611     0.03422760
     43      1      O          -0.01242930    -0.04466567    -0.03811039
     44      2      H          -0.01819160     0.04076321    -0.00532074
     45      2      H           0.04743899    -0.01355717     0.04719104
     46      1      O          -0.03205778    -0.02160533     0.02967964
     47      2      H           0.02985924     0.01843860    -0.01755572
     48      2      H          -0.01286524     0.01533284    -0.02989088
     49      1      O          -0.05874773     0.01500838    -0.07105164
     50      2      H           0.03882985     0.03724951     0.01941603
     51      2      H           0.00978449    -0.04495819     0.01248510
     52      1      O           0.01556819     0.06246568    -0.07778664
     53      2      H           0.00107976     0.01019123    -0.00328728
     54      2      H          -0.00232876    -0.04144665     0.04556260
     55      1      O          -0.04962807    -0.03950935     0.06092111
     56      2      H          -0.01502245     0.04770795    -0.06759922
     57      2      H           0.09951786     0.03508205     0.06797305
     58      1      O           0.04535882     0.04422165     0.04070974
     59      2      H          -0.01764574    -0.05585259    -0.07468273
     60      2      H          -0.02512953    -0.02352137     0.03855327
     61      1      O          -0.06200666    -0.01064306     0.04234085
     62      2      H           0.04784385    -0.06565098    -0.05178249
     63      2      H           0.02770751     0.04145633     0.05523769
     64      1      O           0.03421985    -0.08811559    -0.01149419
     65      2      H           0.01713836     0.00700278    -0.03260766
     66      2      H          -0.04863319     0.04676322     0.02089388
     67      1      O           0.01635631    -0.06051527    -0.09049656
     68      2      H           0.06738745    -0.00148309     0.06980542
     69      2      H          -0.06052823     0.01343635     0.04862407
     70      1      O          -0.02158569    -0.11149514    -0.04170152
     71      2      H          -0.07014396     0.05165742     0.02142718
     72      2      H           0.00542532     0.04517592    -0.05050994
     73      1      O           0.12379489     0.01528024     0.03656548
     74      2      H          -0.03118348    -0.02489810    -0.07977126
     75      2      H          -0.05424641    -0.01293402     0.00902037
     76      1      O          -0.05732919    -0.04010680     0.03410968
     77      2      H          -0.01826903     0.00739816    -0.04044219
     78      2      H           0.02415207     0.04652812     0.01897092
     79      1      O           0.01117110     0.05372585    -0.05923205
     80      2      H           0.02318488    -0.01954584    -0.03024076
     81      2      H           0.00330351     0.01531264    -0.00866880
     82      1      O           0.04297895     0.09250550     0.02993103
     83      2      H          -0.03907062    -0.03722595     0.02795081
     84      2      H           0.00148658    -0.00380108    -0.08644154
     85      1      O          -0.06664460    -0.00250957    -0.06645316
     86      2      H           0.02302616     0.08152188    -0.00164843
     87      2      H           0.01832724    -0.03415082     0.02502870
     88      1      O           0.05659687    -0.11492164    -0.08354706
     89      2      H          -0.01713182     0.02593434     0.05509072
     90      2      H          -0.02514098     0.03022262    -0.03094682
     91      1      O          -0.02478960     0.08533021    -0.01800536
     92      2      H           0.03633406    -0.06303502     0.00342883
     93      2      H           0.00912603     0.05381759     0.06202974
     94      1      O          -0.09227653     0.00449719     0.00228705
     95      2      H           0.03639511    -0.01393467     0.05371446
     96      2      H           0.03795403     0.03626687    -0.01263379
     97      1      O          -0.08173817    -0.01974676     0.01712350
     98      2      H           0.04109581     0.06051113    -0.02033285
     99      2      H           0.00961140    -0.01525544     0.05611605
    100      1      O           0.05310717     0.11801296    -0.08723208
    101      2      H          -0.01814363    -0.11480835     0.01463452
    102      2      H          -0.02696304     0.02390680     0.13897815
    103      1      O          -0.01302019    -0.06245730    -0.02208060
    104      2      H          -0.04729842     0.00838595     0.07408114
    105      2      H           0.01369786     0.07247812    -0.12416356
    106      1      O          -0.08396895    -0.10260386     0.00097596
    107      2      H           0.08760196    -0.03048125     0.01210648
    108      2      H          -0.04720815     0.05028444    -0.00343391
    109      1      O          -0.17498616     0.01263990     0.02072899
    110      2      H           0.10458247     0.04102995    -0.08494162
    111      2      H          -0.06621200    -0.05185354    -0.02568325
    112      1      O           0.09798728     0.02663223    -0.05181948
    113      2      H          -0.04914393    -0.04012927     0.01828872
    114      2      H           0.01664400     0.02805154     0.02109266
    115      1      O           0.03304269     0.09245886     0.02703624
    116      2      H           0.01156551    -0.06419094    -0.03672735
    117      2      H          -0.02625311     0.00233410     0.03237666
    118      1      O           0.10208021    -0.05367642    -0.00676900
    119      2      H          -0.01288866    -0.02336091     0.05979066
    120      2      H          -0.03182905    -0.02540778    -0.04240846
    121      1      O          -0.09169824    -0.03802012    -0.02091364
    122      2      H          -0.03701990     0.04576370    -0.08223611
    123      2      H           0.05465270    -0.02406344     0.04461294
    124      1      O          -0.17413869    -0.21350021    -0.11628015
    125      2      H           0.17122696     0.15863880     0.11353469
    126      2      H           0.13741700    -0.02202193     0.04540605
    127      1      O          -0.13040887    -0.04461088     0.03166300
    128      2      H           0.03969570    -0.04739191     0.01582105
    129      2      H           0.05533761     0.05658486     0.01516788
    130      1      O          -0.04442675    -0.07025354    -0.02305838
    131      2      H           0.08642795     0.00455688     0.08056557
    132      2      H          -0.04293988     0.04210681    -0.02543859
    133      1      O           0.11700405    -0.04361048     0.00830857
    134      2      H           0.00592147     0.02887912    -0.05882501
    135      2      H          -0.07015348    -0.02909635    -0.04103082
    136      1      O           0.03596498    -0.00947374    -0.01858872
    137      2      H          -0.04654834    -0.03613994     0.06276635
    138      2      H          -0.02602015     0.05714106    -0.00184699
    139      1      O           0.08180703     0.12166162     0.04105085
    140      2      H           0.00843595    -0.08237767     0.02544851
    141      2      H          -0.05445008    -0.01772161    -0.04312819
    142      1      O           0.08237534    -0.06437765    -0.09175520
    143      2      H          -0.04388838    -0.02400664     0.05602198
    144      2      H           0.01555490     0.05123128    -0.00025280
    145      1      O           0.03937330     0.02836465    -0.02067345
    146      2      H           0.02275630    -0.04756295    -0.03655477
    147      2      H          -0.08610530     0.00164476    -0.00963600
    148      1      O           0.06015197    -0.03575689    -0.01017400
    149      2      H           0.01986628     0.05128124     0.02358179
    150      2      H          -0.07777477     0.00681031     0.06127881
    151      1      O          -0.00205388     0.00203826    -0.00604681
    152      2      H           0.03420100     0.00859489     0.06146992
    153      2      H           0.02193557     0.03640476    -0.05011366
    154      1      O          -0.03764568    -0.02664840    -0.04115593
    155      2      H          -0.04290833     0.00817975    -0.03175629
    156      2      H           0.07430473    -0.01036865     0.01537506
    157      1      O          -0.01560408    -0.04637136    -0.03699840
    158      2      H           0.04716637    -0.01781045     0.01180617
    159      2      H          -0.00511140     0.03433002    -0.00823919
    160      1      O          -0.02657149    -0.07176023     0.11826072
    161      2      H          -0.03869645     0.07806481     0.00474774
    162      2      H           0.02578825    -0.02557512    -0.05030309
    163      1      O           0.03754410     0.13252302    -0.01281869
    164      2      H           0.01799997    -0.00008281     0.09412521
    165      2      H          -0.00725360    -0.08768636    -0.06119422
    166      1      O          -0.01728459    -0.02942673     0.03903414
    167      2      H           0.06299097    -0.04181200    -0.02174366
    168      2      H          -0.01901187     0.00389980    -0.06094051
    169      1      O          -0.06235321    -0.03494720     0.07564995
    170      2      H          -0.03868328    -0.04944297    -0.07334184
    171      2      H           0.01158300     0.01485863    -0.03576538
    172      1      O          -0.00092646     0.09768282    -0.13070745
    173      2      H           0.06144916    -0.04342603     0.03196694
    174      2      H          -0.04661860     0.00880422     0.07677811
    175      1      O           0.02694651     0.02236047     0.15668157
    176      2      H          -0.04593570     0.06643562    -0.03456992
    177      2      H          -0.03163474    -0.08407912    -0.03471719
    178      1      O          -0.01862754    -0.00792783     0.00701098
    179      2      H          -0.00474880     0.07954784    -0.00777316
    180      2      H           0.01526788    -0.08101210     0.06860727
    181      1      O           0.04347602    -0.05421131    -0.00095026
    182      2      H           0.00301913     0.02683288     0.01238679
    183      2      H          -0.01200042     0.00611493    -0.03280225
    184      1      O          -0.06950976    -0.00338065    -0.02966697
    185      2      H           0.02055882    -0.04384623     0.02253474
    186      2      H           0.08183130     0.04013999    -0.00179153
    187      1      O           0.07734314    -0.02871285    -0.09213208
    188      2      H          -0.04351107     0.09300706     0.03313017
    189      2      H          -0.06183587    -0.07308937     0.02255695
    190      1      O          -0.02234884    -0.02629791     0.07943331
    191      2      H           0.03136405     0.02164959    -0.01746809
    192      2      H          -0.06209921    -0.01316088    -0.02234646
 SUM OF ATOMIC FORCES           0.09919937    -0.55969594    -0.32358038     0.65406752

 -------------------------------------------------------------------------------
 -                                                                             -
 -                                DBCSR STATISTICS                             -
 -                                                                             -
 -------------------------------------------------------------------------------
 COUNTER                                    TOTAL       BLAS       SMM       ACC
 flops     5 x     5 x   256           5174310400       0.0%    100.0%      0.0%
 flops    13 x     5 x   256           6330920960       0.0%    100.0%      0.0%
 flops     5 x    13 x   256           6471162880       0.0%    100.0%      0.0%
 flops    13 x    13 x   256           8881320448       0.0%    100.0%      0.0%
 flops inhomo. stacks                           0       0.0%      0.0%      0.0%
 flops total                        26.857715E+09       0.0%    100.0%      0.0%
 flops max/rank                     26.857715E+09       0.0%    100.0%      0.0%
 matmuls inhomo. stacks                         0       0.0%      0.0%      0.0%
 matmuls total                             891562       0.0%    100.0%      0.0%
 number of processed stacks                 42140       0.0%    100.0%      0.0%
 average stack size                                     0.0      21.2       0.0
 marketing flops                   333.927416E+09
 -------------------------------------------------------------------------------
 # multiplications                            301
 max memory usage/rank               4.993757E+09
 # max total images/rank                        1
 # max 3D layers                                1
 # MPI messages exchanged                       0
 MPI messages size (bytes):
  total size                         0.000000E+00
  min size                           0.000000E+00
  max size                           0.000000E+00
  average size                       0.000000E+00
 MPI breakdown and total messages size (bytes):
             size <=      128                   0                        0
       128 < size <=     8192                   0                        0
      8192 < size <=    32768                   0                        0
     32768 < size <=   131072                   0                        0
    131072 < size <=  4194304                   0                        0
   4194304 < size <= 16777216                   0                        0
  16777216 < size                               0                        0
 -------------------------------------------------------------------------------

 MEMORY| Estimated peak process memory [MiB]                                4757

 -------------------------------------------------------------------------------
 -                                                                             -
 -                           R E F E R E N C E S                               -
 -                                                                             -
 -------------------------------------------------------------------------------
 
 CP2K version 7.1, the CP2K developers group (2019).
 CP2K is freely available from https://www.cp2k.org/ .

 Schuett, Ole; Messmer, Peter; Hutter, Juerg; VandeVondele, Joost. 
 Electronic Structure Calculations on Graphics Processing Units, John
 Wiley & Sons, Ltd, 173-190 (2016). 
 GPU-Accelerated Sparse Matrix-Matrix Multiplication for
 Linear Scaling Density Functional Theory.
 https://dx.doi.org/10.1002/9781118670712.ch8

 Borstnik, U; VandeVondele, J; Weber, V; Hutter, J. 
 PARALLEL COMPUTING, 40 (5-6), 47-58 (2014). 
 Sparse matrix multiplication: The distributed block-compressed sparse
 row library.
 https://dx.doi.org/10.1016/j.parco.2014.03.012

 Hutter, J; Iannuzzi, M; Schiffmann, F; VandeVondele, J. 
 WIREs Comput Mol Sci., 4 (1), 15-25 (2014). 
 CP2K: atomistic simulations of condensed matter systems.
 https://dx.doi.org/10.1002/wcms.1159

 Krack, M. 
 THEORETICAL CHEMISTRY ACCOUNTS, 114 (1-3), 145-152 (2005). 
 Pseudopotentials for H to Kr optimized for gradient-corrected
 exchange-correlation functionals.
 https://dx.doi.org/10.1007/s00214-005-0655-y

 VandeVondele, J; Krack, M; Mohamed, F; Parrinello, M; Chassaing, T;
 Hutter, J. COMPUTER PHYSICS COMMUNICATIONS, 167 (2), 103-128 (2005). 
 QUICKSTEP: Fast and accurate density functional calculations using a
 mixed Gaussian and plane waves approach.
 https://dx.doi.org/10.1016/j.cpc.2004.12.014

 Frigo, M; Johnson, SG. 
 PROCEEDINGS OF THE IEEE, 93 (2), 216-231 (2005). 
 The design and implementation of FFTW3.
 https://dx.doi.org/10.1109/JPROC.2004.840301

 Hartwigsen, C; Goedecker, S; Hutter, J. 
 PHYSICAL REVIEW B, 58 (7), 3641-3662 (1998). 
 Relativistic separable dual-space Gaussian pseudopotentials from H to Rn.
 https://dx.doi.org/10.1103/PhysRevB.58.3641

 Lippert, G; Hutter, J; Parrinello, M. 
 MOLECULAR PHYSICS, 92 (3), 477-487 (1997). 
 A hybrid Gaussian and plane wave density functional scheme.
 https://dx.doi.org/10.1080/002689797170220

 Goedecker, S; Teter, M; Hutter, J. 
 PHYSICAL REVIEW B, 54 (3), 1703-1710 (1996). 
 Separable dual-space Gaussian pseudopotentials.
 https://dx.doi.org/10.1103/PhysRevB.54.1703


 -------------------------------------------------------------------------------
 -                                                                             -
 -                                T I M I N G                                  -
 -                                                                             -
 -------------------------------------------------------------------------------
 SUBROUTINE                       CALLS  ASD         SELF TIME        TOTAL TIME
                                MAXIMUM       AVERAGE  MAXIMUM  AVERAGE  MAXIMUM
 CP2K                                 1  1.0    0.179    0.179 2802.184 2802.184
 qs_forces                            1  2.0    0.000    0.000 2800.099 2800.099
 qs_energies                          1  3.0    0.000    0.000 2799.393 2799.393
 scf_env_do_scf                       1  4.0    0.001    0.001 2797.013 2797.013
 scf_env_do_scf_inner_loop          300  5.0    0.066    0.066 2797.012 2797.012
 qs_scf_new_mos                     300  6.0    0.011    0.011 1991.141 1991.141
 eigensolver                        300  7.0    0.053    0.053 1955.628 1955.628
 cp_fm_syevd                        300  8.0 1273.216 1273.216 1274.970 1274.970
 cp_fm_cholesky_restore             900  8.0  679.548  679.548  679.548  679.548
 gspace_mixing                      299  6.0    6.750    6.750  454.978  454.978
 broyden_mixing                     299  7.0  412.502  412.502  412.504  412.504
 rebuild_ks_matrix                  301  7.0    0.001    0.001  183.051  183.051
 qs_ks_build_kohn_sham_matrix       301  8.0    0.082    0.082  183.050  183.050
 qs_ks_update_qs_env                300  6.0    0.003    0.003  182.836  182.836
 pw_transfer                       3912  9.9    0.349    0.349  171.446  171.446
 qs_rho_update_rho                  301  6.0    0.003    0.003  166.901  166.901
 calculate_rho_elec                 301  7.0   78.587   78.587  166.898  166.898
 fft_wrap_pw1pw2                   3310 10.9    0.043    0.043  166.524  166.524
 fft_wrap_pw1pw2_70                1504 11.2   18.585   18.585  153.997  153.997
 density_rs2pw                      301  8.0    0.026    0.026   85.424   85.424
 fft3d_s                           3311 12.9   73.984   73.984   74.008   74.008
 pw_scatter_s                      1804 13.2   59.048   59.048   59.048   59.048
 pw_poisson_solve                   301  9.0   54.254   54.254   58.937   58.937
 -------------------------------------------------------------------------------

 The number of warnings for this run is : 1
 
 -------------------------------------------------------------------------------
  **** **** ******  **  PROGRAM ENDED AT                 2021-01-12 16:25:01.180
 ***** ** ***  *** **   PROGRAM RAN ON                                   gnode23
 **    ****   ******    PROGRAM RAN BY                               mayank.modi
 ***** **    ** ** **   PROGRAM PROCESS ID                                 35930
  **** **  *******  **  PROGRAM STOPPED IN /home/mayank.modi/ab-initio-thermodyn
                                           amics-of-water/mayank/cp2k_energy_cal
                                           culations
