 DBCSR| CPU Multiplication driver                                           XSMM
 DBCSR| Multrec recursion limit                                              512
 DBCSR| Multiplication stack size                                           1000
 DBCSR| Maximum elements for images                                    UNLIMITED
 DBCSR| Multiplicative factor virtual images                                   1
 DBCSR| Use multiplication densification                                       T
 DBCSR| Multiplication size stacks                                             3


  **** **** ******  **  PROGRAM STARTED AT               2021-01-13 18:00:55.208
 ***** ** ***  *** **   PROGRAM STARTED ON                               gnode23
 **    ****   ******    PROGRAM STARTED BY                           mayank.modi
 ***** **    ** ** **   PROGRAM PROCESS ID                                 23950
  **** **  *******  **  PROGRAM STARTED IN /home/mayank.modi/ab-initio-thermodyn
                                           amics-of-water/mayank/cp2k_energy_cal
                                           culations

 CP2K| version string:                                          CP2K version 7.1
 CP2K| source code revision number:                                  git:e635599
 CP2K| cp2kflags: omp libint fftw3 libxc xsmm spglib                            
 CP2K| is freely available from                            https://www.cp2k.org/
 CP2K| Program compiled at                          Mon Dec 23 19:23:12 CET 2019
 CP2K| Program compiled on                                                pc9404
 CP2K| Program compiled for                                Linux-x86-64-gfortran
 CP2K| Data directory path                                        /opt/cp2k/data
 CP2K| Input file name                   input_training_correct_cell/input468.in

 GLOBAL| Force Environment number                                              1
 GLOBAL| Basis set file name                                           BASIS_SET
 GLOBAL| Potential file name                                      GTH_POTENTIALS
 GLOBAL| MM Potential file name                                     MM_POTENTIAL
 GLOBAL| Coordinate file name                                      __STD_INPUT__
 GLOBAL| Method name                                                        CP2K
 GLOBAL| Project name                                                   H2O_bulk
 GLOBAL| Preferred FFT library                                             FFTW3
 GLOBAL| Preferred diagonalization lib.                                       SL
 GLOBAL| Run type                                                   ENERGY_FORCE
 GLOBAL| All-to-all communication in single precision                          F
 GLOBAL| FFTs using library dependent lengths                                  F
 GLOBAL| Global print level                                                  LOW
 GLOBAL| MPI I/O enabled                                                       T
 GLOBAL| Total number of message passing processes                             1
 GLOBAL| Number of threads for this process                                   36
 GLOBAL| This output is from process                                           0
 GLOBAL| CPU model name                Intel(R) Xeon(R) CPU E5-2640 v4 @ 2.40GHz
 GLOBAL| CPUID                                                              1002
 GLOBAL| Compiled for CPUID                                                    0

 MEMORY| system memory details [Kb]
 MEMORY|                        rank 0           min           max       average
 MEMORY| MemTotal            131897972     131897972     131897972     131897972
 MEMORY| MemFree             125598560     125598560     125598560     125598560
 MEMORY| Buffers               1902080       1902080       1902080       1902080
 MEMORY| Cached                1401868       1401868       1401868       1401868
 MEMORY| Slab                  2522896       2522896       2522896       2522896
 MEMORY| SReclaimable          1494552       1494552       1494552       1494552
 MEMORY| MemLikelyFree       130397060     130397060     130397060     130397060


 GENERATE| WARNING:: No connections detected for Hydrogen - Atom Nr:        77 !
 GENERATE| WARNING:: No connections detected for Hydrogen - Atom Nr:       152 !
 GENERATE|  Preliminary Number of Bonds generated:                             0
 GENERATE|  Achieved consistency in connectivity generation.

 *******************************************************************************
 *******************************************************************************
 **                                                                           **
 **     #####                         ##              ##                      **
 **    ##   ##            ##          ##              ##                      **
 **   ##     ##                       ##            ######                    **
 **   ##     ##  ##   ##  ##   #####  ##  ##   ####   ##    #####    #####    **
 **   ##     ##  ##   ##  ##  ##      ## ##   ##      ##   ##   ##  ##   ##   **
 **   ##  ## ##  ##   ##  ##  ##      ####     ###    ##   ######   ######    **
 **    ##  ###   ##   ##  ##  ##      ## ##      ##   ##   ##       ##        **
 **     #######   #####   ##   #####  ##  ##  ####    ##    #####   ##        **
 **           ##                                                    ##        **
 **                                                                           **
 **                                                ... make the atoms dance   **
 **                                                                           **
 **            Copyright (C) by CP2K developers group (2000 - 2019)           **
 **                                                                           **
 *******************************************************************************


 TOTAL NUMBERS AND MAXIMUM NUMBERS

  Total number of            - Atomic kinds:                                   2
                             - Atoms:                                        192
                             - Shell sets:                                   384
                             - Shells:                                       704
                             - Primitive Cartesian functions:                960
                             - Cartesian basis functions:                   1536
                             - Spherical basis functions:                   1472

  Maximum angular momentum of- Orbital basis functions:                        2
                             - Local part of the GTH pseudopotential:          2
                             - Non-local part of the GTH pseudopotential:      0


 SCF PARAMETERS         Density guess:                                    ATOMIC
                        --------------------------------------------------------
                        max_scf:                                             300
                        max_scf_history:                                       0
                        max_diis:                                              4
                        --------------------------------------------------------
                        eps_scf:                                        1.00E-07
                        eps_scf_history:                                0.00E+00
                        eps_diis:                                       1.00E-01
                        eps_eigval:                                     1.00E-05
                        --------------------------------------------------------
                        level_shift [a.u.]:                                 0.00
                        --------------------------------------------------------
                        Mixing method:                            BROYDEN_MIXING
                                                charge density mixing in g-space
                        --------------------------------------------------------
                        No outer SCF

 Number of electrons:                                                        512
 Number of occupied orbitals:                                                256
 Number of molecular orbitals:                                               256

 Number of orbital functions:                                               1472
 Number of independent orbital functions:                                   1472

 Extrapolation method: initial_guess


 SCF WAVEFUNCTION OPTIMIZATION

  Step     Update method      Time    Convergence         Total energy    Change
  ------------------------------------------------------------------------------
     1 NoMix/Diag. 0.40E+00    7.0     0.68761285     -1063.9377934722 -1.06E+03
     2 Broy./Diag. 0.40E+00    7.7     1.94617106      -992.5474556852  7.14E+01
     3 Broy./Diag. 0.40E+00    7.8     1.96156004     -1275.2647292629 -2.83E+02
     4 Broy./Diag. 0.40E+00    7.7     1.72401329     -1129.0888884162  1.46E+02
     5 Broy./Diag. 0.40E+00    8.0     1.78878626     -1094.7049938141  3.44E+01
     6 Broy./Diag. 0.40E+00    8.3     1.95353176     -1099.6435058947 -4.94E+00
     7 Broy./Diag. 0.40E+00    8.5     1.87716630     -1098.0294766954  1.61E+00
     8 Broy./Diag. 0.40E+00    8.5     1.91129225     -1084.8532748189  1.32E+01
     9 Broy./Diag. 0.40E+00    8.7     1.44435815     -1077.8261749719  7.03E+00
    10 Broy./Diag. 0.40E+00    8.8     1.68340432     -1076.9063584278  9.20E-01
    11 Broy./Diag. 0.40E+00    8.9     1.80826220     -1076.7973101867  1.09E-01
    12 Broy./Diag. 0.40E+00    8.8     1.44310075     -1075.9958982406  8.01E-01
    13 Broy./Diag. 0.40E+00    8.8     1.67334779     -1064.7653655778  1.12E+01
    14 Broy./Diag. 0.40E+00    8.9     1.75716531     -1083.9107600869 -1.91E+01
    15 Broy./Diag. 0.40E+00    8.7     1.81393840     -1082.2210780950  1.69E+00
    16 Broy./Diag. 0.40E+00    9.0     1.80908856     -1078.4797661679  3.74E+00
    17 Broy./Diag. 0.40E+00    8.9     1.69593716     -1081.0552813488 -2.58E+00
    18 Broy./Diag. 0.40E+00    8.9     1.52821222     -1072.3996684247  8.66E+00
    19 Broy./Diag. 0.40E+00    9.2     1.71580542     -1075.7510259117 -3.35E+00
    20 Broy./Diag. 0.40E+00    8.9     1.76596973     -1075.7373397311  1.37E-02
    21 Broy./Diag. 0.40E+00    8.6     1.81530004     -1078.1276480397 -2.39E+00
    22 Broy./Diag. 0.40E+00    8.5     1.80714484     -1077.0747242582  1.05E+00
    23 Broy./Diag. 0.40E+00    9.0     1.80327990     -1070.8270507253  6.25E+00
    24 Broy./Diag. 0.40E+00    8.9     1.78887108     -1082.4293005147 -1.16E+01
    25 Broy./Diag. 0.40E+00    8.9     1.82050561     -1074.5130819970  7.92E+00
    26 Broy./Diag. 0.40E+00    9.1     1.81377939     -1074.5563570523 -4.33E-02
    27 Broy./Diag. 0.40E+00    8.9     1.78216285     -1081.9051861444 -7.35E+00
    28 Broy./Diag. 0.40E+00    8.9     1.84401779     -1076.7066006155  5.20E+00
    29 Broy./Diag. 0.40E+00    8.6     1.78286036     -1070.5872509078  6.12E+00
    30 Broy./Diag. 0.40E+00    8.4     1.74413491     -1078.0900773019 -7.50E+00
    31 Broy./Diag. 0.40E+00    8.8     1.39982403     -1080.4029409832 -2.31E+00
    32 Broy./Diag. 0.40E+00    9.0     1.76426533     -1073.1965266061  7.21E+00
    33 Broy./Diag. 0.40E+00    8.6     1.81681229     -1084.3588671464 -1.12E+01
    34 Broy./Diag. 0.40E+00    8.3     1.72206572     -1077.0063475958  7.35E+00
    35 Broy./Diag. 0.40E+00    8.3     1.78668464     -1077.0966527801 -9.03E-02
    36 Broy./Diag. 0.40E+00    8.5     1.83945075     -1073.3331542233  3.76E+00
    37 Broy./Diag. 0.40E+00    8.8     1.83418859     -1074.9893425723 -1.66E+00
    38 Broy./Diag. 0.40E+00    8.8     1.83011882     -1076.1045492558 -1.12E+00
    39 Broy./Diag. 0.40E+00    8.6     1.73335313     -1075.1111582466  9.93E-01
    40 Broy./Diag. 0.40E+00    8.9     1.80036212     -1076.9270172901 -1.82E+00
    41 Broy./Diag. 0.40E+00    8.9     1.74183936     -1071.8017121062  5.13E+00
    42 Broy./Diag. 0.40E+00    8.8     1.79695136     -1077.7080279210 -5.91E+00
    43 Broy./Diag. 0.40E+00    8.7     1.80064733     -1074.9224914543  2.79E+00
    44 Broy./Diag. 0.40E+00    8.7     1.71739530     -1075.5814662395 -6.59E-01
    45 Broy./Diag. 0.40E+00    8.6     1.75919638     -1075.5539971408  2.75E-02
    46 Broy./Diag. 0.40E+00    8.5     1.81379849     -1080.7547171778 -5.20E+00
    47 Broy./Diag. 0.40E+00    8.5     1.65395298     -1074.1415245867  6.61E+00
    48 Broy./Diag. 0.40E+00    9.0     1.69179417     -1074.8716339480 -7.30E-01
    49 Broy./Diag. 0.40E+00    8.7     1.73916519     -1074.6721257046  2.00E-01
    50 Broy./Diag. 0.40E+00    8.8     1.76700749     -1079.2675563988 -4.60E+00
    51 Broy./Diag. 0.40E+00    8.8     1.68141447     -1076.9462729699  2.32E+00
    52 Broy./Diag. 0.40E+00    9.0     1.75630792     -1073.1527074209  3.79E+00
    53 Broy./Diag. 0.40E+00    8.8     1.78160840     -1073.9134779863 -7.61E-01
    54 Broy./Diag. 0.40E+00    8.6     1.73085659     -1079.7595180586 -5.85E+00
    55 Broy./Diag. 0.40E+00    8.8     1.80876040     -1075.9700532052  3.79E+00
    56 Broy./Diag. 0.40E+00    8.8     1.81465291     -1072.3725230946  3.60E+00
    57 Broy./Diag. 0.40E+00    9.1     1.78585738     -1074.9211790728 -2.55E+00
    58 Broy./Diag. 0.40E+00    8.7     1.86142463     -1079.1263994812 -4.21E+00
    59 Broy./Diag. 0.40E+00    8.8     1.73666449     -1074.9787412316  4.15E+00
    60 Broy./Diag. 0.40E+00    8.7     1.18578748     -1076.7997250933 -1.82E+00
    61 Broy./Diag. 0.40E+00    9.0     1.72931848     -1074.6269838087  2.17E+00
    62 Broy./Diag. 0.40E+00    8.8     1.82119405     -1076.1545509699 -1.53E+00
    63 Broy./Diag. 0.40E+00    8.6     1.81620610     -1073.2354322688  2.92E+00
    64 Broy./Diag. 0.40E+00    8.5     1.63715830     -1077.6254734969 -4.39E+00
    65 Broy./Diag. 0.40E+00    8.8     1.81865228     -1071.8503739095  5.78E+00
    66 Broy./Diag. 0.40E+00    8.6     1.75540293     -1076.1012509557 -4.25E+00
    67 Broy./Diag. 0.40E+00    8.7     1.76781614     -1081.4783326050 -5.38E+00
    68 Broy./Diag. 0.40E+00    8.7     1.41216250     -1075.8377334855  5.64E+00
    69 Broy./Diag. 0.40E+00    8.9     1.77800167     -1078.6192327948 -2.78E+00
    70 Broy./Diag. 0.40E+00    8.8     1.86998369     -1077.2663108412  1.35E+00
    71 Broy./Diag. 0.40E+00    8.8     1.78502783     -1072.5983866687  4.67E+00
    72 Broy./Diag. 0.40E+00    8.8     1.86053406     -1074.9220048546 -2.32E+00
    73 Broy./Diag. 0.40E+00    8.8     1.83015259     -1073.0615808161  1.86E+00
    74 Broy./Diag. 0.40E+00    8.9     1.26079595     -1073.7624770762 -7.01E-01
    75 Broy./Diag. 0.40E+00    8.7     1.77148326     -1070.8223254607  2.94E+00
    76 Broy./Diag. 0.40E+00    8.8     1.85458317     -1075.6618213730 -4.84E+00
    77 Broy./Diag. 0.40E+00    8.8     1.79953854     -1080.8512766772 -5.19E+00
    78 Broy./Diag. 0.40E+00    8.7     1.82193312     -1077.5141426888  3.34E+00
    79 Broy./Diag. 0.40E+00    8.7     1.73884136     -1077.2226724465  2.91E-01
    80 Broy./Diag. 0.40E+00    8.7     1.28802129     -1069.7862630121  7.44E+00
    81 Broy./Diag. 0.40E+00    9.0     1.72608562     -1081.5390462703 -1.18E+01
    82 Broy./Diag. 0.40E+00    8.9     1.78002354     -1077.8745550901  3.66E+00
    83 Broy./Diag. 0.40E+00    8.6     1.81209651     -1075.2165286677  2.66E+00
    84 Broy./Diag. 0.40E+00    8.8     1.79468427     -1083.1865977455 -7.97E+00
    85 Broy./Diag. 0.40E+00    8.7     1.55085463     -1076.7254419586  6.46E+00
    86 Broy./Diag. 0.40E+00    8.8     1.82213413     -1079.6863095693 -2.96E+00
    87 Broy./Diag. 0.40E+00    8.9     1.64787925     -1074.1298079500  5.56E+00
    88 Broy./Diag. 0.40E+00    8.7     1.71951847     -1069.0214534776  5.11E+00
    89 Broy./Diag. 0.40E+00    8.8     1.75097301     -1077.7196922870 -8.70E+00
    90 Broy./Diag. 0.40E+00    8.6     1.81755334     -1077.9709202787 -2.51E-01
    91 Broy./Diag. 0.40E+00    8.4     1.79154707     -1080.2283880993 -2.26E+00
    92 Broy./Diag. 0.40E+00    8.6     1.81700633     -1075.0980228920  5.13E+00
    93 Broy./Diag. 0.40E+00    9.0     1.75883525     -1079.0100464163 -3.91E+00
    94 Broy./Diag. 0.40E+00    8.8     1.81701984     -1071.9164491486  7.09E+00
    95 Broy./Diag. 0.40E+00    8.9     1.81190274     -1079.9088797956 -7.99E+00
    96 Broy./Diag. 0.40E+00    8.7     1.74971469     -1077.9862906227  1.92E+00
    97 Broy./Diag. 0.40E+00    8.8     1.77944380     -1075.8125425767  2.17E+00
    98 Broy./Diag. 0.40E+00    8.9     1.79856493     -1076.1694863770 -3.57E-01
    99 Broy./Diag. 0.40E+00    8.9     1.72655542     -1080.1138286421 -3.94E+00
   100 Broy./Diag. 0.40E+00    8.6     1.80450776     -1073.4486362120  6.67E+00
   101 Broy./Diag. 0.40E+00    8.9     1.82695291     -1083.5083898521 -1.01E+01
   102 Broy./Diag. 0.40E+00    8.9     1.39423760     -1073.2423743541  1.03E+01
   103 Broy./Diag. 0.40E+00    8.7     1.77159682     -1068.1471089775  5.10E+00
   104 Broy./Diag. 0.40E+00    8.7     1.80701282     -1080.0164099916 -1.19E+01
   105 Broy./Diag. 0.40E+00    8.5     1.84730654     -1078.0403984653  1.98E+00
   106 Broy./Diag. 0.40E+00    8.5     1.77903225     -1074.6379919780  3.40E+00
   107 Broy./Diag. 0.40E+00    8.9     1.74382096     -1074.4443261670  1.94E-01
   108 Broy./Diag. 0.40E+00    8.7     1.81180494     -1076.0081397940 -1.56E+00
   109 Broy./Diag. 0.40E+00    8.9     1.79346870     -1078.4178188227 -2.41E+00
   110 Broy./Diag. 0.40E+00    8.9     1.81844444     -1072.5559380193  5.86E+00
   111 Broy./Diag. 0.40E+00    8.9     1.80267756     -1075.6871749808 -3.13E+00
   112 Broy./Diag. 0.40E+00    8.7     1.77148893     -1075.7126801976 -2.55E-02
   113 Broy./Diag. 0.40E+00    8.7     1.79507407     -1075.5741214860  1.39E-01
   114 Broy./Diag. 0.40E+00    8.9     1.84891176     -1076.6371375056 -1.06E+00
   115 Broy./Diag. 0.40E+00    8.6     1.75101796     -1076.8617703898 -2.25E-01
   116 Broy./Diag. 0.40E+00    8.9     1.82533240     -1077.2299734330 -3.68E-01
   117 Broy./Diag. 0.40E+00    8.7     1.70465153     -1071.5759280203  5.65E+00
   118 Broy./Diag. 0.40E+00    8.9     1.81739273     -1075.5354028253 -3.96E+00
   119 Broy./Diag. 0.40E+00    8.7     1.57377121     -1075.4698281766  6.56E-02
   120 Broy./Diag. 0.40E+00    8.6     1.78680477     -1076.9829123063 -1.51E+00
   121 Broy./Diag. 0.40E+00    8.5     1.81884498     -1073.8475700221  3.14E+00
   122 Broy./Diag. 0.40E+00    8.9     1.74275005     -1081.5231121947 -7.68E+00
   123 Broy./Diag. 0.40E+00    9.0     1.80181743     -1073.6929752280  7.83E+00
   124 Broy./Diag. 0.40E+00    8.6     1.83075559     -1077.2335108641 -3.54E+00
   125 Broy./Diag. 0.40E+00    8.9     1.80157022     -1078.1063634651 -8.73E-01
   126 Broy./Diag. 0.40E+00    8.8     1.75739486     -1074.1391274916  3.97E+00
   127 Broy./Diag. 0.40E+00    9.1     1.76342568     -1076.8918771674 -2.75E+00
   128 Broy./Diag. 0.40E+00    9.0     1.78556473     -1072.3423796148  4.55E+00
   129 Broy./Diag. 0.40E+00    9.0     1.82079936     -1085.4176157880 -1.31E+01
   130 Broy./Diag. 0.40E+00    8.9     1.74820096     -1075.9048942076  9.51E+00
   131 Broy./Diag. 0.40E+00    8.6     1.79186244     -1074.6011919525  1.30E+00
   132 Broy./Diag. 0.40E+00    8.6     1.87630971     -1074.1218476987  4.79E-01
   133 Broy./Diag. 0.40E+00    8.9     1.84426227     -1072.7100342522  1.41E+00
   134 Broy./Diag. 0.40E+00    8.9     1.74093064     -1081.7339700751 -9.02E+00
   135 Broy./Diag. 0.40E+00    8.9     1.75576421     -1073.3426854524  8.39E+00
   136 Broy./Diag. 0.40E+00    8.7     1.81756282     -1078.0269784573 -4.68E+00
   137 Broy./Diag. 0.40E+00    8.7     1.71440628     -1075.6860695261  2.34E+00
   138 Broy./Diag. 0.40E+00    8.8     1.81071492     -1075.1932224029  4.93E-01
   139 Broy./Diag. 0.40E+00    8.6     1.73167285     -1074.1548976489  1.04E+00
   140 Broy./Diag. 0.40E+00    8.7     1.72881632     -1085.7122559964 -1.16E+01
   141 Broy./Diag. 0.40E+00    8.9     1.80378316     -1076.4426340864  9.27E+00
   142 Broy./Diag. 0.40E+00    8.9     1.88337214     -1076.1182276576  3.24E-01
   143 Broy./Diag. 0.40E+00    8.8     1.17904328     -1069.9882090868  6.13E+00
   144 Broy./Diag. 0.40E+00    8.8     1.42620336     -1075.7311799188 -5.74E+00
   145 Broy./Diag. 0.40E+00    8.9     1.75842162     -1073.3564114757  2.37E+00
   146 Broy./Diag. 0.40E+00    9.2     1.81455932     -1078.6077768631 -5.25E+00
   147 Broy./Diag. 0.40E+00    8.6     1.84399876     -1075.2056605922  3.40E+00
   148 Broy./Diag. 0.40E+00    8.6     1.78952929     -1077.4353088382 -2.23E+00
   149 Broy./Diag. 0.40E+00    8.8     1.77299122     -1073.1235878348  4.31E+00
   150 Broy./Diag. 0.40E+00    8.6     1.71905252     -1081.3746735898 -8.25E+00
   151 Broy./Diag. 0.40E+00    8.6     1.79365882     -1073.6825284057  7.69E+00
   152 Broy./Diag. 0.40E+00    8.9     1.80978483     -1076.6837864863 -3.00E+00
   153 Broy./Diag. 0.40E+00    8.8     1.12054803     -1071.7485095111  4.94E+00
   154 Broy./Diag. 0.40E+00    8.7     1.72018651     -1073.9266726133 -2.18E+00
   155 Broy./Diag. 0.40E+00    8.8     1.78275167     -1078.8406933597 -4.91E+00
   156 Broy./Diag. 0.40E+00    9.0     1.54698404     -1074.9516523369  3.89E+00
   157 Broy./Diag. 0.40E+00    8.8     1.82799828     -1077.9255616682 -2.97E+00
   158 Broy./Diag. 0.40E+00    8.7     1.73729448     -1072.3524348934  5.57E+00
   159 Broy./Diag. 0.40E+00    9.0     1.81511950     -1074.7184210978 -2.37E+00
   160 Broy./Diag. 0.40E+00    8.7     1.75248501     -1080.5348319641 -5.82E+00
   161 Broy./Diag. 0.40E+00    8.6     1.80606447     -1076.8102258193  3.72E+00
   162 Broy./Diag. 0.40E+00    8.4     1.76213316     -1074.7005341408  2.11E+00
   163 Broy./Diag. 0.40E+00    8.4     1.69908182     -1070.8308835621  3.87E+00
   164 Broy./Diag. 0.40E+00    8.9     1.78112103     -1076.0000554280 -5.17E+00
   165 Broy./Diag. 0.40E+00    8.8     1.79306295     -1078.0384972436 -2.04E+00
   166 Broy./Diag. 0.40E+00    8.6     1.81552194     -1077.4200815259  6.18E-01
   167 Broy./Diag. 0.40E+00    8.7     1.73541249     -1074.1606200712  3.26E+00
   168 Broy./Diag. 0.40E+00    8.7     1.78776861     -1073.8697498952  2.91E-01
   169 Broy./Diag. 0.40E+00    8.7     1.75778157     -1074.0059815306 -1.36E-01
   170 Broy./Diag. 0.40E+00    8.8     1.77810787     -1080.1714881051 -6.17E+00
   171 Broy./Diag. 0.40E+00    8.9     1.78961141     -1074.5798857596  5.59E+00
   172 Broy./Diag. 0.40E+00    8.6     1.82750200     -1074.9801918635 -4.00E-01
   173 Broy./Diag. 0.40E+00    8.5     1.76900955     -1074.0804635466  9.00E-01
   174 Broy./Diag. 0.40E+00    8.9     1.73323495     -1080.2267281143 -6.15E+00
   175 Broy./Diag. 0.40E+00    8.8     1.73579565     -1078.9117044182  1.32E+00
   176 Broy./Diag. 0.40E+00    8.7     1.76368303     -1072.2082133330  6.70E+00
   177 Broy./Diag. 0.40E+00    8.7     1.77450228     -1079.0255492949 -6.82E+00
   178 Broy./Diag. 0.40E+00    8.9     1.78647826     -1075.9003094976  3.13E+00
   179 Broy./Diag. 0.40E+00    8.7     1.80565756     -1076.8313538813 -9.31E-01
   180 Broy./Diag. 0.40E+00    8.3     1.75555683     -1073.7103907517  3.12E+00
   181 Broy./Diag. 0.40E+00    8.9     1.82355920     -1074.1406668412 -4.30E-01
   182 Broy./Diag. 0.40E+00    8.6     1.82458817     -1078.4547692551 -4.31E+00
   183 Broy./Diag. 0.40E+00    8.7     1.78681915     -1076.6005180344  1.85E+00
   184 Broy./Diag. 0.40E+00    9.0     1.76043521     -1073.2394292263  3.36E+00
   185 Broy./Diag. 0.40E+00    8.8     1.75609937     -1077.9877290387 -4.75E+00
   186 Broy./Diag. 0.40E+00    8.8     1.80910813     -1073.9824878329  4.01E+00
   187 Broy./Diag. 0.40E+00    8.8     1.80970475     -1071.8397826247  2.14E+00
   188 Broy./Diag. 0.40E+00    8.7     1.69691468     -1078.9472706901 -7.11E+00
   189 Broy./Diag. 0.40E+00    8.6     1.81897381     -1076.5946729220  2.35E+00
   190 Broy./Diag. 0.40E+00    8.4     1.81548396     -1074.9870264263  1.61E+00
   191 Broy./Diag. 0.40E+00    8.3     1.73719914     -1078.9168128097 -3.93E+00
   192 Broy./Diag. 0.40E+00    8.3     1.82260130     -1080.2213432940 -1.30E+00
   193 Broy./Diag. 0.40E+00    8.2     1.76491652     -1071.0885367796  9.13E+00
   194 Broy./Diag. 0.40E+00    8.2     1.79526324     -1077.1672276393 -6.08E+00
   195 Broy./Diag. 0.40E+00    8.2     1.77928262     -1074.4119403486  2.76E+00
   196 Broy./Diag. 0.40E+00    8.2     1.87640010     -1077.8791107366 -3.47E+00
   197 Broy./Diag. 0.40E+00    8.1     1.79918902     -1073.9971078428  3.88E+00
   198 Broy./Diag. 0.40E+00    8.6     1.81248147     -1076.7925546990 -2.80E+00
   199 Broy./Diag. 0.40E+00    8.7     1.83813295     -1077.6613439836 -8.69E-01
   200 Broy./Diag. 0.40E+00    8.8     1.77765648     -1074.2407140603  3.42E+00
   201 Broy./Diag. 0.40E+00    8.8     1.78668229     -1076.0203888616 -1.78E+00
   202 Broy./Diag. 0.40E+00    8.8     1.76592354     -1078.0870040967 -2.07E+00
   203 Broy./Diag. 0.40E+00    8.8     1.76155782     -1070.7155524996  7.37E+00
   204 Broy./Diag. 0.40E+00    8.6     1.83082070     -1079.7057102479 -8.99E+00
   205 Broy./Diag. 0.40E+00    8.4     1.56798002     -1077.2193470106  2.49E+00
   206 Broy./Diag. 0.40E+00    8.2     1.72028958     -1074.1034580207  3.12E+00
   207 Broy./Diag. 0.40E+00    8.2     1.82666874     -1072.1100461772  1.99E+00
   208 Broy./Diag. 0.40E+00    8.2     1.72380396     -1075.5711146277 -3.46E+00
   209 Broy./Diag. 0.40E+00    8.3     1.77201251     -1075.9455999550 -3.74E-01
   210 Broy./Diag. 0.40E+00    8.1     1.81162854     -1076.3295553049 -3.84E-01
   211 Broy./Diag. 0.40E+00    8.1     1.84936087     -1077.4260863705 -1.10E+00
   212 Broy./Diag. 0.40E+00    8.2     1.80478439     -1077.1432222535  2.83E-01
   213 Broy./Diag. 0.40E+00    8.3     1.59469959     -1071.0574045845  6.09E+00
   214 Broy./Diag. 0.40E+00    8.5     1.23391057     -1067.9397612062  3.12E+00
   215 Broy./Diag. 0.40E+00    9.1     1.65789733     -1083.5154341121 -1.56E+01
   216 Broy./Diag. 0.40E+00    8.8     1.78139219     -1079.5096400864  4.01E+00
   217 Broy./Diag. 0.40E+00    8.8     1.80677890     -1078.3501078171  1.16E+00
   218 Broy./Diag. 0.40E+00    8.6     1.77229138     -1079.1898553931 -8.40E-01
   219 Broy./Diag. 0.40E+00    8.4     1.86101863     -1072.5242447956  6.67E+00
   220 Broy./Diag. 0.40E+00    8.5     1.84755078     -1073.2887653471 -7.65E-01
   221 Broy./Diag. 0.40E+00    8.8     1.81380675     -1077.9135117590 -4.62E+00
   222 Broy./Diag. 0.40E+00    8.8     1.21064896     -1072.9967171097  4.92E+00
   223 Broy./Diag. 0.40E+00    8.6     1.56062997     -1073.8591068925 -8.62E-01
   224 Broy./Diag. 0.40E+00    8.6     1.66966567     -1072.5607889544  1.30E+00
   225 Broy./Diag. 0.40E+00    8.7     1.38457842     -1078.5913944146 -6.03E+00
   226 Broy./Diag. 0.40E+00    8.6     1.81631828     -1078.1913397348  4.00E-01
   227 Broy./Diag. 0.40E+00    8.9     1.84669796     -1080.6782837062 -2.49E+00
   228 Broy./Diag. 0.40E+00    8.6     1.83809760     -1077.4072051113  3.27E+00
   229 Broy./Diag. 0.40E+00    8.3     1.88400209     -1069.8348288151  7.57E+00
   230 Broy./Diag. 0.40E+00    8.4     1.81101670     -1075.9883871342 -6.15E+00
   231 Broy./Diag. 0.40E+00    8.7     1.87624828     -1073.7153107046  2.27E+00
   232 Broy./Diag. 0.40E+00    8.7     1.76544849     -1073.0930250097  6.22E-01
   233 Broy./Diag. 0.40E+00    8.6     1.77241134     -1075.9792341226 -2.89E+00
   234 Broy./Diag. 0.40E+00    8.6     1.80928406     -1078.5572407465 -2.58E+00
   235 Broy./Diag. 0.40E+00    8.9     1.29312759     -1080.3992726730 -1.84E+00
   236 Broy./Diag. 0.40E+00    8.7     1.78446166     -1073.5162214310  6.88E+00
   237 Broy./Diag. 0.40E+00    9.3     1.76536943     -1078.9156765935 -5.40E+00
   238 Broy./Diag. 0.40E+00    8.8     1.83399663     -1076.2685187295  2.65E+00
   239 Broy./Diag. 0.40E+00    8.6     1.83800745     -1071.7694695455  4.50E+00
   240 Broy./Diag. 0.40E+00    8.6     1.83188713     -1077.7145924099 -5.95E+00
   241 Broy./Diag. 0.40E+00    8.8     1.73942640     -1072.0750171413  5.64E+00
   242 Broy./Diag. 0.40E+00    8.6     1.74830916     -1076.3378520731 -4.26E+00
   243 Broy./Diag. 0.40E+00    8.7     1.78764861     -1078.1503580440 -1.81E+00
   244 Broy./Diag. 0.40E+00    8.8     1.80183921     -1079.4513243524 -1.30E+00
   245 Broy./Diag. 0.40E+00    8.8     1.31109579     -1077.9735155500  1.48E+00
   246 Broy./Diag. 0.40E+00    8.6     1.70695185     -1072.3663700155  5.61E+00
   247 Broy./Diag. 0.40E+00    8.4     1.79446796     -1077.7715504682 -5.41E+00
   248 Broy./Diag. 0.40E+00    8.7     1.81630562     -1077.6518989149  1.20E-01
   249 Broy./Diag. 0.40E+00    8.7     1.78192753     -1077.1681706327  4.84E-01
   250 Broy./Diag. 0.40E+00    8.9     1.84586896     -1075.4914383602  1.68E+00
   251 Broy./Diag. 0.40E+00    8.6     1.75845191     -1073.2006503939  2.29E+00
   252 Broy./Diag. 0.40E+00    8.4     1.80112826     -1073.8152973237 -6.15E-01
   253 Broy./Diag. 0.40E+00    8.3     1.82956246     -1077.8362705501 -4.02E+00
   254 Broy./Diag. 0.40E+00    8.3     1.83270566     -1075.6057509428  2.23E+00
   255 Broy./Diag. 0.40E+00    8.2     1.77134187     -1074.1262384030  1.48E+00
   256 Broy./Diag. 0.40E+00    8.5     1.80068623     -1073.7299625022  3.96E-01
   257 Broy./Diag. 0.40E+00    8.9     1.83027024     -1078.8013075292 -5.07E+00
   258 Broy./Diag. 0.40E+00    8.8     1.70275803     -1075.6917518057  3.11E+00
   259 Broy./Diag. 0.40E+00    8.6     1.78585321     -1075.7701503152 -7.84E-02
   260 Broy./Diag. 0.40E+00    8.5     1.85009063     -1077.7968278391 -2.03E+00
   261 Broy./Diag. 0.40E+00    8.8     1.76341053     -1071.3368214503  6.46E+00
   262 Broy./Diag. 0.40E+00    8.7     1.76263624     -1075.9772027961 -4.64E+00
   263 Broy./Diag. 0.40E+00    8.8     1.73782183     -1070.8022288271  5.17E+00
   264 Broy./Diag. 0.40E+00    8.6     1.79388045     -1081.1245541354 -1.03E+01
   265 Broy./Diag. 0.40E+00    8.4     1.77800346     -1081.7367131883 -6.12E-01
   266 Broy./Diag. 0.40E+00    8.7     1.79054746     -1075.8966710002  5.84E+00
   267 Broy./Diag. 0.40E+00    8.7     1.77591241     -1076.3924911721 -4.96E-01
   268 Broy./Diag. 0.40E+00    8.7     1.78655093     -1074.2335569816  2.16E+00
   269 Broy./Diag. 0.40E+00    8.8     1.82959780     -1079.6784002484 -5.44E+00
   270 Broy./Diag. 0.40E+00    8.8     1.79791523     -1075.6299988976  4.05E+00
   271 Broy./Diag. 0.40E+00    8.7     1.71066838     -1073.0754424595  2.55E+00
   272 Broy./Diag. 0.40E+00    8.6     1.79846124     -1074.9223285221 -1.85E+00
   273 Broy./Diag. 0.40E+00    8.6     1.74758005     -1074.4442660219  4.78E-01
   274 Broy./Diag. 0.40E+00    8.8     1.77976618     -1076.5380079279 -2.09E+00
   275 Broy./Diag. 0.40E+00    8.7     1.76501501     -1079.7955170284 -3.26E+00
   276 Broy./Diag. 0.40E+00    8.9     1.82852697     -1075.5574228570  4.24E+00
   277 Broy./Diag. 0.40E+00    8.9     1.74183428     -1073.3873032524  2.17E+00
   278 Broy./Diag. 0.40E+00    8.6     1.79500729     -1073.0641064153  3.23E-01
   279 Broy./Diag. 0.40E+00    8.8     1.81430670     -1080.6895605678 -7.63E+00
   280 Broy./Diag. 0.40E+00    8.8     1.82519509     -1073.9857761914  6.70E+00
   281 Broy./Diag. 0.40E+00    8.7     1.79586821     -1069.2046834772  4.78E+00
   282 Broy./Diag. 0.40E+00    8.8     1.80210113     -1081.8655886900 -1.27E+01
   283 Broy./Diag. 0.40E+00    8.7     1.81851806     -1080.0917860561  1.77E+00
   284 Broy./Diag. 0.40E+00    8.7     1.17188379     -1078.4399205726  1.65E+00
   285 Broy./Diag. 0.40E+00    8.6     1.77621249     -1079.3499844109 -9.10E-01
   286 Broy./Diag. 0.40E+00    8.9     1.85973222     -1076.7124179775  2.64E+00
   287 Broy./Diag. 0.40E+00    9.1     1.80028284     -1072.5738001376  4.14E+00
   288 Broy./Diag. 0.40E+00    8.7     1.77719033     -1075.9101971150 -3.34E+00
   289 Broy./Diag. 0.40E+00    8.7     1.86650216     -1073.3907836732  2.52E+00
   290 Broy./Diag. 0.40E+00    8.5     1.82453983     -1078.8344274873 -5.44E+00
   291 Broy./Diag. 0.40E+00    8.9     1.72208166     -1073.8952429515  4.94E+00
   292 Broy./Diag. 0.40E+00    8.7     1.72994695     -1072.2356450392  1.66E+00
   293 Broy./Diag. 0.40E+00    8.9     1.78168477     -1076.4054903645 -4.17E+00
   294 Broy./Diag. 0.40E+00    8.8     1.77566681     -1080.4328040035 -4.03E+00
   295 Broy./Diag. 0.40E+00    8.8     1.53197350     -1077.1890731780  3.24E+00
   296 Broy./Diag. 0.40E+00    8.8     1.77960125     -1075.0068493770  2.18E+00
   297 Broy./Diag. 0.40E+00    8.6     1.83230521     -1074.6743660588  3.32E-01
   298 Broy./Diag. 0.40E+00    8.8     1.78091252     -1076.3812907084 -1.71E+00
   299 Broy./Diag. 0.40E+00    8.9     1.77518332     -1074.8323033040  1.55E+00
   300 Broy./Diag. 0.40E+00    8.9     1.74004701     -1074.9442761258 -1.12E-01

  Leaving inner SCF loop after reaching   300 steps.


  Electronic density on regular grids:       -512.0004024303       -0.0004024303
  Core density on regular grids:              511.9998657998       -0.0001342002
  Total charge density on r-space grids:       -0.0005366305
  Total charge density g-space grids:          -0.0005366305

  Overlap energy of the core charge distribution:               0.00000000000000
  Self energy of the core charge distribution:              -2838.21791979120962
  Core Hamiltonian energy:                                    760.72922542106949
  Hartree energy:                                            1240.76416231767416
  Exchange-correlation energy:                               -238.21974407329881

  Total energy:                                             -1074.94427612576510

 *** WARNING in qs_scf.F:542 :: SCF run NOT converged ***


 ENERGY| Total FORCE_EVAL ( QS ) energy (a.u.):            -1073.521894568121525


 ATOMIC FORCES in [a.u.]

 # Atom   Kind   Element          X              Y              Z
      1      1      O          -0.16448467     0.02112673    -0.08118712
      2      2      H           0.05189557    -0.01742399    -0.08205175
      3      2      H          -0.01052543     0.03396403    -0.00663405
      4      1      O           0.01737160     0.04839123     0.01201243
      5      2      H           0.05959574    -0.07451453     0.03644766
      6      2      H           0.01040337    -0.01594478     0.03865406
      7      1      O           0.05652882     0.14850856     0.05931068
      8      2      H          -0.01293641    -0.00853016     0.02554445
      9      2      H           0.04848341     0.02545085    -0.01599225
     10      1      O           0.05072287    -0.04495372    -0.06330249
     11      2      H          -0.03780587     0.02469367     0.02199877
     12      2      H           0.04324453    -0.07769072     0.01932460
     13      1      O          -0.15833945     0.02467118    -0.17932676
     14      2      H           0.03665093    -0.02939770     0.06861454
     15      2      H           0.05137818     0.06135659     0.07577560
     16      1      O           0.12990059    -0.01070906     0.16903078
     17      2      H           0.03813000     0.06384398     0.01945879
     18      2      H          -0.01594529    -0.01171497    -0.11379211
     19      1      O           0.08788996     0.01653626     0.00139735
     20      2      H          -0.04373333    -0.02741020    -0.09358450
     21      2      H           0.05012813     0.06646645     0.00017943
     22      1      O          -0.02326776     0.04570663    -0.10958129
     23      2      H           0.02827851    -0.04734417     0.06594167
     24      2      H           0.02133723     0.10061015     0.02508438
     25      1      O           0.11572275    -0.02739805     0.16071608
     26      2      H           0.00998756     0.04411726    -0.01608670
     27      2      H          -0.01471498    -0.06199337     0.00444291
     28      1      O          -0.00998224     0.04164367    -0.01987223
     29      2      H           0.08960730    -0.01540984     0.00366063
     30      2      H          -0.02505974    -0.12179115    -0.05842344
     31      1      O          -0.15493501     0.08557515    -0.13628864
     32      2      H           0.05347222     0.05070456     0.02686778
     33      2      H           0.05064572    -0.03121307    -0.01028928
     34      1      O          -0.11782124    -0.02460715    -0.11263643
     35      2      H           0.04390930    -0.06911230    -0.02724394
     36      2      H           0.01184598     0.03345114    -0.01294470
     37      1      O          -0.12780900     0.13198268     0.02716145
     38      2      H           0.02533318     0.07154506    -0.03530627
     39      2      H           0.01071102    -0.10184280    -0.05500508
     40      1      O           0.14959977    -0.11084366     0.13340342
     41      2      H          -0.04093188    -0.06911234     0.00862404
     42      2      H          -0.02086938     0.06692020    -0.03506294
     43      1      O           0.02358119     0.03308528    -0.14248231
     44      2      H           0.02574713    -0.00400653     0.10653622
     45      2      H           0.02319551    -0.05228649    -0.00933400
     46      1      O           0.13936463     0.01728791     0.01966937
     47      2      H          -0.04716436    -0.02600729    -0.07209216
     48      2      H           0.00844871     0.08013974     0.08506175
     49      1      O           0.03839383    -0.04321556     0.00326554
     50      2      H           0.03554417     0.01906549     0.00136742
     51      2      H          -0.03206925     0.01932331    -0.03928397
     52      1      O           0.10129063    -0.13212889     0.02025014
     53      2      H           0.01366591     0.08125703    -0.03254805
     54      2      H          -0.03435169    -0.03492659     0.05295781
     55      1      O          -0.14836396    -0.02770748     0.09113457
     56      2      H           0.03229097     0.05614874     0.07538074
     57      2      H          -0.02314739    -0.00894144    -0.09851815
     58      1      O          -0.12619468    -0.01906550    -0.00748063
     59      2      H          -0.05495590     0.00266987    -0.09706026
     60      2      H           0.07109141    -0.02812747    -0.00065156
     61      1      O          -0.06324428     0.01427873     0.16301007
     62      2      H           0.03837603    -0.05375989    -0.09967796
     63      2      H          -0.08851236    -0.07983779    -0.01178819
     64      1      O          -0.01178484     0.11218063    -0.14809082
     65      2      H          -0.03159938    -0.03882460     0.00865467
     66      2      H          -0.01161832     0.01111050    -0.00944712
     67      1      O           0.13539343    -0.02004200     0.00658380
     68      2      H          -0.04085350     0.01055557    -0.06305776
     69      2      H           0.02121291    -0.06387906    -0.05128511
     70      1      O          -0.15096920     0.13620051    -0.09914713
     71      2      H           0.05015765     0.02080427    -0.01472793
     72      2      H           0.02778459    -0.03090326     0.02839054
     73      1      O          -0.06955407     0.04695659    -0.12413121
     74      2      H           0.04197918     0.05559214     0.06620776
     75      2      H          -0.06726640    -0.02310871    -0.00659180
     76      1      O           0.12408993    -0.02247168     0.12930991
     77      2      H           0.02796872     0.03526792    -0.01857865
     78      2      H          -0.03051714    -0.01676451     0.02773571
     79      1      O          -0.09635966    -0.00279337     0.14876689
     80      2      H           0.10433928    -0.02880078    -0.03571800
     81      2      H          -0.05697371    -0.08354411     0.05446325
     82      1      O           0.15669355     0.12866452     0.14394610
     83      2      H          -0.08334446    -0.00544133     0.06034896
     84      2      H          -0.00780821    -0.07719855    -0.11011247
     85      1      O           0.09230858    -0.14478744     0.00311681
     86      2      H          -0.02832743     0.07301328    -0.03220264
     87      2      H           0.02359984     0.08292453     0.02012120
     88      1      O          -0.00047496    -0.04654792     0.13489865
     89      2      H           0.02292860    -0.04926739     0.02900764
     90      2      H           0.03184513     0.05426101    -0.10329065
     91      1      O           0.08882671     0.10632119     0.04596104
     92      2      H          -0.00973881    -0.02845584    -0.03589988
     93      2      H           0.03676238    -0.04734006     0.05975486
     94      1      O          -0.13217540     0.09103536    -0.00396716
     95      2      H           0.08446268    -0.01860640     0.08097046
     96      2      H           0.07121536    -0.00418180    -0.03570866
     97      1      O           0.19595079     0.17565401    -0.03948189
     98      2      H          -0.07938982     0.02037270    -0.08376938
     99      2      H          -0.03333349    -0.11813382     0.02808050
    100      1      O           0.08986494     0.12525195     0.12024434
    101      2      H          -0.00193398     0.03884828    -0.08213177
    102      2      H           0.00023790    -0.05776220     0.01989091
    103      1      O          -0.14623188     0.06189411    -0.02714774
    104      2      H           0.04569638    -0.02411140    -0.03867927
    105      2      H           0.03878042     0.00636574     0.07930137
    106      1      O          -0.11143287     0.19335429    -0.01228773
    107      2      H          -0.01615280    -0.04967373     0.06638191
    108      2      H           0.06398801    -0.07033143    -0.07189680
    109      1      O          -0.01165632    -0.09659434    -0.11493348
    110      2      H           0.07489345    -0.07728494     0.02931648
    111      2      H           0.04619134     0.09136842    -0.00678342
    112      1      O           0.13130283    -0.09024050     0.11239695
    113      2      H           0.02951281    -0.04491751    -0.04731129
    114      2      H          -0.03085085     0.03132199     0.01465138
    115      1      O           0.12254045     0.12011696    -0.05145162
    116      2      H          -0.04158015    -0.01794625    -0.00886772
    117      2      H           0.00984578     0.01850413     0.10152194
    118      1      O          -0.05756772    -0.05415037    -0.02608766
    119      2      H          -0.01731293    -0.07412873     0.01822233
    120      2      H           0.03364516    -0.02903775     0.05998588
    121      1      O          -0.06487713    -0.00604315     0.10418344
    122      2      H           0.04085041     0.10134927     0.04252580
    123      2      H           0.02275009     0.02613738     0.01029025
    124      1      O          -0.02427542    -0.04355813    -0.09088454
    125      2      H          -0.10686315     0.03981768    -0.06396378
    126      2      H           0.06876587    -0.00087976     0.00566042
    127      1      O           0.03389211     0.10595592     0.01698296
    128      2      H           0.01940612    -0.01503144     0.05395049
    129      2      H           0.02186219     0.03770332    -0.06008546
    130      1      O           0.15560149     0.02055058    -0.10913090
    131      2      H          -0.04630468     0.03075191    -0.02258709
    132      2      H          -0.03377020    -0.04419278     0.01806064
    133      1      O           0.04196852     0.06441646     0.02195882
    134      2      H           0.00693013     0.02906552     0.06582911
    135      2      H           0.06496830     0.03232885    -0.04244961
    136      1      O          -0.07749925     0.00007086     0.01397279
    137      2      H          -0.00138526    -0.07499179    -0.02194940
    138      2      H          -0.03494155     0.03436867     0.06702120
    139      1      O          -0.10732022     0.09797915    -0.01301689
    140      2      H           0.11807547     0.01717153     0.01887282
    141      2      H          -0.03919681    -0.01131245    -0.06421159
    142      1      O          -0.13230327    -0.04936063     0.01239903
    143      2      H           0.01629861     0.01745623     0.03639515
    144      2      H          -0.01997684    -0.09619700    -0.02084963
    145      1      O          -0.06990984     0.01790200     0.02454707
    146      2      H           0.05976420     0.03955150     0.08341175
    147      2      H          -0.06558531     0.04675673     0.03421146
    148      1      O          -0.07304911    -0.15977024    -0.08500575
    149      2      H          -0.03747988     0.00904975     0.09429038
    150      2      H           0.05420704    -0.00471442     0.03264171
    151      1      O           0.03808464     0.10656945     0.12591013
    152      2      H           0.02337636     0.03251772    -0.03253789
    153      2      H          -0.06221594    -0.09450855    -0.07794589
    154      1      O           0.03310909    -0.00515573    -0.01293972
    155      2      H           0.10579605    -0.00670824    -0.04901906
    156      2      H          -0.03942258    -0.02369829     0.02209230
    157      1      O          -0.02340223     0.02976524    -0.00472509
    158      2      H          -0.01770208    -0.00764903     0.00265628
    159      2      H           0.03914025    -0.06210466    -0.05446866
    160      1      O          -0.06626914    -0.02962151     0.10997706
    161      2      H           0.03751782     0.00855694    -0.02953041
    162      2      H          -0.02467934    -0.05199250    -0.08697229
    163      1      O           0.02088906     0.00409673     0.08142653
    164      2      H           0.00886555     0.01633921     0.07371922
    165      2      H           0.06080011    -0.00480252    -0.01393708
    166      1      O          -0.07321203    -0.17634567     0.06190896
    167      2      H          -0.06586925     0.01305627    -0.01569961
    168      2      H           0.05779692     0.08003230     0.00229045
    169      1      O          -0.07308695    -0.12865354    -0.11177361
    170      2      H           0.07811774    -0.02544416    -0.03429315
    171      2      H           0.01918935     0.03366573     0.02747778
    172      1      O          -0.02600655    -0.01270900    -0.12133908
    173      2      H           0.01328001     0.12787988     0.02304946
    174      2      H           0.06949654    -0.03034250     0.04634741
    175      1      O          -0.03338584     0.06200172    -0.04886581
    176      2      H           0.03065718    -0.00963499    -0.03274502
    177      2      H           0.02834472    -0.09582262     0.11516546
    178      1      O           0.09064514    -0.02848722     0.12879335
    179      2      H          -0.01921461    -0.03357275     0.00681464
    180      2      H          -0.04107379     0.08035145     0.00901837
    181      1      O          -0.03434324    -0.01203116    -0.02596293
    182      2      H           0.04200400     0.02379182     0.02195236
    183      2      H          -0.00306247    -0.05052055    -0.01239055
    184      1      O          -0.05909654    -0.13414824    -0.04773841
    185      2      H           0.03835053     0.00816389     0.07680323
    186      2      H           0.05190887     0.01788013    -0.09199885
    187      1      O           0.00675177    -0.04600217    -0.11680678
    188      2      H          -0.03419175    -0.09312363     0.03119949
    189      2      H           0.06380973     0.01092041    -0.01046396
    190      1      O          -0.00033347     0.12466005     0.07869115
    191      2      H           0.04164310     0.00840408     0.01399860
    192      2      H          -0.02506063     0.00276513    -0.05281654
 SUM OF ATOMIC FORCES           1.01235804     0.20289274     0.07959395     1.03555273

 -------------------------------------------------------------------------------
 -                                                                             -
 -                                DBCSR STATISTICS                             -
 -                                                                             -
 -------------------------------------------------------------------------------
 COUNTER                                    TOTAL       BLAS       SMM       ACC
 flops     5 x     5 x   256           6164480000       0.0%    100.0%      0.0%
 flops     5 x    13 x   256           7392752640       0.0%    100.0%      0.0%
 flops    13 x     5 x   256           7653201920       0.0%    100.0%      0.0%
 flops    13 x    13 x   256          10287746560       0.0%    100.0%      0.0%
 flops inhomo. stacks                           0       0.0%      0.0%      0.0%
 flops total                        31.498181E+09       0.0%    100.0%      0.0%
 flops max/rank                     31.498181E+09       0.0%    100.0%      0.0%
 matmuls inhomo. stacks                         0       0.0%      0.0%      0.0%
 matmuls total                            1052597       0.0%    100.0%      0.0%
 number of processed stacks                 42140       0.0%    100.0%      0.0%
 average stack size                                     0.0      25.0       0.0
 marketing flops                   333.927416E+09
 -------------------------------------------------------------------------------
 # multiplications                            301
 max memory usage/rank               3.722850E+09
 # max total images/rank                        1
 # max 3D layers                                1
 # MPI messages exchanged                       0
 MPI messages size (bytes):
  total size                         0.000000E+00
  min size                           0.000000E+00
  max size                           0.000000E+00
  average size                       0.000000E+00
 MPI breakdown and total messages size (bytes):
             size <=      128                   0                        0
       128 < size <=     8192                   0                        0
      8192 < size <=    32768                   0                        0
     32768 < size <=   131072                   0                        0
    131072 < size <=  4194304                   0                        0
   4194304 < size <= 16777216                   0                        0
  16777216 < size                               0                        0
 -------------------------------------------------------------------------------

 MEMORY| Estimated peak process memory [MiB]                                3545

 -------------------------------------------------------------------------------
 -                                                                             -
 -                           R E F E R E N C E S                               -
 -                                                                             -
 -------------------------------------------------------------------------------
 
 CP2K version 7.1, the CP2K developers group (2019).
 CP2K is freely available from https://www.cp2k.org/ .

 Schuett, Ole; Messmer, Peter; Hutter, Juerg; VandeVondele, Joost. 
 Electronic Structure Calculations on Graphics Processing Units, John
 Wiley & Sons, Ltd, 173-190 (2016). 
 GPU-Accelerated Sparse Matrix-Matrix Multiplication for
 Linear Scaling Density Functional Theory.
 https://dx.doi.org/10.1002/9781118670712.ch8

 Borstnik, U; VandeVondele, J; Weber, V; Hutter, J. 
 PARALLEL COMPUTING, 40 (5-6), 47-58 (2014). 
 Sparse matrix multiplication: The distributed block-compressed sparse
 row library.
 https://dx.doi.org/10.1016/j.parco.2014.03.012

 Hutter, J; Iannuzzi, M; Schiffmann, F; VandeVondele, J. 
 WIREs Comput Mol Sci., 4 (1), 15-25 (2014). 
 CP2K: atomistic simulations of condensed matter systems.
 https://dx.doi.org/10.1002/wcms.1159

 Krack, M. 
 THEORETICAL CHEMISTRY ACCOUNTS, 114 (1-3), 145-152 (2005). 
 Pseudopotentials for H to Kr optimized for gradient-corrected
 exchange-correlation functionals.
 https://dx.doi.org/10.1007/s00214-005-0655-y

 VandeVondele, J; Krack, M; Mohamed, F; Parrinello, M; Chassaing, T;
 Hutter, J. COMPUTER PHYSICS COMMUNICATIONS, 167 (2), 103-128 (2005). 
 QUICKSTEP: Fast and accurate density functional calculations using a
 mixed Gaussian and plane waves approach.
 https://dx.doi.org/10.1016/j.cpc.2004.12.014

 Frigo, M; Johnson, SG. 
 PROCEEDINGS OF THE IEEE, 93 (2), 216-231 (2005). 
 The design and implementation of FFTW3.
 https://dx.doi.org/10.1109/JPROC.2004.840301

 Hartwigsen, C; Goedecker, S; Hutter, J. 
 PHYSICAL REVIEW B, 58 (7), 3641-3662 (1998). 
 Relativistic separable dual-space Gaussian pseudopotentials from H to Rn.
 https://dx.doi.org/10.1103/PhysRevB.58.3641

 Lippert, G; Hutter, J; Parrinello, M. 
 MOLECULAR PHYSICS, 92 (3), 477-487 (1997). 
 A hybrid Gaussian and plane wave density functional scheme.
 https://dx.doi.org/10.1080/002689797170220

 Goedecker, S; Teter, M; Hutter, J. 
 PHYSICAL REVIEW B, 54 (3), 1703-1710 (1996). 
 Separable dual-space Gaussian pseudopotentials.
 https://dx.doi.org/10.1103/PhysRevB.54.1703


 -------------------------------------------------------------------------------
 -                                                                             -
 -                                T I M I N G                                  -
 -                                                                             -
 -------------------------------------------------------------------------------
 SUBROUTINE                       CALLS  ASD         SELF TIME        TOTAL TIME
                                MAXIMUM       AVERAGE  MAXIMUM  AVERAGE  MAXIMUM
 CP2K                                 1  1.0    0.149    0.149 2613.363 2613.363
 qs_forces                            1  2.0    0.000    0.000 2611.747 2611.747
 qs_energies                          1  3.0    0.000    0.000 2611.177 2611.177
 scf_env_do_scf                       1  4.0    0.000    0.000 2609.022 2609.022
 scf_env_do_scf_inner_loop          300  5.0    0.059    0.059 2609.021 2609.021
 qs_scf_new_mos                     300  6.0    0.012    0.012 1994.652 1994.652
 eigensolver                        300  7.0    0.051    0.051 1961.735 1961.735
 cp_fm_syevd                        300  8.0 1270.049 1270.049 1271.788 1271.788
 cp_fm_cholesky_restore             900  8.0  688.874  688.874  688.874  688.874
 gspace_mixing                      299  6.0    4.832    4.832  341.023  341.023
 broyden_mixing                     299  7.0  308.894  308.894  308.897  308.897
 qs_ks_update_qs_env                300  6.0    0.003    0.003  140.282  140.282
 rebuild_ks_matrix                  301  7.0    0.001    0.001  140.261  140.261
 qs_ks_build_kohn_sham_matrix       301  8.0    0.074    0.074  140.260  140.260
 pw_transfer                       3912  9.9    0.340    0.340  133.325  133.325
 qs_rho_update_rho                  301  6.0    0.003    0.003  131.880  131.880
 calculate_rho_elec                 301  7.0   63.871   63.871  131.876  131.876
 fft_wrap_pw1pw2                   3310 10.9    0.037    0.037  129.369  129.369
 fft_wrap_pw1pw2_70                1504 11.2   14.834   14.834  119.073  119.073
 density_rs2pw                      301  8.0    0.028    0.028   65.597   65.597
 fft3d_s                           3311 12.9   61.140   61.140   61.162   61.162
 -------------------------------------------------------------------------------

 The number of warnings for this run is : 1
 
 -------------------------------------------------------------------------------
  **** **** ******  **  PROGRAM ENDED AT                 2021-01-13 18:44:28.720
 ***** ** ***  *** **   PROGRAM RAN ON                                   gnode23
 **    ****   ******    PROGRAM RAN BY                               mayank.modi
 ***** **    ** ** **   PROGRAM PROCESS ID                                 23950
  **** **  *******  **  PROGRAM STOPPED IN /home/mayank.modi/ab-initio-thermodyn
                                           amics-of-water/mayank/cp2k_energy_cal
                                           culations
