 DBCSR| CPU Multiplication driver                                           XSMM
 DBCSR| Multrec recursion limit                                              512
 DBCSR| Multiplication stack size                                           1000
 DBCSR| Maximum elements for images                                    UNLIMITED
 DBCSR| Multiplicative factor virtual images                                   1
 DBCSR| Use multiplication densification                                       T
 DBCSR| Multiplication size stacks                                             3


  **** **** ******  **  PROGRAM STARTED AT               2021-01-17 02:36:16.173
 ***** ** ***  *** **   PROGRAM STARTED ON                               gnode52
 **    ****   ******    PROGRAM STARTED BY                           mayank.modi
 ***** **    ** ** **   PROGRAM PROCESS ID                                 39528
  **** **  *******  **  PROGRAM STARTED IN /home/mayank.modi/ab-initio-thermodyn
                                           amics-of-water/mayank/cp2k_energy_cal
                                           culations

 CP2K| version string:                                          CP2K version 7.1
 CP2K| source code revision number:                                  git:e635599
 CP2K| cp2kflags: omp libint fftw3 libxc xsmm spglib                            
 CP2K| is freely available from                            https://www.cp2k.org/
 CP2K| Program compiled at                          Mon Dec 23 19:23:12 CET 2019
 CP2K| Program compiled on                                                pc9404
 CP2K| Program compiled for                                Linux-x86-64-gfortran
 CP2K| Data directory path                                        /opt/cp2k/data
 CP2K| Input file name                   input_training_correct_cell/input800.in

 GLOBAL| Force Environment number                                              1
 GLOBAL| Basis set file name                                           BASIS_SET
 GLOBAL| Potential file name                                      GTH_POTENTIALS
 GLOBAL| MM Potential file name                                     MM_POTENTIAL
 GLOBAL| Coordinate file name                                      __STD_INPUT__
 GLOBAL| Method name                                                        CP2K
 GLOBAL| Project name                                                   H2O_bulk
 GLOBAL| Preferred FFT library                                             FFTW3
 GLOBAL| Preferred diagonalization lib.                                       SL
 GLOBAL| Run type                                                   ENERGY_FORCE
 GLOBAL| All-to-all communication in single precision                          F
 GLOBAL| FFTs using library dependent lengths                                  F
 GLOBAL| Global print level                                                  LOW
 GLOBAL| MPI I/O enabled                                                       T
 GLOBAL| Total number of message passing processes                             1
 GLOBAL| Number of threads for this process                                   36
 GLOBAL| This output is from process                                           0
 GLOBAL| CPU model name                Intel(R) Xeon(R) CPU E5-2640 v4 @ 2.40GHz
 GLOBAL| CPUID                                                              1002
 GLOBAL| Compiled for CPUID                                                    0

 MEMORY| system memory details [Kb]
 MEMORY|                        rank 0           min           max       average
 MEMORY| MemTotal            131893316     131893316     131893316     131893316
 MEMORY| MemFree             107056728     107056728     107056728     107056728
 MEMORY| Buffers              13828544      13828544      13828544      13828544
 MEMORY| Cached                2349544       2349544       2349544       2349544
 MEMORY| Slab                  7930576       7930576       7930576       7930576
 MEMORY| SReclaimable          4865652       4865652       4865652       4865652
 MEMORY| MemLikelyFree       128100468     128100468     128100468     128100468


 GENERATE| WARNING:: No connections detected for Hydrogen - Atom Nr:        53 !
 GENERATE|  Preliminary Number of Bonds generated:                             0
 GENERATE|  Achieved consistency in connectivity generation.

 *******************************************************************************
 *******************************************************************************
 **                                                                           **
 **     #####                         ##              ##                      **
 **    ##   ##            ##          ##              ##                      **
 **   ##     ##                       ##            ######                    **
 **   ##     ##  ##   ##  ##   #####  ##  ##   ####   ##    #####    #####    **
 **   ##     ##  ##   ##  ##  ##      ## ##   ##      ##   ##   ##  ##   ##   **
 **   ##  ## ##  ##   ##  ##  ##      ####     ###    ##   ######   ######    **
 **    ##  ###   ##   ##  ##  ##      ## ##      ##   ##   ##       ##        **
 **     #######   #####   ##   #####  ##  ##  ####    ##    #####   ##        **
 **           ##                                                    ##        **
 **                                                                           **
 **                                                ... make the atoms dance   **
 **                                                                           **
 **            Copyright (C) by CP2K developers group (2000 - 2019)           **
 **                                                                           **
 *******************************************************************************


 TOTAL NUMBERS AND MAXIMUM NUMBERS

  Total number of            - Atomic kinds:                                   2
                             - Atoms:                                        192
                             - Shell sets:                                   384
                             - Shells:                                       704
                             - Primitive Cartesian functions:                960
                             - Cartesian basis functions:                   1536
                             - Spherical basis functions:                   1472

  Maximum angular momentum of- Orbital basis functions:                        2
                             - Local part of the GTH pseudopotential:          2
                             - Non-local part of the GTH pseudopotential:      0


 SCF PARAMETERS         Density guess:                                    ATOMIC
                        --------------------------------------------------------
                        max_scf:                                             300
                        max_scf_history:                                       0
                        max_diis:                                              4
                        --------------------------------------------------------
                        eps_scf:                                        1.00E-07
                        eps_scf_history:                                0.00E+00
                        eps_diis:                                       1.00E-01
                        eps_eigval:                                     1.00E-05
                        --------------------------------------------------------
                        level_shift [a.u.]:                                 0.00
                        --------------------------------------------------------
                        Mixing method:                            BROYDEN_MIXING
                                                charge density mixing in g-space
                        --------------------------------------------------------
                        No outer SCF

 Number of electrons:                                                        512
 Number of occupied orbitals:                                                256
 Number of molecular orbitals:                                               256

 Number of orbital functions:                                               1472
 Number of independent orbital functions:                                   1472

 Extrapolation method: initial_guess


 SCF WAVEFUNCTION OPTIMIZATION

  Step     Update method      Time    Convergence         Total energy    Change
  ------------------------------------------------------------------------------
     1 NoMix/Diag. 0.40E+00    7.1     0.68713108     -1064.4143860735 -1.06E+03
     2 Broy./Diag. 0.40E+00    8.0     1.94109129      -995.3015039363  6.91E+01
     3 Broy./Diag. 0.40E+00    8.3     1.95047143     -1263.9372220081 -2.69E+02
     4 Broy./Diag. 0.40E+00    8.4     1.74631499     -1123.4045490611  1.41E+02
     5 Broy./Diag. 0.40E+00    8.7     1.80468685     -1094.0138651557  2.94E+01
     6 Broy./Diag. 0.40E+00    8.8     1.87414030     -1101.9207611352 -7.91E+00
     7 Broy./Diag. 0.40E+00    9.1     1.76875128     -1101.5917967598  3.29E-01
     8 Broy./Diag. 0.40E+00    9.1     1.76634705     -1089.9876508141  1.16E+01
     9 Broy./Diag. 0.40E+00    9.1     1.74360641     -1079.2579988396  1.07E+01
    10 Broy./Diag. 0.40E+00    9.6     0.67140419     -1071.4983264804  7.76E+00
    11 Broy./Diag. 0.40E+00    9.7     0.52122378     -1071.9556662945 -4.57E-01
    12 Broy./Diag. 0.40E+00    9.6     1.80027178     -1072.9078145382 -9.52E-01
    13 Broy./Diag. 0.40E+00    9.5     1.81666799     -1071.8991131576  1.01E+00
    14 Broy./Diag. 0.40E+00    9.6     1.78551247     -1075.7655672833 -3.87E+00
    15 Broy./Diag. 0.40E+00    9.3     1.82225415     -1077.6974326945 -1.93E+00
    16 Broy./Diag. 0.40E+00    9.9     1.78336915     -1076.8966232763  8.01E-01
    17 Broy./Diag. 0.40E+00    9.7     1.69262372     -1080.5018473538 -3.61E+00
    18 Broy./Diag. 0.40E+00    9.6     1.76182598     -1075.3231257212  5.18E+00
    19 Broy./Diag. 0.40E+00    9.6     1.78809871     -1076.2312581390 -9.08E-01
    20 Broy./Diag. 0.40E+00    9.4     1.78387156     -1077.5109037435 -1.28E+00
    21 Broy./Diag. 0.40E+00    9.6     1.67854094     -1076.2521579435  1.26E+00
    22 Broy./Diag. 0.40E+00    9.5     1.47239816     -1075.2898363261  9.62E-01
    23 Broy./Diag. 0.40E+00    9.6     1.52186765     -1076.5588696317 -1.27E+00
    24 Broy./Diag. 0.40E+00    9.6     1.58155405     -1074.2483111443  2.31E+00
    25 Broy./Diag. 0.40E+00    9.5     1.58422852     -1077.1455261901 -2.90E+00
    26 Broy./Diag. 0.40E+00    9.4     1.76230123     -1075.3298602271  1.82E+00
    27 Broy./Diag. 0.40E+00    9.7     1.54511586     -1080.0304795066 -4.70E+00
    28 Broy./Diag. 0.40E+00    9.6     1.82087369     -1079.3010499535  7.29E-01
    29 Broy./Diag. 0.40E+00    9.6     1.83239895     -1078.2989633936  1.00E+00
    30 Broy./Diag. 0.40E+00    9.5     1.68478213     -1073.2284844003  5.07E+00
    31 Broy./Diag. 0.40E+00    9.6     1.65785252     -1079.8739810223 -6.65E+00
    32 Broy./Diag. 0.40E+00    9.4     1.49988936     -1076.5019583813  3.37E+00
    33 Broy./Diag. 0.40E+00    9.3     1.52498400     -1076.2090102325  2.93E-01
    34 Broy./Diag. 0.40E+00    9.4     1.74155034     -1074.3141295978  1.89E+00
    35 Broy./Diag. 0.40E+00    9.8     1.78772177     -1080.0850923582 -5.77E+00
    36 Broy./Diag. 0.40E+00    9.5     1.80236972     -1077.6221470823  2.46E+00
    37 Broy./Diag. 0.40E+00    9.4     1.79329021     -1078.6314010538 -1.01E+00
    38 Broy./Diag. 0.40E+00    9.3     1.84066416     -1075.7792938014  2.85E+00
    39 Broy./Diag. 0.40E+00    9.5     0.99784852     -1078.5851974330 -2.81E+00
    40 Broy./Diag. 0.40E+00    9.3     1.56764000     -1076.0832670401  2.50E+00
    41 Broy./Diag. 0.40E+00    9.5     1.63090205     -1075.8929211022  1.90E-01
    42 Broy./Diag. 0.40E+00    9.6     1.51443417     -1078.2311656037 -2.34E+00
    43 Broy./Diag. 0.40E+00    9.5     0.66225954     -1076.7595221372  1.47E+00
    44 Broy./Diag. 0.40E+00    9.2     1.78492380     -1073.9350097064  2.82E+00
    45 Broy./Diag. 0.40E+00    9.1     1.79518734     -1078.3087752062 -4.37E+00
    46 Broy./Diag. 0.40E+00    9.8     1.80917550     -1079.1204985343 -8.12E-01
    47 Broy./Diag. 0.40E+00    9.5     1.17926510     -1075.7493804229  3.37E+00
    48 Broy./Diag. 0.40E+00    9.3     0.70930634     -1074.2597672691  1.49E+00
    49 Broy./Diag. 0.40E+00    9.4     1.65095641     -1076.0019109578 -1.74E+00
    50 Broy./Diag. 0.40E+00    9.4     1.77304298     -1078.9334208131 -2.93E+00
    51 Broy./Diag. 0.40E+00    9.3     1.76982652     -1075.9010649542  3.03E+00
    52 Broy./Diag. 0.40E+00    9.6     1.13186575     -1075.2466481443  6.54E-01
    53 Broy./Diag. 0.40E+00    9.5     0.30331877     -1073.8856555981  1.36E+00
    54 Broy./Diag. 0.40E+00    9.4     1.74281247     -1076.4144881212 -2.53E+00
    55 Broy./Diag. 0.40E+00    9.3     1.81904021     -1076.6815745148 -2.67E-01
    56 Broy./Diag. 0.40E+00    9.1     1.80949527     -1080.8272798823 -4.15E+00
    57 Broy./Diag. 0.40E+00    9.2     1.80566562     -1073.6617963999  7.17E+00
    58 Broy./Diag. 0.40E+00    9.6     1.79184544     -1080.4413436572 -6.78E+00
    59 Broy./Diag. 0.40E+00    9.6     1.65286075     -1078.9772646315  1.46E+00
    60 Broy./Diag. 0.40E+00    9.5     1.77957709     -1077.6528485896  1.32E+00
    61 Broy./Diag. 0.40E+00    9.5     1.80133168     -1076.8822078575  7.71E-01
    62 Broy./Diag. 0.40E+00    9.5     1.79185580     -1074.8687339255  2.01E+00
    63 Broy./Diag. 0.40E+00    9.5     1.80188347     -1074.4341596873  4.35E-01
    64 Broy./Diag. 0.40E+00    9.5     1.82386914     -1078.3717071347 -3.94E+00
    65 Broy./Diag. 0.40E+00    9.6     1.83653064     -1078.4604764068 -8.88E-02
    66 Broy./Diag. 0.40E+00    9.5     1.69075564     -1076.6386551546  1.82E+00
    67 Broy./Diag. 0.40E+00    9.6     1.82417036     -1071.7216527817  4.92E+00
    68 Broy./Diag. 0.40E+00    9.4     1.78129646     -1080.0490358321 -8.33E+00
    69 Broy./Diag. 0.40E+00    9.5     1.08552799     -1074.2203533322  5.83E+00
    70 Broy./Diag. 0.40E+00    9.3     1.11845033     -1076.9777599693 -2.76E+00
    71 Broy./Diag. 0.40E+00    9.2     1.76316964     -1074.6996089344  2.28E+00
    72 Broy./Diag. 0.40E+00    9.6     1.76092874     -1078.9183281149 -4.22E+00
    73 Broy./Diag. 0.40E+00    9.6     0.21360615     -1074.7217381574  4.20E+00
    74 Broy./Diag. 0.40E+00    9.4     1.78258051     -1074.5585533083  1.63E-01
    75 Broy./Diag. 0.40E+00    9.5     1.81284452     -1078.0459136197 -3.49E+00
    76 Broy./Diag. 0.40E+00    9.5     1.78615693     -1081.8725660855 -3.83E+00
    77 Broy./Diag. 0.40E+00    9.5     1.80991585     -1076.2662520839  5.61E+00
    78 Broy./Diag. 0.40E+00    9.6     1.81998020     -1080.6057944822 -4.34E+00
    79 Broy./Diag. 0.40E+00    9.5     1.80434376     -1077.0973343549  3.51E+00
    80 Broy./Diag. 0.40E+00    9.4     1.80365927     -1078.2361649635 -1.14E+00
    81 Broy./Diag. 0.40E+00   10.0     1.71233392     -1078.0175715253  2.19E-01
    82 Broy./Diag. 0.40E+00    9.8     0.77574144     -1074.4999255669  3.52E+00
    83 Broy./Diag. 0.40E+00    9.4     1.58487694     -1076.0838670177 -1.58E+00
    84 Broy./Diag. 0.40E+00    9.4     1.78493354     -1077.2297437494 -1.15E+00
    85 Broy./Diag. 0.40E+00    9.5     1.78760964     -1074.1511381901  3.08E+00
    86 Broy./Diag. 0.40E+00    9.5     1.80151310     -1079.9435441288 -5.79E+00
    87 Broy./Diag. 0.40E+00    9.3     1.80600513     -1077.9410651086  2.00E+00
    88 Broy./Diag. 0.40E+00    9.0     1.80362540     -1079.5816279594 -1.64E+00
    89 Broy./Diag. 0.40E+00    9.0     1.54368150     -1074.4356435232  5.15E+00
    90 Broy./Diag. 0.40E+00    9.6     1.77957463     -1076.6756607438 -2.24E+00
    91 Broy./Diag. 0.40E+00    9.5     1.79615051     -1077.6701785177 -9.95E-01
    92 Broy./Diag. 0.40E+00    9.5     1.56301993     -1079.0763000087 -1.41E+00
    93 Broy./Diag. 0.40E+00    9.3     0.95179320     -1075.9367573606  3.14E+00
    94 Broy./Diag. 0.40E+00    9.3     1.37461668     -1073.3185701116  2.62E+00
    95 Broy./Diag. 0.40E+00    9.3     1.76340588     -1076.7745240794 -3.46E+00
    96 Broy./Diag. 0.40E+00    9.5     1.78549951     -1078.7968805652 -2.02E+00
    97 Broy./Diag. 0.40E+00    9.2     1.79765551     -1074.4454980695  4.35E+00
    98 Broy./Diag. 0.40E+00    9.0     1.82095479     -1079.7517792324 -5.31E+00
    99 Broy./Diag. 0.40E+00    9.1     1.70202871     -1079.4229877814  3.29E-01
   100 Broy./Diag. 0.40E+00    9.6     1.81468332     -1079.3981773262  2.48E-02
   101 Broy./Diag. 0.40E+00    9.6     1.55243470     -1078.3323927434  1.07E+00
   102 Broy./Diag. 0.40E+00    9.5     1.75967841     -1073.9136163057  4.42E+00
   103 Broy./Diag. 0.40E+00    9.3     1.81808504     -1078.7141059443 -4.80E+00
   104 Broy./Diag. 0.40E+00    9.2     1.80088704     -1077.1243098433  1.59E+00
   105 Broy./Diag. 0.40E+00    9.4     1.82106674     -1076.4401892247  6.84E-01
   106 Broy./Diag. 0.40E+00   10.1     1.82188465     -1074.1117701583  2.33E+00
   107 Broy./Diag. 0.40E+00    9.4     1.81450867     -1077.7493720736 -3.64E+00
   108 Broy./Diag. 0.40E+00    9.4     0.86457356     -1076.9007060845  8.49E-01
   109 Broy./Diag. 0.40E+00    9.3     1.79032182     -1078.3586934989 -1.46E+00
   110 Broy./Diag. 0.40E+00    9.5     1.50337836     -1076.3957211553  1.96E+00
   111 Broy./Diag. 0.40E+00    9.2     1.59309850     -1076.2308622375  1.65E-01
   112 Broy./Diag. 0.40E+00    9.6     1.53552762     -1075.4687182750  7.62E-01
   113 Broy./Diag. 0.40E+00    9.5     1.54122542     -1075.5876687678 -1.19E-01
   114 Broy./Diag. 0.40E+00    9.4     1.58461695     -1073.5445355008  2.04E+00
   115 Broy./Diag. 0.40E+00    9.6     1.78977044     -1078.7048146939 -5.16E+00
   116 Broy./Diag. 0.40E+00    9.7     1.81629374     -1079.7592541659 -1.05E+00
   117 Broy./Diag. 0.40E+00    9.5     1.84865160     -1080.3432479308 -5.84E-01
   118 Broy./Diag. 0.40E+00    9.3     0.60711758     -1073.3483846611  6.99E+00
   119 Broy./Diag. 0.40E+00    9.1     0.29416200     -1075.0893819062 -1.74E+00
   120 Broy./Diag. 0.40E+00    9.2     1.61003747     -1074.9385319612  1.51E-01
   121 Broy./Diag. 0.40E+00    9.5     1.64911647     -1076.6541375105 -1.72E+00
   122 Broy./Diag. 0.40E+00    9.6     1.80294396     -1077.2029364119 -5.49E-01
   123 Broy./Diag. 0.40E+00    9.6     1.82357416     -1078.7345574995 -1.53E+00
   124 Broy./Diag. 0.40E+00    9.4     1.81868405     -1076.9868535841  1.75E+00
   125 Broy./Diag. 0.40E+00    9.6     1.80640955     -1079.0816522985 -2.09E+00
   126 Broy./Diag. 0.40E+00    9.6     1.80575778     -1077.4663460665  1.62E+00
   127 Broy./Diag. 0.40E+00    9.3     1.84984197     -1077.4257480004  4.06E-02
   128 Broy./Diag. 0.40E+00    9.1     1.82764582     -1072.0459088011  5.38E+00
   129 Broy./Diag. 0.40E+00    9.5     1.79548461     -1081.5285364124 -9.48E+00
   130 Broy./Diag. 0.40E+00    9.5     1.56661201     -1074.4063894059  7.12E+00
   131 Broy./Diag. 0.40E+00    9.6     1.59943092     -1077.2083371692 -2.80E+00
   132 Broy./Diag. 0.40E+00    9.3     1.77553867     -1074.0534841686  3.15E+00
   133 Broy./Diag. 0.40E+00    8.9     1.76768598     -1077.8999510499 -3.85E+00
   134 Broy./Diag. 0.40E+00    9.0     1.61462124     -1075.1901566688  2.71E+00
   135 Broy./Diag. 0.40E+00    8.7     1.66168546     -1076.1728952430 -9.83E-01
   136 Broy./Diag. 0.40E+00    8.9     1.76961482     -1076.1927475424 -1.99E-02
   137 Broy./Diag. 0.40E+00    9.5     1.79285520     -1076.6167216287 -4.24E-01
   138 Broy./Diag. 0.40E+00    9.7     1.82431284     -1076.2072606024  4.09E-01
   139 Broy./Diag. 0.40E+00    9.5     1.67220281     -1079.1593529033 -2.95E+00
   140 Broy./Diag. 0.40E+00    9.3     1.55115924     -1075.9049038797  3.25E+00
   141 Broy./Diag. 0.40E+00    9.0     1.81809281     -1074.0589219957  1.85E+00
   142 Broy./Diag. 0.40E+00    9.5     1.82343139     -1079.4007204711 -5.34E+00
   143 Broy./Diag. 0.40E+00    9.4     1.77934528     -1078.5559711467  8.45E-01
   144 Broy./Diag. 0.40E+00    9.6     1.79496776     -1074.1532310090  4.40E+00
   145 Broy./Diag. 0.40E+00    9.6     1.80899247     -1079.0237292737 -4.87E+00
   146 Broy./Diag. 0.40E+00    9.3     1.50101332     -1075.8353945352  3.19E+00
   147 Broy./Diag. 0.40E+00    9.3     1.63334640     -1075.9766943810 -1.41E-01
   148 Broy./Diag. 0.40E+00    9.2     1.78093800     -1074.6335334742  1.34E+00
   149 Broy./Diag. 0.40E+00    9.2     1.79238110     -1075.8781911490 -1.24E+00
   150 Broy./Diag. 0.40E+00    9.5     1.52820691     -1077.2245931391 -1.35E+00
   151 Broy./Diag. 0.40E+00    9.3     1.47086399     -1076.1177928871  1.11E+00
   152 Broy./Diag. 0.40E+00    9.5     1.77985338     -1076.8826885817 -7.65E-01
   153 Broy./Diag. 0.40E+00    9.4     1.78016005     -1076.6149311871  2.68E-01
   154 Broy./Diag. 0.40E+00    9.4     1.63661002     -1077.2926413898 -6.78E-01
   155 Broy./Diag. 0.40E+00    9.2     0.96014794     -1075.6598599325  1.63E+00
   156 Broy./Diag. 0.40E+00    9.3     1.68963029     -1075.9671891519 -3.07E-01
   157 Broy./Diag. 0.40E+00    9.5     1.73475840     -1076.9565814846 -9.89E-01
   158 Broy./Diag. 0.40E+00    9.3     1.80654532     -1076.1489928433  8.08E-01
   159 Broy./Diag. 0.40E+00    9.6     1.80991902     -1078.7775797391 -2.63E+00
   160 Broy./Diag. 0.40E+00    9.5     1.69375574     -1075.0847679275  3.69E+00
   161 Broy./Diag. 0.40E+00    9.4     1.78532509     -1074.1686673791  9.16E-01
   162 Broy./Diag. 0.40E+00    9.9     1.81707853     -1081.9630362963 -7.79E+00
   163 Broy./Diag. 0.40E+00    9.6     1.81130076     -1077.0330078192  4.93E+00
   164 Broy./Diag. 0.40E+00    9.7     1.82843825     -1076.0765465293  9.56E-01
   165 Broy./Diag. 0.40E+00    9.6     1.82279485     -1077.8161884456 -1.74E+00
   166 Broy./Diag. 0.40E+00    9.4     1.79369602     -1077.4773992426  3.39E-01
   167 Broy./Diag. 0.40E+00    9.5     1.66613741     -1078.9019053750 -1.42E+00
   168 Broy./Diag. 0.40E+00    9.7     1.56507050     -1075.4262676086  3.48E+00
   169 Broy./Diag. 0.40E+00    9.5     1.77403343     -1075.3546955095  7.16E-02
   170 Broy./Diag. 0.40E+00    9.5     1.80521355     -1076.9511847645 -1.60E+00
   171 Broy./Diag. 0.40E+00    9.4     1.72012084     -1077.9909149064 -1.04E+00
   172 Broy./Diag. 0.40E+00    9.6     1.56608845     -1076.7840319930  1.21E+00
   173 Broy./Diag. 0.40E+00    9.5     1.63909978     -1074.7910388914  1.99E+00
   174 Broy./Diag. 0.40E+00    9.2     1.21917952     -1073.1267705749  1.66E+00
   175 Broy./Diag. 0.40E+00    9.1     0.88541691     -1079.3566107107 -6.23E+00
   176 Broy./Diag. 0.40E+00    9.6     0.24516363     -1076.3549542652  3.00E+00
   177 Broy./Diag. 0.40E+00    9.6     1.06702536     -1075.2552526745  1.10E+00
   178 Broy./Diag. 0.40E+00    9.5     1.11089225     -1076.2955580223 -1.04E+00
   179 Broy./Diag. 0.40E+00    9.5     1.79914627     -1075.1707220652  1.12E+00
   180 Broy./Diag. 0.40E+00    9.3     1.85425845     -1079.7763237789 -4.61E+00
   181 Broy./Diag. 0.40E+00    9.6     1.82275450     -1079.2393049478  5.37E-01
   182 Broy./Diag. 0.40E+00    9.5     1.68663698     -1077.5666196549  1.67E+00
   183 Broy./Diag. 0.40E+00    9.6     1.77969867     -1076.2726324592  1.29E+00
   184 Broy./Diag. 0.40E+00    9.6     1.81004858     -1075.0989305331  1.17E+00
   185 Broy./Diag. 0.40E+00    9.5     1.65028303     -1075.6353238844 -5.36E-01
   186 Broy./Diag. 0.40E+00    9.4     1.38127735     -1075.2535803271  3.82E-01
   187 Broy./Diag. 0.40E+00    9.3     1.48551188     -1073.4766639590  1.78E+00
   188 Broy./Diag. 0.40E+00    9.7     1.76450127     -1078.4821348758 -5.01E+00
   189 Broy./Diag. 0.40E+00    9.4     1.79252151     -1079.1083851491 -6.26E-01
   190 Broy./Diag. 0.40E+00    9.3     1.80597787     -1079.9861163101 -8.78E-01
   191 Broy./Diag. 0.40E+00    9.3     1.59903402     -1074.4973884063  5.49E+00
   192 Broy./Diag. 0.40E+00    8.9     1.62440843     -1079.9764437533 -5.48E+00
   193 Broy./Diag. 0.40E+00    9.4     1.54678924     -1075.6056944353  4.37E+00
   194 Broy./Diag. 0.40E+00    9.7     1.60230324     -1075.7942753927 -1.89E-01
   195 Broy./Diag. 0.40E+00    9.3     1.63366733     -1076.2332796170 -4.39E-01
   196 Broy./Diag. 0.40E+00    9.0     1.80121590     -1077.5329771773 -1.30E+00
   197 Broy./Diag. 0.40E+00    9.3     1.80199415     -1077.4939208903  3.91E-02
   198 Broy./Diag. 0.40E+00    9.1     1.78927639     -1076.2312274681  1.26E+00
   199 Broy./Diag. 0.40E+00    9.5     1.68265078     -1080.6276712070 -4.40E+00
   200 Broy./Diag. 0.40E+00    9.6     1.80630994     -1075.0880897468  5.54E+00
   201 Broy./Diag. 0.40E+00    9.6     1.81797111     -1076.2382647926 -1.15E+00
   202 Broy./Diag. 0.40E+00    9.4     1.72500258     -1074.1413933331  2.10E+00
   203 Broy./Diag. 0.40E+00    9.4     1.72983066     -1079.5641382118 -5.42E+00
   204 Broy./Diag. 0.40E+00    9.3     1.53026665     -1078.4422268999  1.12E+00
   205 Broy./Diag. 0.40E+00    9.5     1.62028401     -1075.5457541218  2.90E+00
   206 Broy./Diag. 0.40E+00    9.4     1.56583312     -1075.2434328092  3.02E-01
   207 Broy./Diag. 0.40E+00    9.6     1.43297139     -1075.1855354600  5.79E-02
   208 Broy./Diag. 0.40E+00    9.4     1.76914850     -1073.5231814975  1.66E+00
   209 Broy./Diag. 0.40E+00    9.5     1.77756576     -1080.9775311349 -7.45E+00
   210 Broy./Diag. 0.40E+00    9.4     1.79427059     -1075.5711391044  5.41E+00
   211 Broy./Diag. 0.40E+00    9.4     1.82582441     -1077.7146785947 -2.14E+00
   212 Broy./Diag. 0.40E+00    9.7     1.81447082     -1077.3739094879  3.41E-01
   213 Broy./Diag. 0.40E+00    9.4     1.61033949     -1073.9693471119  3.40E+00
   214 Broy./Diag. 0.40E+00    9.3     1.64944609     -1079.3357844808 -5.37E+00
   215 Broy./Diag. 0.40E+00    9.5     1.80752410     -1078.9531611778  3.83E-01
   216 Broy./Diag. 0.40E+00    9.3     1.81817967     -1076.0522126432  2.90E+00
   217 Broy./Diag. 0.40E+00    9.2     1.72912209     -1077.2126584500 -1.16E+00
   218 Broy./Diag. 0.40E+00    9.5     1.81274370     -1075.2558095296  1.96E+00
   219 Broy./Diag. 0.40E+00    9.7     1.68642724     -1076.8470780981 -1.59E+00
   220 Broy./Diag. 0.40E+00    9.3     1.77813145     -1073.2286692152  3.62E+00
   221 Broy./Diag. 0.40E+00    9.6     1.79345230     -1078.0604630324 -4.83E+00
   222 Broy./Diag. 0.40E+00    9.4     1.79037391     -1078.6163513557 -5.56E-01
   223 Broy./Diag. 0.40E+00    9.4     1.57395305     -1077.5143797715  1.10E+00
   224 Broy./Diag. 0.40E+00    9.0     1.52741116     -1076.1449127252  1.37E+00
   225 Broy./Diag. 0.40E+00    9.1     1.80730708     -1074.1153859391  2.03E+00
   226 Broy./Diag. 0.40E+00    9.6     1.83607716     -1080.9884662962 -6.87E+00
   227 Broy./Diag. 0.40E+00    9.6     1.80177355     -1077.7850396865  3.20E+00
   228 Broy./Diag. 0.40E+00    9.5     1.67647285     -1076.7883693609  9.97E-01
   229 Broy./Diag. 0.40E+00    9.5     1.68126078     -1075.7500245461  1.04E+00
   230 Broy./Diag. 0.40E+00    9.3     0.67583839     -1073.3321789163  2.42E+00
   231 Broy./Diag. 0.40E+00    9.7     1.77259585     -1076.4776567204 -3.15E+00
   232 Broy./Diag. 0.40E+00    9.4     1.80740771     -1076.7651321123 -2.87E-01
   233 Broy./Diag. 0.40E+00    9.0     1.70794762     -1078.0444842400 -1.28E+00
   234 Broy./Diag. 0.40E+00    8.9     1.14113242     -1077.9472783974  9.72E-02
   235 Broy./Diag. 0.40E+00    9.6     1.79824428     -1074.4428390818  3.50E+00
   236 Broy./Diag. 0.40E+00    9.4     1.84073212     -1078.0335110764 -3.59E+00
   237 Broy./Diag. 0.40E+00    9.3     1.81146706     -1079.6559669138 -1.62E+00
   238 Broy./Diag. 0.40E+00    9.0     1.70769319     -1076.4269318680  3.23E+00
   239 Broy./Diag. 0.40E+00    9.1     1.70910145     -1076.0680973689  3.59E-01
   240 Broy./Diag. 0.40E+00    9.5     1.55730608     -1075.1548056156  9.13E-01
   241 Broy./Diag. 0.40E+00    9.4     1.79802709     -1072.8077232153  2.35E+00
   242 Broy./Diag. 0.40E+00    9.3     1.79999939     -1080.6697309828 -7.86E+00
   243 Broy./Diag. 0.40E+00    9.6     1.71408801     -1080.9118841181 -2.42E-01
   244 Broy./Diag. 0.40E+00    9.4     1.47234519     -1076.8719662734  4.04E+00
   245 Broy./Diag. 0.40E+00    9.4     1.53780125     -1075.3786759420  1.49E+00
   246 Broy./Diag. 0.40E+00    9.2     1.80659614     -1073.4006648004  1.98E+00
   247 Broy./Diag. 0.40E+00    9.3     1.81087452     -1079.0426629716 -5.64E+00
   248 Broy./Diag. 0.40E+00    9.7     1.80670441     -1078.3063948843  7.36E-01
   249 Broy./Diag. 0.40E+00    9.4     1.80592978     -1077.5823248818  7.24E-01
   250 Broy./Diag. 0.40E+00    9.6     1.56937625     -1076.2633290407  1.32E+00
   251 Broy./Diag. 0.40E+00    9.6     1.22833284     -1075.7632864525  5.00E-01
   252 Broy./Diag. 0.40E+00    9.5     1.57811482     -1076.9593909525 -1.20E+00
   253 Broy./Diag. 0.40E+00    9.4     1.16566178     -1076.6971499980  2.62E-01
   254 Broy./Diag. 0.40E+00    9.5     0.57552354     -1074.1825338812  2.51E+00
   255 Broy./Diag. 0.40E+00    9.4     1.58589444     -1076.0904988499 -1.91E+00
   256 Broy./Diag. 0.40E+00    9.6     1.66731984     -1078.1998826101 -2.11E+00
   257 Broy./Diag. 0.40E+00    9.4     1.77554082     -1076.4404411409  1.76E+00
   258 Broy./Diag. 0.40E+00    9.5     1.81996960     -1076.5345304847 -9.41E-02
   259 Broy./Diag. 0.40E+00    9.7     1.66827635     -1081.1294614423 -4.59E+00
   260 Broy./Diag. 0.40E+00    9.5     1.81010820     -1076.0366047879  5.09E+00
   261 Broy./Diag. 0.40E+00    9.4     1.79698363     -1074.6691584623  1.37E+00
   262 Broy./Diag. 0.40E+00    9.3     1.76318649     -1081.4423508397 -6.77E+00
   263 Broy./Diag. 0.40E+00    9.6     1.14818470     -1078.1123869144  3.33E+00
   264 Broy./Diag. 0.40E+00    9.7     1.59962307     -1074.1152236916  4.00E+00
   265 Broy./Diag. 0.40E+00    9.5     1.54666101     -1079.3330876065 -5.22E+00
   266 Broy./Diag. 0.40E+00    9.3     1.79048484     -1075.1183372858  4.21E+00
   267 Broy./Diag. 0.40E+00    9.5     1.79918653     -1078.0479753012 -2.93E+00
   268 Broy./Diag. 0.40E+00    9.6     1.54503351     -1075.8660995124  2.18E+00
   269 Broy./Diag. 0.40E+00    9.3     1.81972836     -1075.5238157277  3.42E-01
   270 Broy./Diag. 0.40E+00   10.2     1.84054211     -1077.9785793348 -2.45E+00
   271 Broy./Diag. 0.40E+00    9.4     1.68895672     -1075.3315323804  2.65E+00
   272 Broy./Diag. 0.40E+00    9.5     1.61018266     -1073.5984443119  1.73E+00
   273 Broy./Diag. 0.40E+00    9.4     1.63467754     -1078.2199083831 -4.62E+00
   274 Broy./Diag. 0.40E+00    9.5     1.47096193     -1074.3350348960  3.88E+00
   275 Broy./Diag. 0.40E+00    9.5     1.76924654     -1077.2519200844 -2.92E+00
   276 Broy./Diag. 0.40E+00    9.2     1.73433311     -1077.0874857179  1.64E-01
   277 Broy./Diag. 0.40E+00    9.5     1.79554298     -1079.7404682269 -2.65E+00
   278 Broy./Diag. 0.40E+00    9.4     1.80295592     -1077.3988275796  2.34E+00
   279 Broy./Diag. 0.40E+00    9.5     1.58806453     -1080.3746097999 -2.98E+00
   280 Broy./Diag. 0.40E+00    9.4     1.13775417     -1075.9067663329  4.47E+00
   281 Broy./Diag. 0.40E+00    9.2     1.80176775     -1077.8546857899 -1.95E+00
   282 Broy./Diag. 0.40E+00    8.8     1.66407478     -1075.2717763517  2.58E+00
   283 Broy./Diag. 0.40E+00    8.9     1.70012773     -1077.6912135199 -2.42E+00
   284 Broy./Diag. 0.40E+00    8.7     1.81483011     -1074.1718331964  3.52E+00
   285 Broy./Diag. 0.40E+00    9.0     1.80103775     -1080.5374546913 -6.37E+00
   286 Broy./Diag. 0.40E+00    9.5     1.63240292     -1077.6382767559  2.90E+00
   287 Broy./Diag. 0.40E+00    9.5     1.46450831     -1075.0273103930  2.61E+00
   288 Broy./Diag. 0.40E+00    9.6     1.54779006     -1078.9256864061 -3.90E+00
   289 Broy./Diag. 0.40E+00    9.6     1.75116991     -1077.1621509605  1.76E+00
   290 Broy./Diag. 0.40E+00    9.4     1.79798609     -1076.0522868887  1.11E+00
   291 Broy./Diag. 0.40E+00    9.5     1.80988167     -1078.3428206311 -2.29E+00
   292 Broy./Diag. 0.40E+00    9.6     1.55673720     -1074.3733954892  3.97E+00
   293 Broy./Diag. 0.40E+00    9.4     1.81063011     -1078.2246698070 -3.85E+00
   294 Broy./Diag. 0.40E+00    9.6     1.81758524     -1077.9753549624  2.49E-01
   295 Broy./Diag. 0.40E+00   10.1     1.78682603     -1076.2660056465  1.71E+00
   296 Broy./Diag. 0.40E+00    9.5     1.79803477     -1079.0762875310 -2.81E+00
   297 Broy./Diag. 0.40E+00    9.3     1.17600950     -1075.8414729295  3.23E+00
   298 Broy./Diag. 0.40E+00    9.7     1.78674263     -1073.5735933298  2.27E+00
   299 Broy./Diag. 0.40E+00    9.3     1.81109558     -1079.2502992595 -5.68E+00
   300 Broy./Diag. 0.40E+00    9.5     1.67392926     -1076.6128334783  2.64E+00

  Leaving inner SCF loop after reaching   300 steps.


  Electronic density on regular grids:       -511.9998167378        0.0001832622
  Core density on regular grids:              512.0004556554        0.0004556554
  Total charge density on r-space grids:        0.0006389176
  Total charge density g-space grids:           0.0006389176

  Overlap energy of the core charge distribution:               0.00000000000000
  Self energy of the core charge distribution:              -2838.21791979120962
  Core Hamiltonian energy:                                    760.32814672806887
  Hartree energy:                                            1240.16043558764591
  Exchange-correlation energy:                               -238.88349600276612

  Total energy:                                             -1076.61283347826088

 *** WARNING in qs_scf.F:542 :: SCF run NOT converged ***


 ENERGY| Total FORCE_EVAL ( QS ) energy (a.u.):            -1074.139035483067573


 ATOMIC FORCES in [a.u.]

 # Atom   Kind   Element          X              Y              Z
      1      1      O          -0.07211527     0.06511302    -0.12614402
      2      2      H           0.00608733    -0.06022233     0.06777607
      3      2      H           0.01831330     0.02783058     0.00279872
      4      1      O          -0.10821990    -0.10960842     0.00170651
      5      2      H           0.02001873     0.02257465    -0.05957851
      6      2      H           0.03068616    -0.03122048     0.04147185
      7      1      O           0.00895293     0.02260517     0.02681736
      8      2      H          -0.01103399     0.08608126     0.05632105
      9      2      H          -0.02401884    -0.00280718     0.04047579
     10      1      O           0.02487080    -0.05906254     0.10376852
     11      2      H           0.04392869     0.07461044    -0.08908905
     12      2      H          -0.03492102    -0.10542342    -0.07943078
     13      1      O           0.09416796     0.09136968     0.08467909
     14      2      H           0.05224925    -0.01994000     0.07194534
     15      2      H          -0.04881702     0.01324919     0.01628687
     16      1      O           0.14745239     0.01679818    -0.04892637
     17      2      H          -0.02412393     0.02224478     0.10231598
     18      2      H          -0.04360810    -0.07716204    -0.01959918
     19      1      O           0.09410480     0.01628543    -0.01523345
     20      2      H          -0.06878454    -0.04821687    -0.01319754
     21      2      H           0.07155770    -0.03336969    -0.04783798
     22      1      O          -0.02619897     0.03090183    -0.12010349
     23      2      H          -0.05821218    -0.08333848    -0.02079157
     24      2      H          -0.03401469     0.00621786     0.12746869
     25      1      O           0.14933784    -0.03525880    -0.08923941
     26      2      H          -0.05185025     0.04098394    -0.05627544
     27      2      H          -0.11700397     0.04851083     0.09814053
     28      1      O          -0.14175991    -0.11760976     0.02516604
     29      2      H          -0.00705427    -0.01051845    -0.08149704
     30      2      H          -0.01234201     0.01467837     0.02418272
     31      1      O           0.05546753     0.12218872     0.09088456
     32      2      H          -0.20678364     0.02307641    -0.08183766
     33      2      H           0.09178835    -0.16569550    -0.08863887
     34      1      O          -0.04399818    -0.05824022     0.02018759
     35      2      H          -0.01332354     0.04715025    -0.05559360
     36      2      H          -0.08453200    -0.02803366     0.02949425
     37      1      O          -0.01743268     0.01746151     0.14993520
     38      2      H           0.00343935     0.04797136    -0.07288781
     39      2      H          -0.09293297    -0.07875422    -0.03737511
     40      1      O          -0.12515776     0.06786657    -0.14527297
     41      2      H           0.03105929    -0.03429064     0.03483545
     42      2      H           0.07023282     0.01997222    -0.00082033
     43      1      O           0.07547164     0.12268125    -0.09084311
     44      2      H           0.02927359     0.00357002     0.10969474
     45      2      H          -0.08977173    -0.05058288    -0.05980110
     46      1      O           0.08175196    -0.06611465    -0.11406219
     47      2      H          -0.08197796     0.06437811    -0.05677211
     48      2      H          -0.04526049    -0.10543874     0.06498162
     49      1      O           0.16369783    -0.01589388    -0.09277476
     50      2      H          -0.09989673    -0.04628550    -0.02285819
     51      2      H           0.02980507     0.04892511     0.09452712
     52      1      O           0.08368251     0.09321520     0.03243826
     53      2      H          -0.02921917    -0.03691921    -0.04225270
     54      2      H          -0.04144975    -0.02091898     0.00512963
     55      1      O           0.08407524     0.02451046    -0.01569454
     56      2      H          -0.00865966    -0.01285977     0.06202272
     57      2      H           0.00926301     0.09245504     0.04844859
     58      1      O           0.07915178    -0.11941249    -0.02635341
     59      2      H          -0.06192717     0.07842030    -0.03178708
     60      2      H           0.03446160     0.04605601     0.01589215
     61      1      O           0.06810765     0.12819256    -0.10488914
     62      2      H           0.00247439    -0.08804583     0.00452503
     63      2      H          -0.02815202    -0.00136137    -0.03360957
     64      1      O           0.17467659     0.06939294    -0.10178249
     65      2      H          -0.07678476    -0.04333532     0.07394839
     66      2      H          -0.08358952    -0.00187983    -0.00200308
     67      1      O          -0.11181263     0.02525158     0.01795305
     68      2      H           0.03283392    -0.05838111     0.05262914
     69      2      H          -0.00355199    -0.00488522    -0.05217910
     70      1      O          -0.07999895    -0.08946620    -0.01455911
     71      2      H          -0.08491226     0.01903672     0.00054832
     72      2      H           0.08604032     0.06228049    -0.06277015
     73      1      O           0.09540674     0.04334299    -0.06620850
     74      2      H           0.02587229    -0.06740186    -0.08988360
     75      2      H          -0.03956124    -0.11504316     0.00940340
     76      1      O          -0.06776970    -0.01936606    -0.04328923
     77      2      H           0.05301275    -0.06834441    -0.06482236
     78      2      H          -0.02902123    -0.03956780    -0.04058707
     79      1      O           0.02499490     0.00347004    -0.06356010
     80      2      H           0.03680627     0.05180158    -0.03181797
     81      2      H          -0.09561845    -0.01154926    -0.00206883
     82      1      O           0.13309630    -0.09457408     0.01396707
     83      2      H          -0.07076028    -0.00005759     0.01778662
     84      2      H          -0.06748763    -0.06163762    -0.04252604
     85      1      O          -0.02304598     0.13160177    -0.15686202
     86      2      H           0.02378233    -0.06431350     0.13319101
     87      2      H          -0.04516399    -0.10142109    -0.05486445
     88      1      O           0.07341799     0.11067540    -0.06269263
     89      2      H          -0.02120875    -0.07401645    -0.02293200
     90      2      H          -0.04237862     0.07119013    -0.00616291
     91      1      O           0.00619298    -0.13590772    -0.00106460
     92      2      H           0.08063119     0.02097014    -0.02512024
     93      2      H          -0.04206505     0.01335384    -0.10085619
     94      1      O          -0.08945384     0.12141101     0.03069870
     95      2      H           0.04968077     0.07388722    -0.02484513
     96      2      H          -0.02649006    -0.08418917     0.02935354
     97      1      O           0.10662360    -0.16053481     0.02158878
     98      2      H          -0.00630565     0.03002764    -0.02297621
     99      2      H           0.01772478     0.03705953    -0.01056810
    100      1      O          -0.06160792    -0.01002346    -0.15552405
    101      2      H           0.11804729    -0.02310361    -0.04292029
    102      2      H          -0.03554511    -0.03364488     0.08191358
    103      1      O           0.01170225    -0.14793854     0.07407073
    104      2      H          -0.04083407     0.02275307    -0.02255689
    105      2      H           0.02917839     0.03150035     0.08090290
    106      1      O           0.02429044     0.11047919    -0.07430566
    107      2      H           0.02416522    -0.06874198    -0.04482328
    108      2      H          -0.08464985     0.05281337     0.00314655
    109      1      O          -0.05431962    -0.02081164     0.06326771
    110      2      H           0.05141672     0.07041634    -0.03763236
    111      2      H          -0.09503260     0.04608885    -0.08247794
    112      1      O          -0.03849306    -0.05352980     0.05439747
    113      2      H           0.10466294     0.05723797     0.02031253
    114      2      H          -0.01732040     0.01570640    -0.04943568
    115      1      O           0.17482761    -0.09567199     0.05158096
    116      2      H          -0.00296354     0.04771839    -0.05624129
    117      2      H          -0.05166916     0.05007243     0.04051786
    118      1      O          -0.10141692     0.04836592    -0.14857195
    119      2      H           0.06289323    -0.08529053     0.00962140
    120      2      H          -0.07081394    -0.01473432     0.07849163
    121      1      O          -0.15243685     0.13033760    -0.00640980
    122      2      H           0.03470567    -0.02510259     0.06536913
    123      2      H           0.06301693    -0.01541853     0.00326815
    124      1      O          -0.00241487     0.02804017     0.04645654
    125      2      H           0.08132551    -0.01337652    -0.01983670
    126      2      H          -0.04310252    -0.02391269    -0.06728205
    127      1      O          -0.10815358     0.05739107     0.15778594
    128      2      H          -0.01475928     0.10488872     0.01139330
    129      2      H           0.05834419    -0.09606417    -0.07868335
    130      1      O          -0.03850636    -0.06563083     0.12342867
    131      2      H          -0.01814064    -0.06101234    -0.05182273
    132      2      H          -0.04610650     0.08230753    -0.01220928
    133      1      O          -0.01376762    -0.12453013     0.09411644
    134      2      H          -0.01481022    -0.00337728     0.03235157
    135      2      H          -0.04861646    -0.01239281    -0.04369894
    136      1      O           0.07286588     0.04625768    -0.01496110
    137      2      H           0.06523230    -0.07148021     0.04473818
    138      2      H          -0.00362055    -0.02700506    -0.01159931
    139      1      O           0.10577345     0.08132987    -0.14998340
    140      2      H          -0.01058685    -0.02816396     0.04430523
    141      2      H          -0.05442482    -0.03474369    -0.03659805
    142      1      O          -0.06568664     0.04856706    -0.11784204
    143      2      H          -0.02157404    -0.01185302     0.06947258
    144      2      H           0.02540904    -0.09022787    -0.05395491
    145      1      O           0.10290123     0.06806253    -0.08510280
    146      2      H          -0.00361042    -0.10889910    -0.00660130
    147      2      H           0.00483040     0.03870527     0.06348802
    148      1      O           0.01455215    -0.03424030    -0.11313356
    149      2      H          -0.03807414     0.03618883     0.09966422
    150      2      H           0.10429042     0.02207384    -0.05484709
    151      1      O           0.06685966    -0.08155581    -0.11686890
    152      2      H          -0.03199414    -0.04606758    -0.04453669
    153      2      H          -0.01360955     0.00810329    -0.02887400
    154      1      O           0.05642036    -0.10873034     0.09740694
    155      2      H          -0.04530881    -0.05041758    -0.06945714
    156      2      H          -0.00225248     0.08392801     0.02742996
    157      1      O           0.11047535    -0.02720833     0.13591591
    158      2      H          -0.01417227     0.12824393    -0.00713228
    159      2      H          -0.00053106    -0.08106500     0.01072564
    160      1      O           0.08506828    -0.12491318     0.12020750
    161      2      H           0.01334633     0.10886817    -0.04717423
    162      2      H          -0.13063657    -0.01365768    -0.03009348
    163      1      O          -0.07293955    -0.02486673    -0.16272358
    164      2      H          -0.04147345     0.07388180     0.00345107
    165      2      H           0.04438137     0.01152173     0.10084603
    166      1      O           0.13430743    -0.10869156     0.01227074
    167      2      H          -0.00258024     0.02042465     0.05204135
    168      2      H          -0.08463409     0.01560474    -0.02901406
    169      1      O          -0.05950639     0.01270701    -0.16211341
    170      2      H          -0.01862500    -0.04875045     0.06446942
    171      2      H          -0.05362616     0.03137333    -0.00294533
    172      1      O          -0.12690375    -0.01963197    -0.00152314
    173      2      H           0.02189579    -0.06214317    -0.02419420
    174      2      H           0.07059750     0.04450354     0.00630445
    175      1      O           0.04899671    -0.07648574     0.00959574
    176      2      H          -0.05645315     0.02501751     0.12368879
    177      2      H          -0.07292193     0.02902116    -0.04341848
    178      1      O          -0.00758560    -0.15006634    -0.06102154
    179      2      H           0.03346816    -0.04331730    -0.05033272
    180      2      H          -0.00179402     0.03484566     0.04296542
    181      1      O          -0.02220592    -0.12381742     0.10397881
    182      2      H           0.02425026     0.13243691    -0.04938822
    183      2      H          -0.07585322    -0.01173926    -0.01818510
    184      1      O           0.14379139    -0.08490140     0.10704880
    185      2      H           0.00126463     0.06455828    -0.06318622
    186      2      H          -0.02841145    -0.06448108     0.00068512
    187      1      O          -0.00593702     0.08527588    -0.03695335
    188      2      H          -0.06569596     0.01858002     0.01799156
    189      2      H          -0.00392802    -0.01707285    -0.09883416
    190      1      O          -0.09685580    -0.13259266     0.06354383
    191      2      H           0.06225637    -0.02607048    -0.07917486
    192      2      H           0.05141208     0.00889990     0.05099204
 SUM OF ATOMIC FORCES          -0.47208093    -1.17964670    -1.45326468     1.93038985

 -------------------------------------------------------------------------------
 -                                                                             -
 -                                DBCSR STATISTICS                             -
 -                                                                             -
 -------------------------------------------------------------------------------
 COUNTER                                    TOTAL       BLAS       SMM       ACC
 flops     5 x     5 x   256           4627212800       0.0%    100.0%      0.0%
 flops    13 x     5 x   256           5419348480       0.0%    100.0%      0.0%
 flops     5 x    13 x   256           5529538560       0.0%    100.0%      0.0%
 flops    13 x    13 x   256           7683253760       0.0%    100.0%      0.0%
 flops inhomo. stacks                           0       0.0%      0.0%      0.0%
 flops total                        23.259354E+09       0.0%    100.0%      0.0%
 flops max/rank                     23.259354E+09       0.0%    100.0%      0.0%
 matmuls inhomo. stacks                         0       0.0%      0.0%      0.0%
 matmuls total                             779289       0.0%    100.0%      0.0%
 number of processed stacks                 42140       0.0%    100.0%      0.0%
 average stack size                                     0.0      18.5       0.0
 marketing flops                   333.927416E+09
 -------------------------------------------------------------------------------
 # multiplications                            301
 max memory usage/rank               5.025645E+09
 # max total images/rank                        1
 # max 3D layers                                1
 # MPI messages exchanged                       0
 MPI messages size (bytes):
  total size                         0.000000E+00
  min size                           0.000000E+00
  max size                           0.000000E+00
  average size                       0.000000E+00
 MPI breakdown and total messages size (bytes):
             size <=      128                   0                        0
       128 < size <=     8192                   0                        0
      8192 < size <=    32768                   0                        0
     32768 < size <=   131072                   0                        0
    131072 < size <=  4194304                   0                        0
   4194304 < size <= 16777216                   0                        0
  16777216 < size                               0                        0
 -------------------------------------------------------------------------------

 MEMORY| Estimated peak process memory [MiB]                                4787

 -------------------------------------------------------------------------------
 -                                                                             -
 -                           R E F E R E N C E S                               -
 -                                                                             -
 -------------------------------------------------------------------------------
 
 CP2K version 7.1, the CP2K developers group (2019).
 CP2K is freely available from https://www.cp2k.org/ .

 Schuett, Ole; Messmer, Peter; Hutter, Juerg; VandeVondele, Joost. 
 Electronic Structure Calculations on Graphics Processing Units, John
 Wiley & Sons, Ltd, 173-190 (2016). 
 GPU-Accelerated Sparse Matrix-Matrix Multiplication for
 Linear Scaling Density Functional Theory.
 https://dx.doi.org/10.1002/9781118670712.ch8

 Borstnik, U; VandeVondele, J; Weber, V; Hutter, J. 
 PARALLEL COMPUTING, 40 (5-6), 47-58 (2014). 
 Sparse matrix multiplication: The distributed block-compressed sparse
 row library.
 https://dx.doi.org/10.1016/j.parco.2014.03.012

 Hutter, J; Iannuzzi, M; Schiffmann, F; VandeVondele, J. 
 WIREs Comput Mol Sci., 4 (1), 15-25 (2014). 
 CP2K: atomistic simulations of condensed matter systems.
 https://dx.doi.org/10.1002/wcms.1159

 Krack, M. 
 THEORETICAL CHEMISTRY ACCOUNTS, 114 (1-3), 145-152 (2005). 
 Pseudopotentials for H to Kr optimized for gradient-corrected
 exchange-correlation functionals.
 https://dx.doi.org/10.1007/s00214-005-0655-y

 VandeVondele, J; Krack, M; Mohamed, F; Parrinello, M; Chassaing, T;
 Hutter, J. COMPUTER PHYSICS COMMUNICATIONS, 167 (2), 103-128 (2005). 
 QUICKSTEP: Fast and accurate density functional calculations using a
 mixed Gaussian and plane waves approach.
 https://dx.doi.org/10.1016/j.cpc.2004.12.014

 Frigo, M; Johnson, SG. 
 PROCEEDINGS OF THE IEEE, 93 (2), 216-231 (2005). 
 The design and implementation of FFTW3.
 https://dx.doi.org/10.1109/JPROC.2004.840301

 Hartwigsen, C; Goedecker, S; Hutter, J. 
 PHYSICAL REVIEW B, 58 (7), 3641-3662 (1998). 
 Relativistic separable dual-space Gaussian pseudopotentials from H to Rn.
 https://dx.doi.org/10.1103/PhysRevB.58.3641

 Lippert, G; Hutter, J; Parrinello, M. 
 MOLECULAR PHYSICS, 92 (3), 477-487 (1997). 
 A hybrid Gaussian and plane wave density functional scheme.
 https://dx.doi.org/10.1080/002689797170220

 Goedecker, S; Teter, M; Hutter, J. 
 PHYSICAL REVIEW B, 54 (3), 1703-1710 (1996). 
 Separable dual-space Gaussian pseudopotentials.
 https://dx.doi.org/10.1103/PhysRevB.54.1703


 -------------------------------------------------------------------------------
 -                                                                             -
 -                                T I M I N G                                  -
 -                                                                             -
 -------------------------------------------------------------------------------
 SUBROUTINE                       CALLS  ASD         SELF TIME        TOTAL TIME
                                MAXIMUM       AVERAGE  MAXIMUM  AVERAGE  MAXIMUM
 CP2K                                 1  1.0    0.187    0.187 2828.928 2828.928
 qs_forces                            1  2.0    0.000    0.000 2826.761 2826.761
 qs_energies                          1  3.0    0.000    0.000 2826.045 2826.045
 scf_env_do_scf                       1  4.0    0.001    0.001 2823.625 2823.625
 scf_env_do_scf_inner_loop          300  5.0    0.057    0.057 2823.624 2823.624
 qs_scf_new_mos                     300  6.0    0.009    0.009 1968.940 1968.940
 eigensolver                        300  7.0    0.050    0.050 1935.388 1935.388
 cp_fm_syevd                        300  8.0 1263.231 1263.231 1265.086 1265.086
 cp_fm_cholesky_restore             900  8.0  669.154  669.154  669.154  669.154
 gspace_mixing                      299  6.0    6.800    6.800  472.425  472.425
 broyden_mixing                     299  7.0  427.052  427.052  427.055  427.055
 rebuild_ks_matrix                  301  7.0    0.001    0.001  194.394  194.394
 qs_ks_build_kohn_sham_matrix       301  8.0    0.073    0.073  194.394  194.394
 qs_ks_update_qs_env                300  6.0    0.003    0.003  194.151  194.151
 pw_transfer                       3912  9.9    0.341    0.341  187.386  187.386
 qs_rho_update_rho                  301  6.0    0.004    0.004  187.188  187.188
 calculate_rho_elec                 301  7.0   90.403   90.403  187.184  187.184
 fft_wrap_pw1pw2                   3310 10.9    0.036    0.036  182.056  182.056
 fft_wrap_pw1pw2_70                1504 11.2   19.466   19.466  166.078  166.078
 density_rs2pw                      301  8.0    0.025    0.025   93.871   93.871
 fft3d_s                           3311 12.9   82.997   82.997   83.023   83.023
 pw_scatter_s                      1804 13.2   62.838   62.838   62.838   62.838
 pw_poisson_solve                   301  9.0   56.567   56.567   61.663   61.663
 -------------------------------------------------------------------------------

 The number of warnings for this run is : 1
 
 -------------------------------------------------------------------------------
  **** **** ******  **  PROGRAM ENDED AT                 2021-01-17 03:23:25.320
 ***** ** ***  *** **   PROGRAM RAN ON                                   gnode52
 **    ****   ******    PROGRAM RAN BY                               mayank.modi
 ***** **    ** ** **   PROGRAM PROCESS ID                                 39528
  **** **  *******  **  PROGRAM STOPPED IN /home/mayank.modi/ab-initio-thermodyn
                                           amics-of-water/mayank/cp2k_energy_cal
                                           culations
