 DBCSR| CPU Multiplication driver                                           XSMM
 DBCSR| Multrec recursion limit                                              512
 DBCSR| Multiplication stack size                                           1000
 DBCSR| Maximum elements for images                                    UNLIMITED
 DBCSR| Multiplicative factor virtual images                                   1
 DBCSR| Use multiplication densification                                       T
 DBCSR| Multiplication size stacks                                             3


  **** **** ******  **  PROGRAM STARTED AT               2021-01-13 17:13:54.706
 ***** ** ***  *** **   PROGRAM STARTED ON                               gnode23
 **    ****   ******    PROGRAM STARTED BY                           mayank.modi
 ***** **    ** ** **   PROGRAM PROCESS ID                                 23224
  **** **  *******  **  PROGRAM STARTED IN /home/mayank.modi/ab-initio-thermodyn
                                           amics-of-water/mayank/cp2k_energy_cal
                                           culations

 CP2K| version string:                                          CP2K version 7.1
 CP2K| source code revision number:                                  git:e635599
 CP2K| cp2kflags: omp libint fftw3 libxc xsmm spglib                            
 CP2K| is freely available from                            https://www.cp2k.org/
 CP2K| Program compiled at                          Mon Dec 23 19:23:12 CET 2019
 CP2K| Program compiled on                                                pc9404
 CP2K| Program compiled for                                Linux-x86-64-gfortran
 CP2K| Data directory path                                        /opt/cp2k/data
 CP2K| Input file name                   input_training_correct_cell/input464.in

 GLOBAL| Force Environment number                                              1
 GLOBAL| Basis set file name                                           BASIS_SET
 GLOBAL| Potential file name                                      GTH_POTENTIALS
 GLOBAL| MM Potential file name                                     MM_POTENTIAL
 GLOBAL| Coordinate file name                                      __STD_INPUT__
 GLOBAL| Method name                                                        CP2K
 GLOBAL| Project name                                                   H2O_bulk
 GLOBAL| Preferred FFT library                                             FFTW3
 GLOBAL| Preferred diagonalization lib.                                       SL
 GLOBAL| Run type                                                   ENERGY_FORCE
 GLOBAL| All-to-all communication in single precision                          F
 GLOBAL| FFTs using library dependent lengths                                  F
 GLOBAL| Global print level                                                  LOW
 GLOBAL| MPI I/O enabled                                                       T
 GLOBAL| Total number of message passing processes                             1
 GLOBAL| Number of threads for this process                                   36
 GLOBAL| This output is from process                                           0
 GLOBAL| CPU model name                Intel(R) Xeon(R) CPU E5-2640 v4 @ 2.40GHz
 GLOBAL| CPUID                                                              1002
 GLOBAL| Compiled for CPUID                                                    0

 MEMORY| system memory details [Kb]
 MEMORY|                        rank 0           min           max       average
 MEMORY| MemTotal            131897972     131897972     131897972     131897972
 MEMORY| MemFree             125604848     125604848     125604848     125604848
 MEMORY| Buffers               1901992       1901992       1901992       1901992
 MEMORY| Cached                1401788       1401788       1401788       1401788
 MEMORY| Slab                  2524320       2524320       2524320       2524320
 MEMORY| SReclaimable          1494592       1494592       1494592       1494592
 MEMORY| MemLikelyFree       130403220     130403220     130403220     130403220


 GENERATE|  Preliminary Number of Bonds generated:                             0
 GENERATE|  Achieved consistency in connectivity generation.

 *******************************************************************************
 *******************************************************************************
 **                                                                           **
 **     #####                         ##              ##                      **
 **    ##   ##            ##          ##              ##                      **
 **   ##     ##                       ##            ######                    **
 **   ##     ##  ##   ##  ##   #####  ##  ##   ####   ##    #####    #####    **
 **   ##     ##  ##   ##  ##  ##      ## ##   ##      ##   ##   ##  ##   ##   **
 **   ##  ## ##  ##   ##  ##  ##      ####     ###    ##   ######   ######    **
 **    ##  ###   ##   ##  ##  ##      ## ##      ##   ##   ##       ##        **
 **     #######   #####   ##   #####  ##  ##  ####    ##    #####   ##        **
 **           ##                                                    ##        **
 **                                                                           **
 **                                                ... make the atoms dance   **
 **                                                                           **
 **            Copyright (C) by CP2K developers group (2000 - 2019)           **
 **                                                                           **
 *******************************************************************************


 TOTAL NUMBERS AND MAXIMUM NUMBERS

  Total number of            - Atomic kinds:                                   2
                             - Atoms:                                        192
                             - Shell sets:                                   384
                             - Shells:                                       704
                             - Primitive Cartesian functions:                960
                             - Cartesian basis functions:                   1536
                             - Spherical basis functions:                   1472

  Maximum angular momentum of- Orbital basis functions:                        2
                             - Local part of the GTH pseudopotential:          2
                             - Non-local part of the GTH pseudopotential:      0


 SCF PARAMETERS         Density guess:                                    ATOMIC
                        --------------------------------------------------------
                        max_scf:                                             300
                        max_scf_history:                                       0
                        max_diis:                                              4
                        --------------------------------------------------------
                        eps_scf:                                        1.00E-07
                        eps_scf_history:                                0.00E+00
                        eps_diis:                                       1.00E-01
                        eps_eigval:                                     1.00E-05
                        --------------------------------------------------------
                        level_shift [a.u.]:                                 0.00
                        --------------------------------------------------------
                        Mixing method:                            BROYDEN_MIXING
                                                charge density mixing in g-space
                        --------------------------------------------------------
                        No outer SCF

 Number of electrons:                                                        512
 Number of occupied orbitals:                                                256
 Number of molecular orbitals:                                               256

 Number of orbital functions:                                               1472
 Number of independent orbital functions:                                   1472

 Extrapolation method: initial_guess


 SCF WAVEFUNCTION OPTIMIZATION

  Step     Update method      Time    Convergence         Total energy    Change
  ------------------------------------------------------------------------------
     1 NoMix/Diag. 0.40E+00    7.2     0.59843928     -1064.1311353170 -1.06E+03
     2 Broy./Diag. 0.40E+00    7.9     1.84648661      -996.6233208289  6.75E+01
     3 Broy./Diag. 0.40E+00    8.0     1.86501022     -1263.1829122580 -2.67E+02
     4 Broy./Diag. 0.40E+00    8.3     1.60499872     -1115.2599468735  1.48E+02
     5 Broy./Diag. 0.40E+00    8.5     1.58962787     -1093.0698637871  2.22E+01
     6 Broy./Diag. 0.40E+00    8.7     1.74904322     -1098.0287227710 -4.96E+00
     7 Broy./Diag. 0.40E+00    9.0     1.58992823     -1097.4821958993  5.47E-01
     8 Broy./Diag. 0.40E+00    9.1     1.63383436     -1088.8504543121  8.63E+00
     9 Broy./Diag. 0.40E+00    9.1     0.42472281     -1077.7262984852  1.11E+01
    10 Broy./Diag. 0.40E+00    9.5     0.12906249     -1072.6322640418  5.09E+00
    11 Broy./Diag. 0.40E+00    9.4     0.21505860     -1073.5223013205 -8.90E-01
    12 Broy./Diag. 0.40E+00    9.5     1.42780391     -1073.9380308170 -4.16E-01
    13 Broy./Diag. 0.40E+00    9.5     1.47137688     -1075.9160830775 -1.98E+00
    14 Broy./Diag. 0.40E+00    9.5     1.57293956     -1075.7633214423  1.53E-01
    15 Broy./Diag. 0.40E+00    9.5     1.43611966     -1078.9604053515 -3.20E+00
    16 Broy./Diag. 0.40E+00    9.5     1.50692466     -1076.0316705877  2.93E+00
    17 Broy./Diag. 0.40E+00    9.3     1.56252759     -1077.7751272747 -1.74E+00
    18 Broy./Diag. 0.40E+00    9.4     1.52440491     -1076.5138391760  1.26E+00
    19 Broy./Diag. 0.40E+00    9.4     1.48472918     -1073.8295603223  2.68E+00
    20 Broy./Diag. 0.40E+00    9.3     1.45776101     -1079.1316323587 -5.30E+00
    21 Broy./Diag. 0.40E+00    9.5     1.39111291     -1075.0867338576  4.04E+00
    22 Broy./Diag. 0.40E+00    9.5     1.42859599     -1077.0627836145 -1.98E+00
    23 Broy./Diag. 0.40E+00    9.6     1.51537049     -1077.2953248608 -2.33E-01
    24 Broy./Diag. 0.40E+00    9.7     1.60499015     -1078.3709615074 -1.08E+00
    25 Broy./Diag. 0.40E+00    9.5     1.47464902     -1074.4768576225  3.89E+00
    26 Broy./Diag. 0.40E+00    9.5     1.47046264     -1080.6222293163 -6.15E+00
    27 Broy./Diag. 0.40E+00    9.7     1.49317807     -1076.3460430862  4.28E+00
    28 Broy./Diag. 0.40E+00    9.5     1.43449625     -1077.2808364514 -9.35E-01
    29 Broy./Diag. 0.40E+00    9.5     1.44078784     -1077.1311545560  1.50E-01
    30 Broy./Diag. 0.40E+00    9.3     1.16756458     -1078.6413521473 -1.51E+00
    31 Broy./Diag. 0.40E+00    9.0     1.45847525     -1076.4665740836  2.17E+00
    32 Broy./Diag. 0.40E+00    9.0     1.46863389     -1077.2245394209 -7.58E-01
    33 Broy./Diag. 0.40E+00    9.6     1.49744476     -1076.4850387667  7.40E-01
    34 Broy./Diag. 0.40E+00    9.7     1.59465353     -1077.7228575798 -1.24E+00
    35 Broy./Diag. 0.40E+00    9.4     1.50930949     -1076.8724362615  8.50E-01
    36 Broy./Diag. 0.40E+00    9.6     1.37307524     -1074.4294386748  2.44E+00
    37 Broy./Diag. 0.40E+00    9.5     1.42720545     -1078.4769991478 -4.05E+00
    38 Broy./Diag. 0.40E+00    9.5     1.42407596     -1076.8498481158  1.63E+00
    39 Broy./Diag. 0.40E+00    9.5     1.48431636     -1076.7640837592  8.58E-02
    40 Broy./Diag. 0.40E+00    9.4     1.43381608     -1074.4669931763  2.30E+00
    41 Broy./Diag. 0.40E+00    9.5     1.46545604     -1077.3063779409 -2.84E+00
    42 Broy./Diag. 0.40E+00    9.3     1.47559078     -1077.2668393348  3.95E-02
    43 Broy./Diag. 0.40E+00    9.0     1.46348982     -1077.0311875109  2.36E-01
    44 Broy./Diag. 0.40E+00    9.7     1.58601097     -1077.5919566880 -5.61E-01
    45 Broy./Diag. 0.40E+00    9.7     1.50577580     -1076.5362777108  1.06E+00
    46 Broy./Diag. 0.40E+00    9.5     1.58786517     -1076.4331283836  1.03E-01
    47 Broy./Diag. 0.40E+00    9.4     1.53006879     -1077.7966711590 -1.36E+00
    48 Broy./Diag. 0.40E+00    9.2     0.96253727     -1074.3177534621  3.48E+00
    49 Broy./Diag. 0.40E+00    9.5     1.38270081     -1079.4313267329 -5.11E+00
    50 Broy./Diag. 0.40E+00    9.7     1.46589220     -1077.8357977754  1.60E+00
    51 Broy./Diag. 0.40E+00    9.6     1.48646783     -1076.8983389376  9.37E-01
    52 Broy./Diag. 0.40E+00    9.7     1.14907197     -1077.2135152052 -3.15E-01
    53 Broy./Diag. 0.40E+00    9.6     1.08730145     -1076.4596600061  7.54E-01
    54 Broy./Diag. 0.40E+00    9.4     1.54117480     -1076.3131065652  1.47E-01
    55 Broy./Diag. 0.40E+00    9.1     1.57264641     -1077.8922734522 -1.58E+00
    56 Broy./Diag. 0.40E+00    9.0     1.51663133     -1074.8439581617  3.05E+00
    57 Broy./Diag. 0.40E+00    9.6     1.51812374     -1077.0631734081 -2.22E+00
    58 Broy./Diag. 0.40E+00    9.8     1.40045706     -1076.4633061310  6.00E-01
    59 Broy./Diag. 0.40E+00    9.6     1.46153803     -1076.2578951387  2.05E-01
    60 Broy./Diag. 0.40E+00    9.4     1.34638258     -1074.6603531635  1.60E+00
    61 Broy./Diag. 0.40E+00    9.4     1.39854789     -1078.7627329818 -4.10E+00
    62 Broy./Diag. 0.40E+00    9.4     1.49674586     -1074.8764187388  3.89E+00
    63 Broy./Diag. 0.40E+00    9.5     1.49513089     -1078.9524070750 -4.08E+00
    64 Broy./Diag. 0.40E+00    9.6     1.53281051     -1074.8408297272  4.11E+00
    65 Broy./Diag. 0.40E+00    9.5     1.55658111     -1078.2482431994 -3.41E+00
    66 Broy./Diag. 0.40E+00    9.2     1.42789982     -1075.1331568801  3.12E+00
    67 Broy./Diag. 0.40E+00    9.4     1.55132353     -1077.3767904524 -2.24E+00
    68 Broy./Diag. 0.40E+00    9.5     1.47734102     -1076.3084294754  1.07E+00
    69 Broy./Diag. 0.40E+00    9.3     1.46441352     -1076.0964314300  2.12E-01
    70 Broy./Diag. 0.40E+00    9.9     1.46747264     -1076.4067051634 -3.10E-01
    71 Broy./Diag. 0.40E+00    9.5     1.64027718     -1078.9756712665 -2.57E+00
    72 Broy./Diag. 0.40E+00    9.4     1.39197251     -1076.1336272851  2.84E+00
    73 Broy./Diag. 0.40E+00    9.6     1.50435949     -1075.8330019292  3.01E-01
    74 Broy./Diag. 0.40E+00    9.3     1.51422024     -1073.7644369949  2.07E+00
    75 Broy./Diag. 0.40E+00    9.5     1.55402480     -1079.5568406896 -5.79E+00
    76 Broy./Diag. 0.40E+00    9.5     1.48779961     -1075.3908630068  4.17E+00
    77 Broy./Diag. 0.40E+00    9.3     1.54607299     -1077.8556402734 -2.46E+00
    78 Broy./Diag. 0.40E+00    9.0     1.21142207     -1077.0914277657  7.64E-01
    79 Broy./Diag. 0.40E+00    8.8     0.46972853     -1075.0976787245  1.99E+00
    80 Broy./Diag. 0.40E+00    9.6     1.35676507     -1074.7043711071  3.93E-01
    81 Broy./Diag. 0.40E+00    9.3     1.35970938     -1076.5132819807 -1.81E+00
    82 Broy./Diag. 0.40E+00    9.1     1.42727131     -1077.0637867686 -5.51E-01
    83 Broy./Diag. 0.40E+00    9.3     1.45542406     -1076.6743492059  3.89E-01
    84 Broy./Diag. 0.40E+00    8.7     1.52037162     -1074.7053146951  1.97E+00
    85 Broy./Diag. 0.40E+00    9.4     1.54112736     -1079.0420403094 -4.34E+00
    86 Broy./Diag. 0.40E+00    9.7     1.44075203     -1077.5505306195  1.49E+00
    87 Broy./Diag. 0.40E+00    9.6     1.49647486     -1078.6408187348 -1.09E+00
    88 Broy./Diag. 0.40E+00    9.5     1.50874622     -1075.8233799112  2.82E+00
    89 Broy./Diag. 0.40E+00    9.4     1.48828688     -1076.3564004650 -5.33E-01
    90 Broy./Diag. 0.40E+00    8.9     1.48551097     -1076.9730820930 -6.17E-01
    91 Broy./Diag. 0.40E+00    9.5     1.45745981     -1077.2699996364 -2.97E-01
    92 Broy./Diag. 0.40E+00    9.6     1.42632429     -1075.0589117813  2.21E+00
    93 Broy./Diag. 0.40E+00    9.3     1.47793628     -1077.0010996673 -1.94E+00
    94 Broy./Diag. 0.40E+00    9.2     0.42641429     -1077.1637031264 -1.63E-01
    95 Broy./Diag. 0.40E+00    9.6     1.50213626     -1076.8025158677  3.61E-01
    96 Broy./Diag. 0.40E+00    9.4     1.57636785     -1078.0627877140 -1.26E+00
    97 Broy./Diag. 0.40E+00    9.6     1.54573971     -1078.6305324351 -5.68E-01
    98 Broy./Diag. 0.40E+00    9.6     1.48988220     -1074.0242969979  4.61E+00
    99 Broy./Diag. 0.40E+00    9.6     1.50458227     -1079.3543689688 -5.33E+00
   100 Broy./Diag. 0.40E+00    9.3     1.53030436     -1078.5792918821  7.75E-01
   101 Broy./Diag. 0.40E+00    9.1     1.50235639     -1076.7134681862  1.87E+00
   102 Broy./Diag. 0.40E+00    9.3     1.42858960     -1074.7031071264  2.01E+00
   103 Broy./Diag. 0.40E+00    9.1     1.45628459     -1077.3513050416 -2.65E+00
   104 Broy./Diag. 0.40E+00    8.9     1.18155382     -1074.7024047739  2.65E+00
   105 Broy./Diag. 0.40E+00    9.5     1.33711016     -1076.7866394113 -2.08E+00
   106 Broy./Diag. 0.40E+00    9.3     1.56117947     -1076.2566714237  5.30E-01
   107 Broy./Diag. 0.40E+00    9.2     1.58153001     -1077.8247737165 -1.57E+00
   108 Broy./Diag. 0.40E+00    9.9     1.43018580     -1076.5902508336  1.23E+00
   109 Broy./Diag. 0.40E+00    9.5     1.46079562     -1076.3196595487  2.71E-01
   110 Broy./Diag. 0.40E+00    9.3     1.44705086     -1076.2682999877  5.14E-02
   111 Broy./Diag. 0.40E+00    9.4     1.50707947     -1076.3060177705 -3.77E-02
   112 Broy./Diag. 0.40E+00    9.6     1.30418793     -1074.2796567875  2.03E+00
   113 Broy./Diag. 0.40E+00    9.3     1.37966167     -1078.6512900477 -4.37E+00
   114 Broy./Diag. 0.40E+00    9.2     1.49997460     -1074.6441764054  4.01E+00
   115 Broy./Diag. 0.40E+00    9.1     1.19170558     -1079.0564646429 -4.41E+00
   116 Broy./Diag. 0.40E+00    9.4     1.55428859     -1077.9728997480  1.08E+00
   117 Broy./Diag. 0.40E+00    9.2     1.49030083     -1079.1199611601 -1.15E+00
   118 Broy./Diag. 0.40E+00    9.0     1.40628902     -1074.4293038335  4.69E+00
   119 Broy./Diag. 0.40E+00    8.9     1.43964134     -1076.9498216364 -2.52E+00
   120 Broy./Diag. 0.40E+00    9.5     1.42353113     -1074.6865813706  2.26E+00
   121 Broy./Diag. 0.40E+00    9.3     1.51515576     -1077.0408360536 -2.35E+00
   122 Broy./Diag. 0.40E+00    8.9     1.56939004     -1076.8947355640  1.46E-01
   123 Broy./Diag. 0.40E+00    8.9     1.51878681     -1078.8857149303 -1.99E+00
   124 Broy./Diag. 0.40E+00    9.1     1.45806535     -1076.6018554056  2.28E+00
   125 Broy./Diag. 0.40E+00    9.3     1.22977529     -1077.0256677628 -4.24E-01
   126 Broy./Diag. 0.40E+00    9.6     1.49843867     -1074.5092345743  2.52E+00
   127 Broy./Diag. 0.40E+00    9.5     1.48323526     -1078.6863086415 -4.18E+00
   128 Broy./Diag. 0.40E+00    9.3     1.41438084     -1077.1742887023  1.51E+00
   129 Broy./Diag. 0.40E+00    9.5     1.45836680     -1077.0426572497  1.32E-01
   130 Broy./Diag. 0.40E+00    9.5     1.40731910     -1074.8369127666  2.21E+00
   131 Broy./Diag. 0.40E+00    9.4     1.54036293     -1077.6945233457 -2.86E+00
   132 Broy./Diag. 0.40E+00    9.4     1.48284501     -1076.6275442974  1.07E+00
   133 Broy./Diag. 0.40E+00    9.6     1.40831177     -1074.6408942291  1.99E+00
   134 Broy./Diag. 0.40E+00    9.5     1.45421322     -1077.1839566803 -2.54E+00
   135 Broy./Diag. 0.40E+00    9.3     1.52029994     -1077.1315105624  5.24E-02
   136 Broy./Diag. 0.40E+00    9.3     1.52460639     -1076.5966599791  5.35E-01
   137 Broy./Diag. 0.40E+00    9.6     1.49889788     -1076.7063548053 -1.10E-01
   138 Broy./Diag. 0.40E+00    9.5     1.43743564     -1076.8304342530 -1.24E-01
   139 Broy./Diag. 0.40E+00    9.3     1.48920761     -1077.0523169199 -2.22E-01
   140 Broy./Diag. 0.40E+00    9.1     1.14527174     -1075.2107140453  1.84E+00
   141 Broy./Diag. 0.40E+00    8.9     1.52193702     -1077.3761302285 -2.17E+00
   142 Broy./Diag. 0.40E+00    8.8     1.48353049     -1077.0179327191  3.58E-01
   143 Broy./Diag. 0.40E+00    8.7     1.35189721     -1074.5530928649  2.46E+00
   144 Broy./Diag. 0.40E+00    8.9     1.39130077     -1079.6359306721 -5.08E+00
   145 Broy./Diag. 0.40E+00    9.5     1.16430746     -1076.5391326755  3.10E+00
   146 Broy./Diag. 0.40E+00    9.6     1.51828109     -1074.4923175124  2.05E+00
   147 Broy./Diag. 0.40E+00    9.6     1.51726223     -1078.1321280840 -3.64E+00
   148 Broy./Diag. 0.40E+00    9.5     1.42601923     -1076.7301277240  1.40E+00
   149 Broy./Diag. 0.40E+00    9.5     1.47116179     -1079.0460695412 -2.32E+00
   150 Broy./Diag. 0.40E+00    9.5     1.41759742     -1074.8962881612  4.15E+00
   151 Broy./Diag. 0.40E+00    9.5     1.55162814     -1077.5115251789 -2.62E+00
   152 Broy./Diag. 0.40E+00    9.5     1.48256073     -1076.8791545125  6.32E-01
   153 Broy./Diag. 0.40E+00    9.3     1.38258247     -1074.5122442362  2.37E+00
   154 Broy./Diag. 0.40E+00    9.4     1.37304433     -1078.5310522838 -4.02E+00
   155 Broy./Diag. 0.40E+00    9.3     0.81787219     -1075.5901211923  2.94E+00
   156 Broy./Diag. 0.40E+00    9.4     1.49640939     -1076.6076174058 -1.02E+00
   157 Broy./Diag. 0.40E+00    9.4     1.52374929     -1076.5657599501  4.19E-02
   158 Broy./Diag. 0.40E+00    9.6     1.53688495     -1078.3881570140 -1.82E+00
   159 Broy./Diag. 0.40E+00    9.4     1.49721878     -1076.5924116364  1.80E+00
   160 Broy./Diag. 0.40E+00    9.6     1.19833410     -1074.0720658974  2.52E+00
   161 Broy./Diag. 0.40E+00    9.9     1.48699029     -1076.9107249409 -2.84E+00
   162 Broy./Diag. 0.40E+00    9.5     1.52093552     -1077.3312077696 -4.20E-01
   163 Broy./Diag. 0.40E+00    9.4     1.48787893     -1076.6646996929  6.67E-01
   164 Broy./Diag. 0.40E+00    9.6     1.44552666     -1074.6688038272  2.00E+00
   165 Broy./Diag. 0.40E+00    9.6     1.44630199     -1079.0338750769 -4.37E+00
   166 Broy./Diag. 0.40E+00    9.5     1.23307495     -1077.1131394244  1.92E+00
   167 Broy./Diag. 0.40E+00    9.4     1.41343803     -1074.8824656181  2.23E+00
   168 Broy./Diag. 0.40E+00    9.4     1.43743200     -1076.8022169118 -1.92E+00
   169 Broy./Diag. 0.40E+00    9.6     1.41208901     -1078.6083151419 -1.81E+00
   170 Broy./Diag. 0.40E+00    9.4     1.53836042     -1077.1201033302  1.49E+00
   171 Broy./Diag. 0.40E+00    9.3     1.58425398     -1078.0195756602 -8.99E-01
   172 Broy./Diag. 0.40E+00    9.5     1.61770567     -1077.1497467684  8.70E-01
   173 Broy./Diag. 0.40E+00    9.3     1.54825474     -1075.6146434222  1.54E+00
   174 Broy./Diag. 0.40E+00    9.6     1.48487230     -1073.6356140275  1.98E+00
   175 Broy./Diag. 0.40E+00    9.6     1.48116839     -1079.2638060457 -5.63E+00
   176 Broy./Diag. 0.40E+00    9.4     0.79738422     -1074.8851661099  4.38E+00
   177 Broy./Diag. 0.40E+00    9.6     1.40700996     -1077.0922539605 -2.21E+00
   178 Broy./Diag. 0.40E+00    9.6     1.45339329     -1077.0022348216  9.00E-02
   179 Broy./Diag. 0.40E+00    9.4     1.44125641     -1078.7642463073 -1.76E+00
   180 Broy./Diag. 0.40E+00    9.6     1.51916381     -1074.6017019243  4.16E+00
   181 Broy./Diag. 0.40E+00    9.5     1.56003259     -1078.5740827993 -3.97E+00
   182 Broy./Diag. 0.40E+00    9.5     1.58347117     -1077.6953769106  8.79E-01
   183 Broy./Diag. 0.40E+00    9.5     1.09777830     -1076.4976107690  1.20E+00
   184 Broy./Diag. 0.40E+00    9.4     1.47342360     -1074.2837390912  2.21E+00
   185 Broy./Diag. 0.40E+00    9.4     1.48078988     -1079.8313021878 -5.55E+00
   186 Broy./Diag. 0.40E+00    9.3     0.92621907     -1076.6596223311  3.17E+00
   187 Broy./Diag. 0.40E+00    9.7     1.41355254     -1074.5272065824  2.13E+00
   188 Broy./Diag. 0.40E+00    9.6     1.42597013     -1077.1693625500 -2.64E+00
   189 Broy./Diag. 0.40E+00    9.6     1.43844606     -1079.2516571466 -2.08E+00
   190 Broy./Diag. 0.40E+00    9.3     1.51502258     -1075.1814969027  4.07E+00
   191 Broy./Diag. 0.40E+00    9.4     1.55796502     -1078.5543439373 -3.37E+00
   192 Broy./Diag. 0.40E+00    9.7     1.59146038     -1077.4081761120  1.15E+00
   193 Broy./Diag. 0.40E+00    9.6     1.49280129     -1076.3452164902  1.06E+00
   194 Broy./Diag. 0.40E+00    9.6     1.45467106     -1073.9948626628  2.35E+00
   195 Broy./Diag. 0.40E+00    9.4     1.49702771     -1079.0342779432 -5.04E+00
   196 Broy./Diag. 0.40E+00    9.5     0.87313581     -1075.9341325263  3.10E+00
   197 Broy./Diag. 0.40E+00    9.3     1.06644612     -1074.8211579139  1.11E+00
   198 Broy./Diag. 0.40E+00    9.3     1.41842427     -1076.2425659604 -1.42E+00
   199 Broy./Diag. 0.40E+00    9.4     1.44475655     -1077.6902476963 -1.45E+00
   200 Broy./Diag. 0.40E+00    9.6     1.56353921     -1077.0375053942  6.53E-01
   201 Broy./Diag. 0.40E+00    9.4     1.59367670     -1078.1205828135 -1.08E+00
   202 Broy./Diag. 0.40E+00    9.7     1.49615920     -1076.3841364792  1.74E+00
   203 Broy./Diag. 0.40E+00    9.3     1.48038683     -1076.2908231612  9.33E-02
   204 Broy./Diag. 0.40E+00    9.3     1.47842072     -1076.2670671398  2.38E-02
   205 Broy./Diag. 0.40E+00    9.6     1.52540847     -1074.8453661752  1.42E+00
   206 Broy./Diag. 0.40E+00    9.5     1.59130914     -1080.1966171391 -5.35E+00
   207 Broy./Diag. 0.40E+00    9.4     1.39242573     -1076.5962667176  3.60E+00
   208 Broy./Diag. 0.40E+00    9.3     1.44767906     -1078.5584659777 -1.96E+00
   209 Broy./Diag. 0.40E+00    9.3     1.48202314     -1078.5606007312 -2.13E-03
   210 Broy./Diag. 0.40E+00    9.2     1.49526582     -1076.3713514417  2.19E+00
   211 Broy./Diag. 0.40E+00    9.5     1.48431477     -1076.2967896315  7.46E-02
   212 Broy./Diag. 0.40E+00    9.3     1.65996323     -1078.0178937373 -1.72E+00
   213 Broy./Diag. 0.40E+00    8.9     1.49318987     -1076.7370692630  1.28E+00
   214 Broy./Diag. 0.40E+00    9.5     1.46315162     -1075.6493625561  1.09E+00
   215 Broy./Diag. 0.40E+00    9.5     1.51935195     -1074.9099681053  7.39E-01
   216 Broy./Diag. 0.40E+00    9.5     1.53852034     -1079.7082528981 -4.80E+00
   217 Broy./Diag. 0.40E+00    9.6     1.21224286     -1077.6029663645  2.11E+00
   218 Broy./Diag. 0.40E+00    9.5     1.43764123     -1077.0273368359  5.76E-01
   219 Broy./Diag. 0.40E+00    9.3     1.50804680     -1078.9805316646 -1.95E+00
   220 Broy./Diag. 0.40E+00    9.3     1.50148226     -1076.4912590429  2.49E+00
   221 Broy./Diag. 0.40E+00    9.0     1.20789167     -1076.4208552288  7.04E-02
   222 Broy./Diag. 0.40E+00    9.1     1.43934710     -1076.0739466455  3.47E-01
   223 Broy./Diag. 0.40E+00    9.5     1.48860750     -1077.0768097459 -1.00E+00
   224 Broy./Diag. 0.40E+00    9.6     1.58625262     -1077.3927441953 -3.16E-01
   225 Broy./Diag. 0.40E+00    9.7     1.36241942     -1073.9009759993  3.49E+00
   226 Broy./Diag. 0.40E+00    9.3     1.39682552     -1078.0598198029 -4.16E+00
   227 Broy./Diag. 0.40E+00    9.5     1.40385892     -1076.5373150609  1.52E+00
   228 Broy./Diag. 0.40E+00    9.5     1.40913126     -1074.7839167583  1.75E+00
   229 Broy./Diag. 0.40E+00    9.4     1.47608101     -1076.8801776578 -2.10E+00
   230 Broy./Diag. 0.40E+00    9.4     1.50845709     -1076.5000296556  3.80E-01
   231 Broy./Diag. 0.40E+00    9.4     0.82477535     -1075.3644159411  1.14E+00
   232 Broy./Diag. 0.40E+00    9.5     1.44646072     -1077.2849148193 -1.92E+00
   233 Broy./Diag. 0.40E+00    9.5     1.47900316     -1077.1649600616  1.20E-01
   234 Broy./Diag. 0.40E+00    9.5     1.12949654     -1076.7384331089  4.27E-01
   235 Broy./Diag. 0.40E+00    9.4     1.47719358     -1074.8761077900  1.86E+00
   236 Broy./Diag. 0.40E+00    9.4     1.52437590     -1077.2556436979 -2.38E+00
   237 Broy./Diag. 0.40E+00    9.4     1.43472870     -1078.0105125374 -7.55E-01
   238 Broy./Diag. 0.40E+00    9.5     1.48689997     -1076.8454175692  1.17E+00
   239 Broy./Diag. 0.40E+00    9.6     1.53568252     -1076.8070828553  3.83E-02
   240 Broy./Diag. 0.40E+00    9.4     1.57700466     -1077.4687201303 -6.62E-01
   241 Broy./Diag. 0.40E+00    9.4     0.72584315     -1075.2051755939  2.26E+00
   242 Broy./Diag. 0.40E+00    9.5     1.36740944     -1074.7007213381  5.04E-01
   243 Broy./Diag. 0.40E+00    9.3     1.30931168     -1077.3502346341 -2.65E+00
   244 Broy./Diag. 0.40E+00    9.0     1.49628095     -1074.8308705567  2.52E+00
   245 Broy./Diag. 0.40E+00    9.5     1.52458565     -1077.8590700141 -3.03E+00
   246 Broy./Diag. 0.40E+00    9.3     1.12838558     -1076.9450692426  9.14E-01
   247 Broy./Diag. 0.40E+00    9.6     1.40272646     -1075.2449581661  1.70E+00
   248 Broy./Diag. 0.40E+00    9.6     1.43037876     -1076.3046499954 -1.06E+00
   249 Broy./Diag. 0.40E+00    9.4     1.56250774     -1076.2845838214  2.01E-02
   250 Broy./Diag. 0.40E+00    9.3     1.58876286     -1077.5176566413 -1.23E+00
   251 Broy./Diag. 0.40E+00    9.6     1.50224025     -1074.4930530020  3.02E+00
   252 Broy./Diag. 0.40E+00    9.5     1.47901226     -1078.7599309833 -4.27E+00
   253 Broy./Diag. 0.40E+00    9.5     1.47489144     -1078.5609319519  1.99E-01
   254 Broy./Diag. 0.40E+00    9.3     1.53492526     -1077.0513066306  1.51E+00
   255 Broy./Diag. 0.40E+00    9.4     1.60919747     -1077.9069844729 -8.56E-01
   256 Broy./Diag. 0.40E+00    9.6     1.45760605     -1076.2573357501  1.65E+00
   257 Broy./Diag. 0.40E+00    9.4     1.42142773     -1076.3502304361 -9.29E-02
   258 Broy./Diag. 0.40E+00    9.1     1.50296740     -1076.1127779565  2.37E-01
   259 Broy./Diag. 0.40E+00    8.9     1.51102107     -1076.1466641359 -3.39E-02
   260 Broy./Diag. 0.40E+00    9.5     1.49432011     -1075.8881137452  2.59E-01
   261 Broy./Diag. 0.40E+00    9.6     0.75500718     -1075.0902252913  7.98E-01
   262 Broy./Diag. 0.40E+00    9.4     1.49318492     -1074.1445005412  9.46E-01
   263 Broy./Diag. 0.40E+00    9.3     1.51367218     -1079.6116137522 -5.47E+00
   264 Broy./Diag. 0.40E+00    9.2     1.54688174     -1077.1774384877  2.43E+00
   265 Broy./Diag. 0.40E+00    9.4     1.56030968     -1078.2742254360 -1.10E+00
   266 Broy./Diag. 0.40E+00    9.6     0.50685955     -1075.4602852357  2.81E+00
   267 Broy./Diag. 0.40E+00    9.3     1.44749478     -1074.9831300793  4.77E-01
   268 Broy./Diag. 0.40E+00    9.2     1.47069658     -1076.7892481350 -1.81E+00
   269 Broy./Diag. 0.40E+00    9.6     1.46890876     -1076.8298394826 -4.06E-02
   270 Broy./Diag. 0.40E+00    9.6     1.15769684     -1074.7273591638  2.10E+00
   271 Broy./Diag. 0.40E+00    9.6     1.19682656     -1077.4031595045 -2.68E+00
   272 Broy./Diag. 0.40E+00    9.6     1.11658055     -1077.4281632472 -2.50E-02
   273 Broy./Diag. 0.40E+00    9.3     1.52880852     -1077.1817899502  2.46E-01
   274 Broy./Diag. 0.40E+00    9.4     1.55738086     -1076.7855045556  3.96E-01
   275 Broy./Diag. 0.40E+00    9.5     1.59527848     -1077.4032803275 -6.18E-01
   276 Broy./Diag. 0.40E+00    9.6     1.43454032     -1076.5010112670  9.02E-01
   277 Broy./Diag. 0.40E+00    9.6     1.51194498     -1076.3166208306  1.84E-01
   278 Broy./Diag. 0.40E+00    9.6     1.51692908     -1076.2354015285  8.12E-02
   279 Broy./Diag. 0.40E+00    9.4     1.52263673     -1076.3513474863 -1.16E-01
   280 Broy./Diag. 0.40E+00    9.2     1.34898485     -1073.0953044809  3.26E+00
   281 Broy./Diag. 0.40E+00    9.3     1.49558710     -1079.0667868929 -5.97E+00
   282 Broy./Diag. 0.40E+00    9.4     1.57783627     -1078.5224084371  5.44E-01
   283 Broy./Diag. 0.40E+00    9.6     1.46586893     -1074.4807670125  4.04E+00
   284 Broy./Diag. 0.40E+00    9.6     1.51656094     -1076.9920848697 -2.51E+00
   285 Broy./Diag. 0.40E+00    9.3     0.87011044     -1076.2219570788  7.70E-01
   286 Broy./Diag. 0.40E+00    9.2     1.09260098     -1074.5798067319  1.64E+00
   287 Broy./Diag. 0.40E+00    9.0     1.43826451     -1076.9203346677 -2.34E+00
   288 Broy./Diag. 0.40E+00    8.9     1.46929849     -1076.9046093509  1.57E-02
   289 Broy./Diag. 0.40E+00    9.1     1.46958544     -1077.0424040695 -1.38E-01
   290 Broy./Diag. 0.40E+00    9.5     1.38453199     -1075.1385444820  1.90E+00
   291 Broy./Diag. 0.40E+00    9.4     1.52112594     -1078.6298355397 -3.49E+00
   292 Broy./Diag. 0.40E+00    9.4     1.56635759     -1078.2679156734  3.62E-01
   293 Broy./Diag. 0.40E+00    9.3     1.53109794     -1074.4108716135  3.86E+00
   294 Broy./Diag. 0.40E+00    9.1     1.55282014     -1079.5809424520 -5.17E+00
   295 Broy./Diag. 0.40E+00    8.9     1.52011978     -1076.0390953934  3.54E+00
   296 Broy./Diag. 0.40E+00    9.3     1.46012963     -1077.1713469859 -1.13E+00
   297 Broy./Diag. 0.40E+00    9.7     0.82668706     -1075.2207612511  1.95E+00
   298 Broy./Diag. 0.40E+00    9.6     1.42926061     -1076.9313636794 -1.71E+00
   299 Broy./Diag. 0.40E+00    9.4     1.46047889     -1077.0630295877 -1.32E-01
   300 Broy./Diag. 0.40E+00    9.5     1.47513497     -1076.6995596222  3.63E-01

  Leaving inner SCF loop after reaching   300 steps.


  Electronic density on regular grids:       -512.0000483013       -0.0000483013
  Core density on regular grids:              512.0001469479        0.0001469479
  Total charge density on r-space grids:        0.0000986466
  Total charge density g-space grids:           0.0000986466

  Overlap energy of the core charge distribution:               0.00000000000000
  Self energy of the core charge distribution:              -2838.21791979120962
  Core Hamiltonian energy:                                    758.91949944042551
  Hartree energy:                                            1241.10447258835688
  Exchange-correlation energy:                               -238.50561185975999

  Total energy:                                             -1076.69955962218705

 *** WARNING in qs_scf.F:542 :: SCF run NOT converged ***


 ENERGY| Total FORCE_EVAL ( QS ) energy (a.u.):            -1075.902773768551469


 ATOMIC FORCES in [a.u.]

 # Atom   Kind   Element          X              Y              Z
      1      1      O          -0.01815780    -0.01447877    -0.09100386
      2      2      H          -0.00105389     0.07286692     0.02272898
      3      2      H           0.03648440    -0.03101698     0.04027311
      4      1      O          -0.01548622     0.04468938    -0.00596149
      5      2      H           0.05052100    -0.00898990    -0.01005452
      6      2      H          -0.04804271    -0.01206094     0.05918576
      7      1      O           0.06003799     0.09228743     0.03434886
      8      2      H          -0.07825366     0.01930781    -0.04599571
      9      2      H           0.02062246    -0.08632687    -0.01793229
     10      1      O          -0.03500651     0.04049038     0.07656538
     11      2      H           0.01203517     0.03978159    -0.07128769
     12      2      H          -0.01345059    -0.05699299    -0.04004503
     13      1      O           0.01378752    -0.01295917     0.08151579
     14      2      H          -0.08370866     0.03493326    -0.02024932
     15      2      H           0.03238783    -0.04851280    -0.05541614
     16      1      O           0.04253544     0.04632299     0.01747393
     17      2      H           0.00537670     0.01012922    -0.05519831
     18      2      H          -0.01532725    -0.08345432     0.02877616
     19      1      O          -0.05897678    -0.04986015    -0.01956274
     20      2      H           0.01333935     0.07722779     0.03100748
     21      2      H           0.07022022    -0.02361846    -0.01738047
     22      1      O          -0.05744112    -0.04424795    -0.06797793
     23      2      H           0.00180925     0.07700318     0.01884692
     24      2      H           0.00539696    -0.03947976     0.05230390
     25      1      O           0.04321675    -0.07767319     0.05506876
     26      2      H          -0.01661791     0.05989653    -0.01851420
     27      2      H          -0.05281385     0.01108079     0.03915168
     28      1      O           0.05725742    -0.09061689    -0.00292662
     29      2      H          -0.01163753     0.06116029     0.05188305
     30      2      H          -0.02907421     0.01101826    -0.07907599
     31      1      O           0.01483396     0.02965638    -0.06766943
     32      2      H           0.04250891    -0.04215319     0.04727506
     33      2      H          -0.07709967    -0.03007659     0.00105760
     34      1      O          -0.07712267     0.01624161    -0.06503965
     35      2      H          -0.01173764    -0.00895057     0.08840558
     36      2      H           0.05574201     0.02669942    -0.03671673
     37      1      O           0.01674645    -0.08262697    -0.08526126
     38      2      H           0.04796016     0.05739277     0.00280380
     39      2      H          -0.04593594     0.00312708     0.06231905
     40      1      O           0.00700403     0.01729009    -0.07465282
     41      2      H          -0.06756303     0.01208552     0.05423232
     42      2      H           0.08073086     0.02656104     0.03110190
     43      1      O          -0.10781299     0.01043660    -0.04216699
     44      2      H           0.05989948     0.02680028    -0.05223245
     45      2      H           0.02691002    -0.00215580     0.05306624
     46      1      O          -0.08075939     0.04579607    -0.09730605
     47      2      H          -0.01084253     0.03980805     0.07758107
     48      2      H           0.05006172    -0.06656873    -0.00318505
     49      1      O          -0.01379893     0.03763224    -0.05375869
     50      2      H          -0.03133537    -0.04989335    -0.04064480
     51      2      H           0.00442288    -0.01314683     0.07239793
     52      1      O           0.05390395    -0.01055013     0.00150340
     53      2      H           0.02169984     0.05091052    -0.00505515
     54      2      H          -0.01876052     0.04034956     0.02635113
     55      1      O           0.02867522    -0.08463763    -0.02319155
     56      2      H          -0.06025535    -0.00063198     0.04062997
     57      2      H          -0.05124088     0.04221696    -0.02434955
     58      1      O           0.07219542    -0.01984917    -0.05902621
     59      2      H           0.02236890     0.06144307     0.03385973
     60      2      H          -0.00303106     0.00581160     0.06453055
     61      1      O          -0.08436739    -0.03506741     0.03814416
     62      2      H           0.01775880     0.07758267     0.01332989
     63      2      H           0.01764271    -0.05319526    -0.05936891
     64      1      O          -0.00633108     0.07727313    -0.03157263
     65      2      H           0.01330617    -0.01973028     0.04035773
     66      2      H          -0.04634917    -0.03218472    -0.02310334
     67      1      O          -0.07284362    -0.01838720     0.03520239
     68      2      H           0.06632929    -0.05984707     0.02985599
     69      2      H           0.03627438     0.04650384    -0.06018729
     70      1      O          -0.00683610    -0.07226723    -0.02148660
     71      2      H           0.05040129     0.00027037     0.07891983
     72      2      H          -0.04208775     0.05702452    -0.01444421
     73      1      O          -0.04899080     0.03922016    -0.00111940
     74      2      H           0.06031545     0.00103591     0.07582910
     75      2      H          -0.00863577    -0.05238772    -0.04804059
     76      1      O          -0.07681282     0.01997581    -0.07595687
     77      2      H           0.05950560    -0.07876208    -0.00888174
     78      2      H           0.02528801     0.03672471     0.07458129
     79      1      O          -0.01619919     0.07742549    -0.04078869
     80      2      H          -0.01860783    -0.05535259    -0.03525919
     81      2      H           0.03505843    -0.01348173     0.06229325
     82      1      O          -0.05943424     0.04017611     0.02443554
     83      2      H           0.05027961    -0.01140079    -0.00733720
     84      2      H          -0.00874149    -0.01662325    -0.00608275
     85      1      O          -0.00652937    -0.08515444     0.01778984
     86      2      H           0.00737638     0.01234723    -0.08967627
     87      2      H           0.06090197     0.03815988     0.02448294
     88      1      O           0.00416563     0.01020292    -0.02714998
     89      2      H           0.08915787     0.02935318    -0.00264628
     90      2      H          -0.05605708     0.06782077    -0.03301402
     91      1      O          -0.06367253     0.04109223     0.01899991
     92      2      H           0.04191411    -0.06540184     0.01974020
     93      2      H           0.04531519     0.06641368    -0.03248860
     94      1      O          -0.01783916     0.08138591    -0.06613345
     95      2      H           0.06895854    -0.01556810    -0.00935383
     96      2      H          -0.04206535    -0.05388515     0.05346823
     97      1      O           0.01788196    -0.00821017    -0.10375790
     98      2      H          -0.01731710     0.05951119     0.05394268
     99      2      H           0.03742876    -0.03685680     0.06335464
    100      1      O          -0.01877972    -0.02993351    -0.11021862
    101      2      H          -0.04451457    -0.02856086     0.06624314
    102      2      H           0.05550965     0.03938294     0.02811280
    103      1      O          -0.04259912    -0.04565993    -0.01898926
    104      2      H           0.04448736    -0.01149020     0.04453439
    105      2      H           0.01397596     0.07360949    -0.02934042
    106      1      O           0.05543164    -0.07564562    -0.03592131
    107      2      H          -0.04194944     0.04333004    -0.00666644
    108      2      H           0.01300385     0.00105768     0.05732190
    109      1      O          -0.08484607     0.02568659    -0.02083505
    110      2      H           0.03720070     0.06853499     0.05456507
    111      2      H           0.02493985    -0.05262224     0.02375308
    112      1      O          -0.02561510     0.01903800     0.01960942
    113      2      H           0.05680897     0.04214888     0.02853900
    114      2      H          -0.00557996    -0.04484364    -0.01976318
    115      1      O           0.00342282     0.10370146     0.01716816
    116      2      H          -0.02760055    -0.03414649    -0.09157961
    117      2      H           0.01779915    -0.05098018     0.03785078
    118      1      O           0.05568764    -0.01990459     0.05823869
    119      2      H          -0.01470154     0.00935422    -0.07150287
    120      2      H          -0.01807560     0.01697743     0.04134653
    121      1      O           0.00098023    -0.05900067    -0.03060732
    122      2      H           0.06072116     0.03383656    -0.01002175
    123      2      H          -0.05378731     0.03163615     0.00388263
    124      1      O          -0.08466182     0.04507683    -0.05536599
    125      2      H           0.01140896     0.01283146     0.08377821
    126      2      H           0.06311500    -0.03246308    -0.03356004
    127      1      O          -0.02146704     0.02908652     0.01401703
    128      2      H           0.03298051    -0.07151022    -0.01358825
    129      2      H           0.07888110     0.05890718     0.01439954
    130      1      O          -0.05138335    -0.00567254    -0.05420058
    131      2      H           0.06335047    -0.03928535     0.00044687
    132      2      H           0.00938064     0.07548180     0.04174986
    133      1      O          -0.04286262    -0.08155416    -0.07289895
    134      2      H           0.07082615     0.01871606     0.03227094
    135      2      H          -0.06898239     0.06080051     0.02524922
    136      1      O           0.04666291     0.02824430    -0.02747796
    137      2      H           0.04686966    -0.04853470     0.04931812
    138      2      H          -0.08694944     0.00427590     0.01795731
    139      1      O          -0.06279619    -0.05819378    -0.01632455
    140      2      H           0.05244984     0.02828737    -0.04262919
    141      2      H          -0.01933059     0.05358703     0.06486695
    142      1      O          -0.05490809    -0.07303653    -0.02042716
    143      2      H           0.04830105     0.02886723    -0.03449596
    144      2      H           0.02986472     0.01211384     0.06446335
    145      1      O          -0.03462552     0.02839804     0.08995957
    146      2      H          -0.01588111    -0.05358343    -0.02980675
    147      2      H           0.06070053     0.05048863    -0.03026032
    148      1      O           0.10200262    -0.04277088    -0.06879591
    149      2      H          -0.00839001     0.07100308     0.00228359
    150      2      H          -0.06085321    -0.04366427     0.03678683
    151      1      O           0.02093081     0.06140968    -0.02036441
    152      2      H          -0.03469234    -0.03123566     0.08154478
    153      2      H          -0.00854855    -0.03923584    -0.06755175
    154      1      O           0.03658600     0.02271068     0.05832633
    155      2      H           0.04637141    -0.05205324    -0.05829199
    156      2      H          -0.07590273     0.01345370    -0.00819371
    157      1      O          -0.03092890     0.07127318     0.00079579
    158      2      H          -0.03522379    -0.08348638     0.01884286
    159      2      H           0.01662028     0.02107714    -0.06527537
    160      1      O           0.05468098     0.03520167     0.03111617
    161      2      H          -0.05915584     0.05160746    -0.04178325
    162      2      H          -0.01062929    -0.06996826    -0.01678167
    163      1      O          -0.09668154     0.02043609    -0.05042023
    164      2      H           0.08590291     0.03652343     0.00662296
    165      2      H          -0.00306354    -0.06757743     0.02599855
    166      1      O           0.05941034    -0.07314556    -0.07198211
    167      2      H           0.00510355    -0.01697449     0.07074516
    168      2      H          -0.05756803     0.04838768    -0.00817799
    169      1      O          -0.05153818     0.06665812     0.02174416
    170      2      H          -0.04322950    -0.09059980     0.02000159
    171      2      H           0.06548913     0.01583897     0.01360200
    172      1      O          -0.04207779     0.07487845    -0.05015451
    173      2      H          -0.02647397    -0.04788990     0.02059813
    174      2      H           0.04690939     0.03504414     0.05307309
    175      1      O           0.07367479     0.07664265    -0.08637543
    176      2      H          -0.06148948     0.02007596     0.06259462
    177      2      H          -0.00241881    -0.06417075     0.00247138
    178      1      O           0.04184864     0.01122116     0.04702793
    179      2      H           0.04363697    -0.02744467    -0.04398664
    180      2      H          -0.06857977     0.00285434    -0.03334515
    181      1      O           0.01561590    -0.08217177     0.07088564
    182      2      H          -0.01159273     0.01262252    -0.05966474
    183      2      H          -0.05791213     0.06374172    -0.02453861
    184      1      O           0.04533279     0.04937217     0.02697399
    185      2      H          -0.01477464    -0.03578762    -0.06757261
    186      2      H          -0.00993992    -0.01361594     0.03379337
    187      1      O          -0.01039074    -0.07622872    -0.05100194
    188      2      H           0.06113436     0.02514078     0.06452786
    189      2      H          -0.05707171     0.03938317    -0.00795177
    190      1      O           0.00386907    -0.06548099     0.01347264
    191      2      H          -0.03301587    -0.09444364     0.04362549
    192      2      H           0.05928067    -0.03214131    -0.02738111
 SUM OF ATOMIC FORCES           0.02901090     0.17596678    -0.15469071     0.23608294

 -------------------------------------------------------------------------------
 -                                                                             -
 -                                DBCSR STATISTICS                             -
 -                                                                             -
 -------------------------------------------------------------------------------
 COUNTER                                    TOTAL       BLAS       SMM       ACC
 flops     5 x     5 x   256           5686732800       0.0%    100.0%      0.0%
 flops    13 x     5 x   256           6821767680       0.0%    100.0%      0.0%
 flops     5 x    13 x   256           6982044160       0.0%    100.0%      0.0%
 flops    13 x    13 x   256           9271994368       0.0%    100.0%      0.0%
 flops inhomo. stacks                           0       0.0%      0.0%      0.0%
 flops total                        28.762539E+09       0.0%    100.0%      0.0%
 flops max/rank                     28.762539E+09       0.0%    100.0%      0.0%
 matmuls inhomo. stacks                         0       0.0%      0.0%      0.0%
 matmuls total                             966210       0.0%    100.0%      0.0%
 number of processed stacks                 42140       0.0%    100.0%      0.0%
 average stack size                                     0.0      22.9       0.0
 marketing flops                   333.927416E+09
 -------------------------------------------------------------------------------
 # multiplications                            301
 max memory usage/rank               4.978536E+09
 # max total images/rank                        1
 # max 3D layers                                1
 # MPI messages exchanged                       0
 MPI messages size (bytes):
  total size                         0.000000E+00
  min size                           0.000000E+00
  max size                           0.000000E+00
  average size                       0.000000E+00
 MPI breakdown and total messages size (bytes):
             size <=      128                   0                        0
       128 < size <=     8192                   0                        0
      8192 < size <=    32768                   0                        0
     32768 < size <=   131072                   0                        0
    131072 < size <=  4194304                   0                        0
   4194304 < size <= 16777216                   0                        0
  16777216 < size                               0                        0
 -------------------------------------------------------------------------------

 MEMORY| Estimated peak process memory [MiB]                                4742

 -------------------------------------------------------------------------------
 -                                                                             -
 -                           R E F E R E N C E S                               -
 -                                                                             -
 -------------------------------------------------------------------------------
 
 CP2K version 7.1, the CP2K developers group (2019).
 CP2K is freely available from https://www.cp2k.org/ .

 Schuett, Ole; Messmer, Peter; Hutter, Juerg; VandeVondele, Joost. 
 Electronic Structure Calculations on Graphics Processing Units, John
 Wiley & Sons, Ltd, 173-190 (2016). 
 GPU-Accelerated Sparse Matrix-Matrix Multiplication for
 Linear Scaling Density Functional Theory.
 https://dx.doi.org/10.1002/9781118670712.ch8

 Borstnik, U; VandeVondele, J; Weber, V; Hutter, J. 
 PARALLEL COMPUTING, 40 (5-6), 47-58 (2014). 
 Sparse matrix multiplication: The distributed block-compressed sparse
 row library.
 https://dx.doi.org/10.1016/j.parco.2014.03.012

 Hutter, J; Iannuzzi, M; Schiffmann, F; VandeVondele, J. 
 WIREs Comput Mol Sci., 4 (1), 15-25 (2014). 
 CP2K: atomistic simulations of condensed matter systems.
 https://dx.doi.org/10.1002/wcms.1159

 Krack, M. 
 THEORETICAL CHEMISTRY ACCOUNTS, 114 (1-3), 145-152 (2005). 
 Pseudopotentials for H to Kr optimized for gradient-corrected
 exchange-correlation functionals.
 https://dx.doi.org/10.1007/s00214-005-0655-y

 VandeVondele, J; Krack, M; Mohamed, F; Parrinello, M; Chassaing, T;
 Hutter, J. COMPUTER PHYSICS COMMUNICATIONS, 167 (2), 103-128 (2005). 
 QUICKSTEP: Fast and accurate density functional calculations using a
 mixed Gaussian and plane waves approach.
 https://dx.doi.org/10.1016/j.cpc.2004.12.014

 Frigo, M; Johnson, SG. 
 PROCEEDINGS OF THE IEEE, 93 (2), 216-231 (2005). 
 The design and implementation of FFTW3.
 https://dx.doi.org/10.1109/JPROC.2004.840301

 Hartwigsen, C; Goedecker, S; Hutter, J. 
 PHYSICAL REVIEW B, 58 (7), 3641-3662 (1998). 
 Relativistic separable dual-space Gaussian pseudopotentials from H to Rn.
 https://dx.doi.org/10.1103/PhysRevB.58.3641

 Lippert, G; Hutter, J; Parrinello, M. 
 MOLECULAR PHYSICS, 92 (3), 477-487 (1997). 
 A hybrid Gaussian and plane wave density functional scheme.
 https://dx.doi.org/10.1080/002689797170220

 Goedecker, S; Teter, M; Hutter, J. 
 PHYSICAL REVIEW B, 54 (3), 1703-1710 (1996). 
 Separable dual-space Gaussian pseudopotentials.
 https://dx.doi.org/10.1103/PhysRevB.54.1703


 -------------------------------------------------------------------------------
 -                                                                             -
 -                                T I M I N G                                  -
 -                                                                             -
 -------------------------------------------------------------------------------
 SUBROUTINE                       CALLS  ASD         SELF TIME        TOTAL TIME
                                MAXIMUM       AVERAGE  MAXIMUM  AVERAGE  MAXIMUM
 CP2K                                 1  1.0    0.186    0.186 2819.841 2819.841
 qs_forces                            1  2.0    0.000    0.000 2817.915 2817.915
 qs_energies                          1  3.0    0.000    0.000 2817.183 2817.183
 scf_env_do_scf                       1  4.0    0.001    0.001 2814.766 2814.766
 scf_env_do_scf_inner_loop          300  5.0    0.062    0.062 2814.765 2814.765
 qs_scf_new_mos                     300  6.0    0.010    0.010 2005.617 2005.617
 eigensolver                        300  7.0    0.048    0.048 1972.098 1972.098
 cp_fm_syevd                        300  8.0 1278.439 1278.439 1280.220 1280.220
 cp_fm_cholesky_restore             900  8.0  690.808  690.808  690.808  690.808
 gspace_mixing                      299  6.0    6.743    6.743  455.391  455.391
 broyden_mixing                     299  7.0  412.684  412.684  412.687  412.687
 rebuild_ks_matrix                  301  7.0    0.001    0.001  184.164  184.164
 qs_ks_build_kohn_sham_matrix       301  8.0    0.077    0.077  184.163  184.163
 qs_ks_update_qs_env                300  6.0    0.003    0.003  183.975  183.975
 pw_transfer                       3912  9.9    0.338    0.338  171.321  171.321
 qs_rho_update_rho                  301  6.0    0.003    0.003  168.673  168.673
 calculate_rho_elec                 301  7.0   80.583   80.583  168.670  168.670
 fft_wrap_pw1pw2                   3310 10.9    0.038    0.038  166.524  166.524
 fft_wrap_pw1pw2_70                1504 11.2   18.692   18.692  155.719  155.719
 density_rs2pw                      301  8.0    0.027    0.027   85.148   85.148
 fft3d_s                           3311 12.9   74.939   74.939   74.962   74.962
 pw_poisson_solve                   301  9.0   54.424   54.424   58.997   58.997
 pw_scatter_s                      1804 13.2   58.589   58.589   58.589   58.589
 -------------------------------------------------------------------------------

 The number of warnings for this run is : 1
 
 -------------------------------------------------------------------------------
  **** **** ******  **  PROGRAM ENDED AT                 2021-01-13 18:00:55.166
 ***** ** ***  *** **   PROGRAM RAN ON                                   gnode23
 **    ****   ******    PROGRAM RAN BY                               mayank.modi
 ***** **    ** ** **   PROGRAM PROCESS ID                                 23224
  **** **  *******  **  PROGRAM STOPPED IN /home/mayank.modi/ab-initio-thermodyn
                                           amics-of-water/mayank/cp2k_energy_cal
                                           culations
