 DBCSR| CPU Multiplication driver                                           XSMM
 DBCSR| Multrec recursion limit                                              512
 DBCSR| Multiplication stack size                                           1000
 DBCSR| Maximum elements for images                                    UNLIMITED
 DBCSR| Multiplicative factor virtual images                                   1
 DBCSR| Use multiplication densification                                       T
 DBCSR| Multiplication size stacks                                             3


  **** **** ******  **  PROGRAM STARTED AT               2021-02-20 19:21:14.641
 ***** ** ***  *** **   PROGRAM STARTED ON                               gnode68
 **    ****   ******    PROGRAM STARTED BY                           mayank.modi
 ***** **    ** ** **   PROGRAM PROCESS ID                                 36170
  **** **  *******  **  PROGRAM STARTED IN /home/mayank.modi/ab-initio-thermodyn
                                           amics-of-water/mayank/cp2k_energy_cal
                                           culations

 CP2K| version string:                                          CP2K version 7.1
 CP2K| source code revision number:                                  git:e635599
 CP2K| cp2kflags: omp libint fftw3 libxc xsmm spglib                            
 CP2K| is freely available from                            https://www.cp2k.org/
 CP2K| Program compiled at                          Mon Dec 23 19:23:12 CET 2019
 CP2K| Program compiled on                                                pc9404
 CP2K| Program compiled for                                Linux-x86-64-gfortran
 CP2K| Data directory path                                        /opt/cp2k/data
 CP2K| Input file name                  input_training_correct_cell/input1068.in

 GLOBAL| Force Environment number                                              1
 GLOBAL| Basis set file name                                           BASIS_SET
 GLOBAL| Potential file name                                      GTH_POTENTIALS
 GLOBAL| MM Potential file name                                     MM_POTENTIAL
 GLOBAL| Coordinate file name                                      __STD_INPUT__
 GLOBAL| Method name                                                        CP2K
 GLOBAL| Project name                                                   H2O_bulk
 GLOBAL| Preferred FFT library                                             FFTW3
 GLOBAL| Preferred diagonalization lib.                                       SL
 GLOBAL| Run type                                                   ENERGY_FORCE
 GLOBAL| All-to-all communication in single precision                          F
 GLOBAL| FFTs using library dependent lengths                                  F
 GLOBAL| Global print level                                                  LOW
 GLOBAL| MPI I/O enabled                                                       T
 GLOBAL| Total number of message passing processes                             1
 GLOBAL| Number of threads for this process                                   36
 GLOBAL| This output is from process                                           0
 GLOBAL| CPU model name                Intel(R) Xeon(R) CPU E5-2640 v4 @ 2.40GHz
 GLOBAL| CPUID                                                              1002
 GLOBAL| Compiled for CPUID                                                    0

 MEMORY| system memory details [Kb]
 MEMORY|                        rank 0           min           max       average
 MEMORY| MemTotal            131893512     131893512     131893512     131893512
 MEMORY| MemFree             119737952     119737952     119737952     119737952
 MEMORY| Buffers               1023996       1023996       1023996       1023996
 MEMORY| Cached                9682556       9682556       9682556       9682556
 MEMORY| Slab                  1008068       1008068       1008068       1008068
 MEMORY| SReclaimable           619568        619568        619568        619568
 MEMORY| MemLikelyFree       131064072     131064072     131064072     131064072


 GENERATE|  Preliminary Number of Bonds generated:                             0
 GENERATE|  Achieved consistency in connectivity generation.

 *******************************************************************************
 *******************************************************************************
 **                                                                           **
 **     #####                         ##              ##                      **
 **    ##   ##            ##          ##              ##                      **
 **   ##     ##                       ##            ######                    **
 **   ##     ##  ##   ##  ##   #####  ##  ##   ####   ##    #####    #####    **
 **   ##     ##  ##   ##  ##  ##      ## ##   ##      ##   ##   ##  ##   ##   **
 **   ##  ## ##  ##   ##  ##  ##      ####     ###    ##   ######   ######    **
 **    ##  ###   ##   ##  ##  ##      ## ##      ##   ##   ##       ##        **
 **     #######   #####   ##   #####  ##  ##  ####    ##    #####   ##        **
 **           ##                                                    ##        **
 **                                                                           **
 **                                                ... make the atoms dance   **
 **                                                                           **
 **            Copyright (C) by CP2K developers group (2000 - 2019)           **
 **                                                                           **
 *******************************************************************************


 TOTAL NUMBERS AND MAXIMUM NUMBERS

  Total number of            - Atomic kinds:                                   2
                             - Atoms:                                        192
                             - Shell sets:                                   384
                             - Shells:                                       704
                             - Primitive Cartesian functions:                960
                             - Cartesian basis functions:                   1536
                             - Spherical basis functions:                   1472

  Maximum angular momentum of- Orbital basis functions:                        2
                             - Local part of the GTH pseudopotential:          2
                             - Non-local part of the GTH pseudopotential:      0


 SCF PARAMETERS         Density guess:                                    ATOMIC
                        --------------------------------------------------------
                        max_scf:                                             300
                        max_scf_history:                                       0
                        max_diis:                                              4
                        --------------------------------------------------------
                        eps_scf:                                        1.00E-07
                        eps_scf_history:                                0.00E+00
                        eps_diis:                                       1.00E-01
                        eps_eigval:                                     1.00E-05
                        --------------------------------------------------------
                        level_shift [a.u.]:                                 0.00
                        --------------------------------------------------------
                        Mixing method:                            BROYDEN_MIXING
                                                charge density mixing in g-space
                        --------------------------------------------------------
                        No outer SCF

 Number of electrons:                                                        512
 Number of occupied orbitals:                                                256
 Number of molecular orbitals:                                               256

 Number of orbital functions:                                               1472
 Number of independent orbital functions:                                   1472

 Extrapolation method: initial_guess


 SCF WAVEFUNCTION OPTIMIZATION

  Step     Update method      Time    Convergence         Total energy    Change
  ------------------------------------------------------------------------------
     1 NoMix/Diag. 0.40E+00    7.2     0.63173004     -1063.9671534369 -1.06E+03
     2 Broy./Diag. 0.40E+00    7.9     1.78902353      -993.2833726625  7.07E+01
     3 Broy./Diag. 0.40E+00    8.0     1.87796307     -1272.2272650589 -2.79E+02
     4 Broy./Diag. 0.40E+00    8.1     1.73070370     -1116.8692781779  1.55E+02
     5 Broy./Diag. 0.40E+00    8.2     1.47916319     -1095.5801942219  2.13E+01
     6 Broy./Diag. 0.40E+00    8.4     1.60951620     -1097.4136558221 -1.83E+00
     7 Broy./Diag. 0.40E+00    8.4     1.47381383     -1092.8078328067  4.61E+00
     8 Broy./Diag. 0.40E+00    8.7     0.81659945     -1078.8165139322  1.40E+01
     9 Broy./Diag. 0.40E+00    9.2     0.21306843     -1072.9268863887  5.89E+00
    10 Broy./Diag. 0.40E+00    9.3     0.22327785     -1073.9176623476 -9.91E-01
    11 Broy./Diag. 0.40E+00    9.1     0.10011071     -1074.5004452299 -5.83E-01
    12 Broy./Diag. 0.40E+00    9.6     1.07253785     -1073.7751028093  7.25E-01
    13 Broy./Diag. 0.40E+00    9.4     1.10043254     -1074.8201688716 -1.05E+00
    14 Broy./Diag. 0.40E+00    9.4     0.11997644     -1074.8791172042 -5.89E-02
    15 Broy./Diag. 0.40E+00    9.6     0.11176504     -1076.2416567059 -1.36E+00
    16 Broy./Diag. 0.40E+00    9.4     0.07191721     -1076.9347857034 -6.93E-01
    17 Broy./Diag. 0.40E+00    9.5     0.08699855     -1075.7656649345  1.17E+00
    18 Broy./Diag. 0.40E+00    9.4     0.04552760     -1076.4584855840 -6.93E-01
    19 Broy./Diag. 0.40E+00    9.6     0.01620786     -1075.4895751997  9.69E-01
    20 Broy./Diag. 0.40E+00    9.6     0.01945947     -1075.9563169294 -4.67E-01
    21 Broy./Diag. 0.40E+00    9.2     0.00843024     -1075.7522871211  2.04E-01
    22 Broy./Diag. 0.40E+00    8.7     0.03294689     -1075.6553080693  9.70E-02
    23 Broy./Diag. 0.40E+00    8.8     0.02207051     -1075.7121847317 -5.69E-02
    24 Broy./Diag. 0.40E+00    9.0     0.01211834     -1075.7366540117 -2.45E-02
    25 Broy./Diag. 0.40E+00    8.9     0.00915050     -1075.5590271676  1.78E-01
    26 Broy./Diag. 0.40E+00    9.4     0.00435746     -1075.7802155403 -2.21E-01
    27 Broy./Diag. 0.40E+00    9.6     0.00438256     -1075.6907591182  8.95E-02
    28 Broy./Diag. 0.40E+00    9.3     0.00349448     -1075.7341590147 -4.34E-02
    29 Broy./Diag. 0.40E+00    9.4     0.00326155     -1075.7104825688  2.37E-02
    30 Broy./Diag. 0.40E+00    9.4     0.00385556     -1075.6816426064  2.88E-02
    31 Broy./Diag. 0.40E+00    9.5     0.00315710     -1075.7223033165 -4.07E-02
    32 Broy./Diag. 0.40E+00    9.4     0.00346221     -1075.7322970408 -9.99E-03
    33 Broy./Diag. 0.40E+00    9.3     0.00384629     -1075.7170850932  1.52E-02
    34 Broy./Diag. 0.40E+00    9.6     0.00232316     -1075.7041755618  1.29E-02
    35 Broy./Diag. 0.40E+00    9.4     0.00205286     -1075.7258327872 -2.17E-02
    36 Broy./Diag. 0.40E+00    9.5     0.00083865     -1075.7141812316  1.17E-02
    37 Broy./Diag. 0.40E+00    9.5     0.00064438     -1075.7115195172  2.66E-03
    38 Broy./Diag. 0.40E+00    9.3     0.00042905     -1075.7111222181  3.97E-04
    39 Broy./Diag. 0.40E+00    9.3     0.00050114     -1075.7141161474 -2.99E-03
    40 Broy./Diag. 0.40E+00    9.4     0.00045079     -1075.7128089175  1.31E-03
    41 Broy./Diag. 0.40E+00    9.3     0.00051790     -1075.7159763795 -3.17E-03
    42 Broy./Diag. 0.40E+00    9.1     0.00040005     -1075.7083214632  7.65E-03
    43 Broy./Diag. 0.40E+00    8.8     0.00037707     -1075.7153645480 -7.04E-03
    44 Broy./Diag. 0.40E+00    8.8     0.00040092     -1075.7163844823 -1.02E-03
    45 Broy./Diag. 0.40E+00    8.7     0.00031051     -1075.7128900063  3.49E-03
    46 Broy./Diag. 0.40E+00    8.9     0.00023594     -1075.7137904775 -9.00E-04
    47 Broy./Diag. 0.40E+00    9.0     0.00012860     -1075.7152596561 -1.47E-03
    48 Broy./Diag. 0.40E+00    8.8     0.00008993     -1075.7145300517  7.30E-04
    49 Broy./Diag. 0.40E+00    8.8     0.00010436     -1075.7136858124  8.44E-04
    50 Broy./Diag. 0.40E+00    8.8     0.00006886     -1075.7146210275 -9.35E-04
    51 Broy./Diag. 0.40E+00    8.8     0.00007994     -1075.7144283977  1.93E-04
    52 Broy./Diag. 0.40E+00    8.7     0.00004758     -1075.7145707293 -1.42E-04
    53 Broy./Diag. 0.40E+00    8.8     0.00002869     -1075.7141835985  3.87E-04
    54 Broy./Diag. 0.40E+00    9.5     0.00002947     -1075.7144401230 -2.57E-04
    55 Broy./Diag. 0.40E+00    9.5     0.00003970     -1075.7145573064 -1.17E-04
    56 Broy./Diag. 0.40E+00    9.6     0.00004829     -1075.7144344770  1.23E-04
    57 Broy./Diag. 0.40E+00    9.4     0.00002475     -1075.7144911214 -5.66E-05
    58 Broy./Diag. 0.40E+00    9.5     0.00001530     -1075.7144031421  8.80E-05
    59 Broy./Diag. 0.40E+00    9.3     0.00001660     -1075.7145229486 -1.20E-04
    60 Broy./Diag. 0.40E+00    9.4     0.00001101     -1075.7144289719  9.40E-05
    61 Broy./Diag. 0.40E+00    9.3     0.00001370     -1075.7144891640 -6.02E-05
    62 Broy./Diag. 0.40E+00    9.0     0.00000967     -1075.7144006751  8.85E-05
    63 Broy./Diag. 0.40E+00    9.4     0.00000651     -1075.7144843474 -8.37E-05
    64 Broy./Diag. 0.40E+00    9.6     0.00000767     -1075.7144481916  3.62E-05
    65 Broy./Diag. 0.40E+00    9.5     0.00000701     -1075.7144122158  3.60E-05
    66 Broy./Diag. 0.40E+00    9.4     0.00001031     -1075.7144605507 -4.83E-05
    67 Broy./Diag. 0.40E+00    9.3     0.00000895     -1075.7144534366  7.11E-06
    68 Broy./Diag. 0.40E+00    9.1     0.00000452     -1075.7144794537 -2.60E-05
    69 Broy./Diag. 0.40E+00    9.2     0.00000397     -1075.7144281583  5.13E-05
    70 Broy./Diag. 0.40E+00    9.4     0.00000380     -1075.7144759180 -4.78E-05
    71 Broy./Diag. 0.40E+00    9.2     0.00000431     -1075.7144494488  2.65E-05
    72 Broy./Diag. 0.40E+00    9.1     0.00000379     -1075.7144633213 -1.39E-05
    73 Broy./Diag. 0.40E+00    8.9     0.00000246     -1075.7144420451  2.13E-05
    74 Broy./Diag. 0.40E+00    9.2     0.00000155     -1075.7144584895 -1.64E-05
    75 Broy./Diag. 0.40E+00    9.6     0.00000215     -1075.7144564345  2.06E-06
    76 Broy./Diag. 0.40E+00    9.6     0.00000223     -1075.7144511109  5.32E-06
    77 Broy./Diag. 0.40E+00    9.4     0.00000229     -1075.7144514688 -3.58E-07
    78 Broy./Diag. 0.40E+00    9.3     0.00000133     -1075.7144486816  2.79E-06
    79 Broy./Diag. 0.40E+00    9.1     0.00000075     -1075.7144622523 -1.36E-05
    80 Broy./Diag. 0.40E+00    9.7     0.00000068     -1075.7144491607  1.31E-05
    81 Broy./Diag. 0.40E+00    9.3     0.00000073     -1075.7144552494 -6.09E-06
    82 Broy./Diag. 0.40E+00    9.0     0.00000075     -1075.7144541913  1.06E-06
    83 Broy./Diag. 0.40E+00    9.3     0.00000064     -1075.7144570525 -2.86E-06
    84 Broy./Diag. 0.40E+00    9.3     0.00000058     -1075.7144524226  4.63E-06
    85 Broy./Diag. 0.40E+00    9.5     0.00000051     -1075.7144547892 -2.37E-06
    86 Broy./Diag. 0.40E+00    9.3     0.00000088     -1075.7144547060  8.32E-08
    87 Broy./Diag. 0.40E+00    9.3     0.00000068     -1075.7144549471 -2.41E-07
    88 Broy./Diag. 0.40E+00    9.1     0.00000062     -1075.7144551052 -1.58E-07
    89 Broy./Diag. 0.40E+00    9.5     0.00000031     -1075.7144508681  4.24E-06
    90 Broy./Diag. 0.40E+00    9.3     0.00000026     -1075.7144561787 -5.31E-06
    91 Broy./Diag. 0.40E+00    9.0     0.00000021     -1075.7144540553  2.12E-06
    92 Broy./Diag. 0.40E+00    9.4     0.00000024     -1075.7144538767  1.79E-07
    93 Broy./Diag. 0.40E+00    9.5     0.00000021     -1075.7144533208  5.56E-07
    94 Broy./Diag. 0.40E+00    9.4     0.00000017     -1075.7144552688 -1.95E-06
    95 Broy./Diag. 0.40E+00    9.5     0.00000020     -1075.7144534566  1.81E-06
    96 Broy./Diag. 0.40E+00    9.2     0.00000034     -1075.7144539784 -5.22E-07
    97 Broy./Diag. 0.40E+00    8.9     0.00000022     -1075.7144540252 -4.68E-08
    98 Broy./Diag. 0.40E+00    8.9     0.00000018     -1075.7144539487  7.65E-08
    99 Broy./Diag. 0.40E+00    8.8     0.00000011     -1075.7144546728 -7.24E-07
   100 Broy./Diag. 0.40E+00    9.0     0.00000011     -1075.7144534112  1.26E-06
   101 Broy./Diag. 0.40E+00    9.3     0.00000008     -1075.7144540892 -6.78E-07

  *** SCF run converged in   101 steps ***


  Electronic density on regular grids:       -512.0002740104       -0.0002740104
  Core density on regular grids:              512.0000692239        0.0000692239
  Total charge density on r-space grids:       -0.0002047865
  Total charge density g-space grids:          -0.0002047865

  Overlap energy of the core charge distribution:               0.00000000000000
  Self energy of the core charge distribution:              -2838.21791979120962
  Core Hamiltonian energy:                                    759.72573326509416
  Hartree energy:                                            1241.15661714160706
  Exchange-correlation energy:                               -238.37888470470895

  Total energy:                                             -1075.71445408921727

 ENERGY| Total FORCE_EVAL ( QS ) energy (a.u.):            -1075.714454095878864


 ATOMIC FORCES in [a.u.]

 # Atom   Kind   Element          X              Y              Z
      1      1      O           0.00666743    -0.01464899     0.09278918
      2      2      H          -0.03020599    -0.03753611    -0.08641050
      3      2      H           0.06924649     0.03457600    -0.03419095
      4      1      O           0.01556819    -0.08580585    -0.06760893
      5      2      H          -0.04958156     0.03658965    -0.00940436
      6      2      H           0.02317164     0.02844736     0.06148436
      7      1      O          -0.08812866    -0.11833164     0.02850394
      8      2      H          -0.01532346     0.09681704    -0.00172055
      9      2      H           0.04954667     0.01626094    -0.02181438
     10      1      O           0.01328038     0.10294410    -0.07654066
     11      2      H          -0.06476254    -0.04177532     0.04614598
     12      2      H           0.02731643    -0.03847635    -0.00466520
     13      1      O           0.08339382    -0.00017072    -0.02991649
     14      2      H          -0.00782285    -0.04775475    -0.07673785
     15      2      H          -0.02920226     0.00840854     0.07738001
     16      1      O           0.00812326     0.01468168    -0.02996343
     17      2      H          -0.00209328     0.00684989     0.03904768
     18      2      H          -0.07368228    -0.07007356    -0.00601091
     19      1      O           0.00223288     0.10378971    -0.02898079
     20      2      H           0.04678384    -0.04545605    -0.05638397
     21      2      H          -0.02050319     0.00009949     0.08835816
     22      1      O           0.05715386     0.08017654    -0.05185455
     23      2      H          -0.06481952     0.03235864     0.02779441
     24      2      H           0.03912521    -0.06189542     0.07343727
     25      1      O           0.04125397     0.09390678     0.05220428
     26      2      H          -0.05198766    -0.00531050    -0.04628406
     27      2      H          -0.01034946    -0.03616836    -0.00096822
     28      1      O           0.02426057    -0.03494727     0.01780780
     29      2      H          -0.08026073     0.00674567     0.00185851
     30      2      H           0.03339413     0.03353908    -0.06611821
     31      1      O          -0.01665976    -0.01584195    -0.02014082
     32      2      H           0.04667677     0.04353894    -0.00518886
     33      2      H          -0.01889105    -0.04628934     0.06062020
     34      1      O           0.04894706    -0.04942373    -0.05351732
     35      2      H          -0.01730045     0.08694425     0.06252670
     36      2      H          -0.07550337    -0.07578575     0.01241361
     37      1      O          -0.07932288    -0.13141083    -0.04644572
     38      2      H          -0.02279716     0.08989025     0.02045344
     39      2      H           0.07811670     0.02965300    -0.00501966
     40      1      O           0.06147493     0.04723538     0.01301564
     41      2      H          -0.06616096     0.01662561     0.08203663
     42      2      H          -0.03414220     0.02121812    -0.06884335
     43      1      O           0.10661873    -0.07321112    -0.04968432
     44      2      H          -0.02285460    -0.00776894     0.02562404
     45      2      H          -0.02881794     0.04815190    -0.03757731
     46      1      O          -0.06029954    -0.10124048    -0.08434653
     47      2      H          -0.04883694     0.01513722     0.04645969
     48      2      H           0.04277586     0.03549401    -0.02342042
     49      1      O          -0.02269548    -0.03992728    -0.08762019
     50      2      H           0.00515443     0.04600987     0.06807111
     51      2      H          -0.05676518    -0.06183614    -0.00690853
     52      1      O          -0.05187489    -0.08597769     0.03940414
     53      2      H           0.01166788     0.02266511    -0.05339613
     54      2      H           0.02493752     0.07780643     0.00997195
     55      1      O          -0.01310543     0.08145484    -0.05755037
     56      2      H          -0.03566456    -0.04859375    -0.01372080
     57      2      H           0.04337089     0.01856922     0.09663408
     58      1      O          -0.06033635     0.08249600    -0.03277634
     59      2      H           0.07087729    -0.00980028    -0.03441527
     60      2      H           0.01458014    -0.02754528     0.08199125
     61      1      O          -0.02977959    -0.02996012     0.06920426
     62      2      H           0.02069776     0.07970940     0.00555487
     63      2      H           0.02101866    -0.05728346    -0.05269774
     64      1      O           0.01184976    -0.05999133     0.00495245
     65      2      H           0.06785173     0.04971408     0.05110506
     66      2      H          -0.05938328     0.04238381     0.01941364
     67      1      O           0.08805252    -0.06011947    -0.06758739
     68      2      H          -0.01811264     0.08586377     0.00413626
     69      2      H          -0.02948789    -0.01866585     0.05692261
     70      1      O           0.01811473    -0.07884088     0.10518250
     71      2      H           0.06073539    -0.02093396    -0.03209203
     72      2      H          -0.02814863     0.09915762    -0.02602122
     73      1      O          -0.04277198     0.11088348    -0.04369099
     74      2      H           0.08119321    -0.03679051    -0.00502929
     75      2      H          -0.06451703    -0.03130976     0.06622626
     76      1      O          -0.02738611    -0.04381721    -0.00289957
     77      2      H           0.05663874    -0.01044263    -0.06834018
     78      2      H          -0.03986040     0.01504539     0.03755922
     79      1      O          -0.05386552     0.07591838     0.03752862
     80      2      H           0.03741707    -0.01498005     0.02435187
     81      2      H          -0.01989712    -0.02718015    -0.05129533
     82      1      O          -0.01392680    -0.06764548     0.09065852
     83      2      H          -0.05614457    -0.01627692    -0.04837958
     84      2      H           0.04959654     0.02708785    -0.01249344
     85      1      O          -0.01127637    -0.00108145    -0.10977811
     86      2      H          -0.03202144    -0.06137449     0.06516538
     87      2      H          -0.01435683     0.06471704    -0.00835074
     88      1      O           0.00444517    -0.10314098    -0.05008741
     89      2      H           0.05148013     0.04890161     0.03857500
     90      2      H          -0.03798932     0.03822316    -0.02355771
     91      1      O          -0.08454352    -0.06979096    -0.01381052
     92      2      H           0.03720705     0.09055239    -0.01412857
     93      2      H           0.00560467    -0.00072489     0.05753657
     94      1      O          -0.08486751     0.03650869     0.04162908
     95      2      H           0.06004362     0.06361734     0.02194443
     96      2      H          -0.00834840    -0.10277937    -0.03489591
     97      1      O           0.03565961    -0.04932826    -0.00545701
     98      2      H          -0.04361098    -0.02367831     0.04055149
     99      2      H          -0.03929702     0.06223452    -0.03243479
    100      1      O           0.05085054    -0.05712525     0.10605459
    101      2      H          -0.01795781    -0.01674414    -0.07873900
    102      2      H           0.03244667     0.07035873    -0.01340130
    103      1      O          -0.01695559    -0.05042290    -0.10019018
    104      2      H          -0.03206511     0.06089327     0.05790191
    105      2      H           0.05362854    -0.00210549    -0.00128113
    106      1      O           0.01788678     0.05511563    -0.07319206
    107      2      H          -0.06063308    -0.01656330     0.03173753
    108      2      H           0.02400738    -0.08216191     0.03772562
    109      1      O          -0.00583793    -0.10124453    -0.02425760
    110      2      H          -0.02711129    -0.01899821     0.03944809
    111      2      H           0.00705802     0.04950105    -0.04974557
    112      1      O           0.07726348     0.09312589    -0.06281800
    113      2      H           0.01369814    -0.05305591     0.03018326
    114      2      H          -0.06191363    -0.00576804    -0.00552616
    115      1      O           0.05245328    -0.09119209    -0.07448573
    116      2      H          -0.05879538     0.08622498     0.04048092
    117      2      H          -0.01061190    -0.03302316     0.05902766
    118      1      O           0.00213992     0.05893780    -0.07910534
    119      2      H          -0.09768570    -0.01227513     0.05328912
    120      2      H           0.04587872     0.00495442     0.03853851
    121      1      O          -0.04048164     0.01969453    -0.01297227
    122      2      H           0.05312719    -0.04301896    -0.04792535
    123      2      H           0.00078228     0.04261785     0.06907226
    124      1      O          -0.07132872    -0.05992268    -0.05341531
    125      2      H           0.02490798    -0.05094016     0.06297776
    126      2      H           0.01502218     0.06724289     0.00331416
    127      1      O           0.05368141    -0.07184245    -0.08654424
    128      2      H          -0.04334601    -0.02248126     0.00660802
    129      2      H           0.05322737     0.07464223     0.06695591
    130      1      O           0.07625291    -0.00359184     0.03943344
    131      2      H          -0.07691127    -0.00427981    -0.01319278
    132      2      H           0.00696846     0.04265792    -0.05036188
    133      1      O          -0.01367281    -0.02216769     0.10816670
    134      2      H           0.04623712    -0.03861174     0.00251015
    135      2      H          -0.01513049     0.00768386    -0.05574497
    136      1      O           0.05026207    -0.04610226     0.11627924
    137      2      H          -0.00267739     0.07691435     0.00994179
    138      2      H          -0.04930493    -0.00401066    -0.09102202
    139      1      O          -0.03605118     0.01995548     0.06813900
    140      2      H           0.00661234    -0.04323524    -0.05738959
    141      2      H           0.06053852     0.06398228     0.00131805
    142      1      O           0.09480175    -0.01606854    -0.05477014
    143      2      H          -0.04501153    -0.05387136    -0.00626553
    144      2      H          -0.03677001     0.07983070     0.04800091
    145      1      O           0.01448962    -0.04584955    -0.00557789
    146      2      H          -0.07299516     0.03331968    -0.00765108
    147      2      H           0.06797465     0.01354847    -0.01670275
    148      1      O          -0.04424565    -0.09679973     0.04265102
    149      2      H           0.08363721     0.00428696     0.00498610
    150      2      H          -0.01634653     0.09795093    -0.00615813
    151      1      O           0.07610932     0.08247499    -0.05006414
    152      2      H          -0.04113661    -0.02147572    -0.01977265
    153      2      H           0.03410672    -0.04450521     0.02692986
    154      1      O           0.00102889    -0.00426837    -0.03928302
    155      2      H           0.02693892     0.04681066    -0.05633498
    156      2      H           0.01070526     0.01751988     0.07366535
    157      1      O          -0.02762203    -0.04453224    -0.04936316
    158      2      H          -0.01845360     0.06764431     0.01594067
    159      2      H           0.04167983    -0.03570387     0.04214690
    160      1      O          -0.03573249     0.01264526     0.05169065
    161      2      H          -0.02788472    -0.06189469    -0.04624204
    162      2      H           0.01297007     0.07604176    -0.03855096
    163      1      O           0.01993344    -0.10251458    -0.01688639
    164      2      H          -0.05334820     0.08055331     0.00401997
    165      2      H           0.00672567     0.00205109     0.03314941
    166      1      O          -0.00456695    -0.06829590     0.03814652
    167      2      H          -0.02130044     0.09203601     0.00970127
    168      2      H          -0.04525732    -0.02296068    -0.07785936
    169      1      O           0.10776583     0.04500316     0.08728051
    170      2      H          -0.04300479     0.06160596    -0.04965142
    171      2      H          -0.00226481    -0.05930888     0.00755877
    172      1      O          -0.06222388    -0.01353885    -0.04951161
    173      2      H          -0.03051972     0.02156888     0.03132319
    174      2      H           0.07600618    -0.04442739     0.02221003
    175      1      O          -0.00764065    -0.06044843    -0.02937219
    176      2      H          -0.02191133     0.05195211    -0.01961096
    177      2      H          -0.02131684    -0.01999432     0.02648490
    178      1      O           0.02899132     0.06293329     0.04363604
    179      2      H          -0.06223317    -0.05616435     0.00081834
    180      2      H          -0.02090562     0.00637057    -0.06616110
    181      1      O           0.00272801    -0.03690613    -0.12749386
    182      2      H          -0.06722719    -0.00495418     0.07239885
    183      2      H           0.02864218     0.09342857     0.04342394
    184      1      O          -0.06841180    -0.10106528    -0.02253943
    185      2      H           0.05064357     0.04911865    -0.03747983
    186      2      H          -0.00908192     0.03135367     0.05721419
    187      1      O           0.06332386    -0.06772764    -0.05481606
    188      2      H          -0.06040514    -0.01012733     0.00326979
    189      2      H           0.01575411     0.07621877     0.04043950
    190      1      O          -0.00561456    -0.10620683     0.02351455
    191      2      H          -0.03382212     0.04946258     0.04208192
    192      2      H           0.00755471     0.05790215    -0.05785889
 SUM OF ATOMIC FORCES          -0.40530602     0.10810056    -0.11044257     0.43376982

 -------------------------------------------------------------------------------
 -                                                                             -
 -                                DBCSR STATISTICS                             -
 -                                                                             -
 -------------------------------------------------------------------------------
 COUNTER                                    TOTAL       BLAS       SMM       ACC
 flops     5 x     5 x   256           1823923200       0.0%    100.0%      0.0%
 flops     5 x    13 x   256           2186096640       0.0%    100.0%      0.0%
 flops    13 x     5 x   256           2220042240       0.0%    100.0%      0.0%
 flops    13 x    13 x   256           2956661760       0.0%    100.0%      0.0%
 flops inhomo. stacks                           0       0.0%      0.0%      0.0%
 flops total                         9.186724E+09       0.0%    100.0%      0.0%
 flops max/rank                      9.186724E+09       0.0%    100.0%      0.0%
 matmuls inhomo. stacks                         0       0.0%      0.0%      0.0%
 matmuls total                             309060       0.0%    100.0%      0.0%
 number of processed stacks                 14280       0.0%    100.0%      0.0%
 average stack size                                     0.0      21.6       0.0
 marketing flops                   113.158128E+09
 -------------------------------------------------------------------------------
 # multiplications                            102
 max memory usage/rank               4.993982E+09
 # max total images/rank                        1
 # max 3D layers                                1
 # MPI messages exchanged                       0
 MPI messages size (bytes):
  total size                         0.000000E+00
  min size                           0.000000E+00
  max size                           0.000000E+00
  average size                       0.000000E+00
 MPI breakdown and total messages size (bytes):
             size <=      128                   0                        0
       128 < size <=     8192                   0                        0
      8192 < size <=    32768                   0                        0
     32768 < size <=   131072                   0                        0
    131072 < size <=  4194304                   0                        0
   4194304 < size <= 16777216                   0                        0
  16777216 < size                               0                        0
 -------------------------------------------------------------------------------

 MEMORY| Estimated peak process memory [MiB]                                4757

 -------------------------------------------------------------------------------
 -                                                                             -
 -                           R E F E R E N C E S                               -
 -                                                                             -
 -------------------------------------------------------------------------------
 
 CP2K version 7.1, the CP2K developers group (2019).
 CP2K is freely available from https://www.cp2k.org/ .

 Schuett, Ole; Messmer, Peter; Hutter, Juerg; VandeVondele, Joost. 
 Electronic Structure Calculations on Graphics Processing Units, John
 Wiley & Sons, Ltd, 173-190 (2016). 
 GPU-Accelerated Sparse Matrix-Matrix Multiplication for
 Linear Scaling Density Functional Theory.
 https://dx.doi.org/10.1002/9781118670712.ch8

 Borstnik, U; VandeVondele, J; Weber, V; Hutter, J. 
 PARALLEL COMPUTING, 40 (5-6), 47-58 (2014). 
 Sparse matrix multiplication: The distributed block-compressed sparse
 row library.
 https://dx.doi.org/10.1016/j.parco.2014.03.012

 Hutter, J; Iannuzzi, M; Schiffmann, F; VandeVondele, J. 
 WIREs Comput Mol Sci., 4 (1), 15-25 (2014). 
 CP2K: atomistic simulations of condensed matter systems.
 https://dx.doi.org/10.1002/wcms.1159

 Krack, M. 
 THEORETICAL CHEMISTRY ACCOUNTS, 114 (1-3), 145-152 (2005). 
 Pseudopotentials for H to Kr optimized for gradient-corrected
 exchange-correlation functionals.
 https://dx.doi.org/10.1007/s00214-005-0655-y

 VandeVondele, J; Krack, M; Mohamed, F; Parrinello, M; Chassaing, T;
 Hutter, J. COMPUTER PHYSICS COMMUNICATIONS, 167 (2), 103-128 (2005). 
 QUICKSTEP: Fast and accurate density functional calculations using a
 mixed Gaussian and plane waves approach.
 https://dx.doi.org/10.1016/j.cpc.2004.12.014

 Frigo, M; Johnson, SG. 
 PROCEEDINGS OF THE IEEE, 93 (2), 216-231 (2005). 
 The design and implementation of FFTW3.
 https://dx.doi.org/10.1109/JPROC.2004.840301

 Hartwigsen, C; Goedecker, S; Hutter, J. 
 PHYSICAL REVIEW B, 58 (7), 3641-3662 (1998). 
 Relativistic separable dual-space Gaussian pseudopotentials from H to Rn.
 https://dx.doi.org/10.1103/PhysRevB.58.3641

 Lippert, G; Hutter, J; Parrinello, M. 
 MOLECULAR PHYSICS, 92 (3), 477-487 (1997). 
 A hybrid Gaussian and plane wave density functional scheme.
 https://dx.doi.org/10.1080/002689797170220

 Goedecker, S; Teter, M; Hutter, J. 
 PHYSICAL REVIEW B, 54 (3), 1703-1710 (1996). 
 Separable dual-space Gaussian pseudopotentials.
 https://dx.doi.org/10.1103/PhysRevB.54.1703


 -------------------------------------------------------------------------------
 -                                                                             -
 -                                T I M I N G                                  -
 -                                                                             -
 -------------------------------------------------------------------------------
 SUBROUTINE                       CALLS  ASD         SELF TIME        TOTAL TIME
                                MAXIMUM       AVERAGE  MAXIMUM  AVERAGE  MAXIMUM
 CP2K                                 1  1.0    0.128    0.128  930.911  930.911
 qs_forces                            1  2.0    0.000    0.000  928.858  928.858
 qs_energies                          1  3.0    0.000    0.000  928.169  928.169
 scf_env_do_scf                       1  4.0    0.001    0.001  925.768  925.768
 scf_env_do_scf_inner_loop          101  5.0    0.023    0.023  925.768  925.768
 qs_scf_new_mos                     101  6.0    0.003    0.003  664.524  664.524
 eigensolver                        101  7.0    0.014    0.014  653.754  653.754
 cp_fm_syevd                        101  8.0  424.891  424.891  425.433  425.433
 cp_fm_cholesky_restore             303  8.0  227.959  227.959  227.959  227.959
 gspace_mixing                      100  6.0    2.262    2.262  141.966  141.966
 broyden_mixing                     100  7.0  127.535  127.535  127.536  127.536
 rebuild_ks_matrix                  102  7.0    0.000    0.000   60.776   60.776
 qs_ks_build_kohn_sham_matrix       102  8.0    0.021    0.021   60.776   60.776
 qs_ks_update_qs_env                101  6.0    0.001    0.001   60.288   60.288
 qs_rho_update_rho                  102  6.0    0.001    0.001   58.995   58.995
 calculate_rho_elec                 102  7.0   29.510   29.510   58.995   58.995
 pw_transfer                       1325  9.9    0.104    0.104   58.657   58.657
 fft_wrap_pw1pw2                   1121 10.9    0.011    0.011   57.019   57.019
 fft_wrap_pw1pw2_70                 509 11.2    5.846    5.846   53.287   53.287
 density_rs2pw                      102  8.0    0.007    0.007   28.647   28.647
 fft3d_s                           1122 12.9   26.317   26.317   26.330   26.330
 pw_scatter_s                       610 13.2   20.022   20.022   20.022   20.022
 pw_poisson_solve                   102  9.0   17.525   17.525   19.125   19.125
 -------------------------------------------------------------------------------

 The number of warnings for this run is : 0
 
 -------------------------------------------------------------------------------
  **** **** ******  **  PROGRAM ENDED AT                 2021-02-20 19:36:45.842
 ***** ** ***  *** **   PROGRAM RAN ON                                   gnode68
 **    ****   ******    PROGRAM RAN BY                               mayank.modi
 ***** **    ** ** **   PROGRAM PROCESS ID                                 36170
  **** **  *******  **  PROGRAM STOPPED IN /home/mayank.modi/ab-initio-thermodyn
                                           amics-of-water/mayank/cp2k_energy_cal
                                           culations
