 DBCSR| CPU Multiplication driver                                           XSMM
 DBCSR| Multrec recursion limit                                              512
 DBCSR| Multiplication stack size                                           1000
 DBCSR| Maximum elements for images                                    UNLIMITED
 DBCSR| Multiplicative factor virtual images                                   1
 DBCSR| Use multiplication densification                                       T
 DBCSR| Multiplication size stacks                                             3


  **** **** ******  **  PROGRAM STARTED AT               2021-01-13 21:38:28.250
 ***** ** ***  *** **   PROGRAM STARTED ON                               gnode23
 **    ****   ******    PROGRAM STARTED BY                           mayank.modi
 ***** **    ** ** **   PROGRAM PROCESS ID                                 27393
  **** **  *******  **  PROGRAM STARTED IN /home/mayank.modi/ab-initio-thermodyn
                                           amics-of-water/mayank/cp2k_energy_cal
                                           culations

 CP2K| version string:                                          CP2K version 7.1
 CP2K| source code revision number:                                  git:e635599
 CP2K| cp2kflags: omp libint fftw3 libxc xsmm spglib                            
 CP2K| is freely available from                            https://www.cp2k.org/
 CP2K| Program compiled at                          Mon Dec 23 19:23:12 CET 2019
 CP2K| Program compiled on                                                pc9404
 CP2K| Program compiled for                                Linux-x86-64-gfortran
 CP2K| Data directory path                                        /opt/cp2k/data
 CP2K| Input file name                   input_training_correct_cell/input488.in

 GLOBAL| Force Environment number                                              1
 GLOBAL| Basis set file name                                           BASIS_SET
 GLOBAL| Potential file name                                      GTH_POTENTIALS
 GLOBAL| MM Potential file name                                     MM_POTENTIAL
 GLOBAL| Coordinate file name                                      __STD_INPUT__
 GLOBAL| Method name                                                        CP2K
 GLOBAL| Project name                                                   H2O_bulk
 GLOBAL| Preferred FFT library                                             FFTW3
 GLOBAL| Preferred diagonalization lib.                                       SL
 GLOBAL| Run type                                                   ENERGY_FORCE
 GLOBAL| All-to-all communication in single precision                          F
 GLOBAL| FFTs using library dependent lengths                                  F
 GLOBAL| Global print level                                                  LOW
 GLOBAL| MPI I/O enabled                                                       T
 GLOBAL| Total number of message passing processes                             1
 GLOBAL| Number of threads for this process                                   36
 GLOBAL| This output is from process                                           0
 GLOBAL| CPU model name                Intel(R) Xeon(R) CPU E5-2640 v4 @ 2.40GHz
 GLOBAL| CPUID                                                              1002
 GLOBAL| Compiled for CPUID                                                    0

 MEMORY| system memory details [Kb]
 MEMORY|                        rank 0           min           max       average
 MEMORY| MemTotal            131897972     131897972     131897972     131897972
 MEMORY| MemFree             125600452     125600452     125600452     125600452
 MEMORY| Buffers               1902412       1902412       1902412       1902412
 MEMORY| Cached                1402316       1402316       1402316       1402316
 MEMORY| Slab                  2526316       2526316       2526316       2526316
 MEMORY| SReclaimable          1495152       1495152       1495152       1495152
 MEMORY| MemLikelyFree       130400332     130400332     130400332     130400332


 GENERATE| WARNING:: No connections detected for Hydrogen - Atom Nr:       162 !
 GENERATE|  Preliminary Number of Bonds generated:                             0
 GENERATE|  Achieved consistency in connectivity generation.

 *******************************************************************************
 *******************************************************************************
 **                                                                           **
 **     #####                         ##              ##                      **
 **    ##   ##            ##          ##              ##                      **
 **   ##     ##                       ##            ######                    **
 **   ##     ##  ##   ##  ##   #####  ##  ##   ####   ##    #####    #####    **
 **   ##     ##  ##   ##  ##  ##      ## ##   ##      ##   ##   ##  ##   ##   **
 **   ##  ## ##  ##   ##  ##  ##      ####     ###    ##   ######   ######    **
 **    ##  ###   ##   ##  ##  ##      ## ##      ##   ##   ##       ##        **
 **     #######   #####   ##   #####  ##  ##  ####    ##    #####   ##        **
 **           ##                                                    ##        **
 **                                                                           **
 **                                                ... make the atoms dance   **
 **                                                                           **
 **            Copyright (C) by CP2K developers group (2000 - 2019)           **
 **                                                                           **
 *******************************************************************************


 TOTAL NUMBERS AND MAXIMUM NUMBERS

  Total number of            - Atomic kinds:                                   2
                             - Atoms:                                        192
                             - Shell sets:                                   384
                             - Shells:                                       704
                             - Primitive Cartesian functions:                960
                             - Cartesian basis functions:                   1536
                             - Spherical basis functions:                   1472

  Maximum angular momentum of- Orbital basis functions:                        2
                             - Local part of the GTH pseudopotential:          2
                             - Non-local part of the GTH pseudopotential:      0


 SCF PARAMETERS         Density guess:                                    ATOMIC
                        --------------------------------------------------------
                        max_scf:                                             300
                        max_scf_history:                                       0
                        max_diis:                                              4
                        --------------------------------------------------------
                        eps_scf:                                        1.00E-07
                        eps_scf_history:                                0.00E+00
                        eps_diis:                                       1.00E-01
                        eps_eigval:                                     1.00E-05
                        --------------------------------------------------------
                        level_shift [a.u.]:                                 0.00
                        --------------------------------------------------------
                        Mixing method:                            BROYDEN_MIXING
                                                charge density mixing in g-space
                        --------------------------------------------------------
                        No outer SCF

 Number of electrons:                                                        512
 Number of occupied orbitals:                                                256
 Number of molecular orbitals:                                               256

 Number of orbital functions:                                               1472
 Number of independent orbital functions:                                   1472

 Extrapolation method: initial_guess


 SCF WAVEFUNCTION OPTIMIZATION

  Step     Update method      Time    Convergence         Total energy    Change
  ------------------------------------------------------------------------------
     1 NoMix/Diag. 0.40E+00    7.0     0.68380729     -1063.9586794202 -1.06E+03
     2 Broy./Diag. 0.40E+00    7.5     1.94539742      -992.4831535688  7.15E+01
     3 Broy./Diag. 0.40E+00    7.6     1.93394960     -1275.5063444766 -2.83E+02
     4 Broy./Diag. 0.40E+00    7.6     1.75291716     -1141.2109490425  1.34E+02
     5 Broy./Diag. 0.40E+00    7.7     1.81956087     -1085.4669971032  5.57E+01
     6 Broy./Diag. 0.40E+00    7.8     1.94575042     -1097.2673923011 -1.18E+01
     7 Broy./Diag. 0.40E+00    8.1     1.80379366     -1099.6895866025 -2.42E+00
     8 Broy./Diag. 0.40E+00    8.4     1.58298437     -1092.4749589730  7.21E+00
     9 Broy./Diag. 0.40E+00    8.5     1.40434021     -1080.3905606018  1.21E+01
    10 Broy./Diag. 0.40E+00    8.5     1.44086602     -1077.9624284411  2.43E+00
    11 Broy./Diag. 0.40E+00    8.8     1.38249276     -1068.3161349264  9.65E+00
    12 Broy./Diag. 0.40E+00    8.7     1.70063595     -1070.6308242197 -2.31E+00
    13 Broy./Diag. 0.40E+00    8.8     1.77512136     -1068.2185000919  2.41E+00
    14 Broy./Diag. 0.40E+00    9.0     1.80240004     -1080.5722560994 -1.24E+01
    15 Broy./Diag. 0.40E+00    8.5     1.85196417     -1086.2910334178 -5.72E+00
    16 Broy./Diag. 0.40E+00    8.7     1.66280872     -1077.0453103491  9.25E+00
    17 Broy./Diag. 0.40E+00    8.8     1.54505987     -1071.7892873410  5.26E+00
    18 Broy./Diag. 0.40E+00    8.7     1.45469835     -1079.5089664753 -7.72E+00
    19 Broy./Diag. 0.40E+00    8.6     1.54768123     -1073.8218798107  5.69E+00
    20 Broy./Diag. 0.40E+00    8.6     1.78254523     -1072.4972459711  1.32E+00
    21 Broy./Diag. 0.40E+00    8.7     1.84130034     -1084.3170804718 -1.18E+01
    22 Broy./Diag. 0.40E+00    8.5     1.74190390     -1079.4391388890  4.88E+00
    23 Broy./Diag. 0.40E+00    8.3     1.80062543     -1075.0128189270  4.43E+00
    24 Broy./Diag. 0.40E+00    8.7     1.77990366     -1073.6171585898  1.40E+00
    25 Broy./Diag. 0.40E+00    8.7     1.83915610     -1075.9448979792 -2.33E+00
    26 Broy./Diag. 0.40E+00    8.5     1.49973471     -1075.3516798296  5.93E-01
    27 Broy./Diag. 0.40E+00    8.8     1.58557209     -1072.3164479744  3.04E+00
    28 Broy./Diag. 0.40E+00    8.5     1.40048711     -1081.2627223504 -8.95E+00
    29 Broy./Diag. 0.40E+00    8.2     1.77919003     -1074.8880835481  6.37E+00
    30 Broy./Diag. 0.40E+00    8.6     1.83170900     -1079.8758504307 -4.99E+00
    31 Broy./Diag. 0.40E+00    8.8     1.49261265     -1074.6844961414  5.19E+00
    32 Broy./Diag. 0.40E+00    8.6     1.73328354     -1077.0560982440 -2.37E+00
    33 Broy./Diag. 0.40E+00    8.6     1.78201415     -1075.4779277255  1.58E+00
    34 Broy./Diag. 0.40E+00    8.5     1.78150382     -1070.3344234885  5.14E+00
    35 Broy./Diag. 0.40E+00    8.6     1.81716480     -1086.0754731255 -1.57E+01
    36 Broy./Diag. 0.40E+00    8.7     1.36354701     -1077.7678108707  8.31E+00
    37 Broy./Diag. 0.40E+00    8.5     1.48377369     -1072.7863033417  4.98E+00
    38 Broy./Diag. 0.40E+00    8.2     1.46664939     -1074.4246479859 -1.64E+00
    39 Broy./Diag. 0.40E+00    8.3     1.79753297     -1072.1279606125  2.30E+00
    40 Broy./Diag. 0.40E+00    8.7     1.82023122     -1076.7466157942 -4.62E+00
    41 Broy./Diag. 0.40E+00    8.8     1.52873075     -1075.0630979509  1.68E+00
    42 Broy./Diag. 0.40E+00    8.7     1.62768031     -1077.5948229290 -2.53E+00
    43 Broy./Diag. 0.40E+00    8.6     1.78936426     -1078.5540037945 -9.59E-01
    44 Broy./Diag. 0.40E+00    8.7     1.85115428     -1074.7749680037  3.78E+00
    45 Broy./Diag. 0.40E+00    8.7     1.47727285     -1076.7052795123 -1.93E+00
    46 Broy./Diag. 0.40E+00    8.7     1.40760689     -1074.1574102146  2.55E+00
    47 Broy./Diag. 0.40E+00    8.5     1.55437859     -1071.8070733546  2.35E+00
    48 Broy./Diag. 0.40E+00    8.8     1.52153132     -1074.9745195342 -3.17E+00
    49 Broy./Diag. 0.40E+00    8.8     1.50130557     -1074.8536922663  1.21E-01
    50 Broy./Diag. 0.40E+00    8.7     1.46450618     -1074.3863814500  4.67E-01
    51 Broy./Diag. 0.40E+00    8.9     1.53139814     -1077.5414237842 -3.16E+00
    52 Broy./Diag. 0.40E+00    8.9     1.66836106     -1074.4649265318  3.08E+00
    53 Broy./Diag. 0.40E+00    8.7     1.79668740     -1081.2808361672 -6.82E+00
    54 Broy./Diag. 0.40E+00    8.6     1.55354806     -1076.9953026020  4.29E+00
    55 Broy./Diag. 0.40E+00    8.6     1.86580441     -1073.5034658591  3.49E+00
    56 Broy./Diag. 0.40E+00    8.7     1.45624060     -1075.4634817327 -1.96E+00
    57 Broy./Diag. 0.40E+00    8.5     1.61293390     -1073.6080801389  1.86E+00
    58 Broy./Diag. 0.40E+00    8.3     1.62624423     -1076.2483351062 -2.64E+00
    59 Broy./Diag. 0.40E+00    8.7     1.49888632     -1077.5642969580 -1.32E+00
    60 Broy./Diag. 0.40E+00    8.7     1.79099836     -1070.0554890405  7.51E+00
    61 Broy./Diag. 0.40E+00    8.7     1.78623326     -1082.3327578335 -1.23E+01
    62 Broy./Diag. 0.40E+00    8.7     1.68519978     -1076.6856736932  5.65E+00
    63 Broy./Diag. 0.40E+00    8.8     1.75529589     -1078.6824985983 -2.00E+00
    64 Broy./Diag. 0.40E+00    8.6     1.67902742     -1073.9363042515  4.75E+00
    65 Broy./Diag. 0.40E+00    8.6     1.63229679     -1070.8910283654  3.05E+00
    66 Broy./Diag. 0.40E+00    8.8     1.79385226     -1073.0471245646 -2.16E+00
    67 Broy./Diag. 0.40E+00    8.6     1.84027847     -1076.5105637208 -3.46E+00
    68 Broy./Diag. 0.40E+00    8.7     1.56882968     -1074.8126867760  1.70E+00
    69 Broy./Diag. 0.40E+00    8.6     1.78304398     -1078.3144202900 -3.50E+00
    70 Broy./Diag. 0.40E+00    8.3     1.83918835     -1077.2863362467  1.03E+00
    71 Broy./Diag. 0.40E+00    8.1     1.67893979     -1076.5762443918  7.10E-01
    72 Broy./Diag. 0.40E+00    8.7     1.81890303     -1075.2498615893  1.33E+00
    73 Broy./Diag. 0.40E+00    8.7     1.84766405     -1076.0834603132 -8.34E-01
    74 Broy./Diag. 0.40E+00    8.8     1.69273238     -1076.3264754402 -2.43E-01
    75 Broy./Diag. 0.40E+00    8.6     1.75179362     -1071.3483698862  4.98E+00
    76 Broy./Diag. 0.40E+00    8.5     1.44761455     -1077.0611416337 -5.71E+00
    77 Broy./Diag. 0.40E+00    8.2     1.51395893     -1078.4581656203 -1.40E+00
    78 Broy./Diag. 0.40E+00    8.3     1.61247080     -1075.4489552454  3.01E+00
    79 Broy./Diag. 0.40E+00    8.3     1.47062275     -1079.4655271809 -4.02E+00
    80 Broy./Diag. 0.40E+00    8.2     1.71097024     -1074.0651384077  5.40E+00
    81 Broy./Diag. 0.40E+00    8.3     1.76841083     -1072.1337301804  1.93E+00
    82 Broy./Diag. 0.40E+00    8.0     1.79620538     -1073.1850187564 -1.05E+00
    83 Broy./Diag. 0.40E+00    8.0     1.43063714     -1076.5853416217 -3.40E+00
    84 Broy./Diag. 0.40E+00    8.1     1.82605287     -1076.9428114325 -3.57E-01
    85 Broy./Diag. 0.40E+00    8.5     1.34255347     -1074.9095971758  2.03E+00
    86 Broy./Diag. 0.40E+00    8.7     1.44890056     -1079.5922127217 -4.68E+00
    87 Broy./Diag. 0.40E+00    8.5     1.81284459     -1077.8313669799  1.76E+00
    88 Broy./Diag. 0.40E+00    8.3     1.79312382     -1078.4785955570 -6.47E-01
    89 Broy./Diag. 0.40E+00    8.2     1.79073758     -1074.6348952128  3.84E+00
    90 Broy./Diag. 0.40E+00    8.4     1.82366380     -1075.7860252270 -1.15E+00
    91 Broy./Diag. 0.40E+00    8.8     1.77386506     -1072.9463218401  2.84E+00
    92 Broy./Diag. 0.40E+00    8.8     1.54713891     -1071.6851996288  1.26E+00
    93 Broy./Diag. 0.40E+00    8.8     1.79113514     -1072.5306583222 -8.45E-01
    94 Broy./Diag. 0.40E+00    8.8     1.81646721     -1082.4626322122 -9.93E+00
    95 Broy./Diag. 0.40E+00    8.3     1.52503792     -1077.5017169158  4.96E+00
    96 Broy./Diag. 0.40E+00    8.1     1.47572483     -1079.1090815078 -1.61E+00
    97 Broy./Diag. 0.40E+00    8.4     1.51874567     -1080.0846055038 -9.76E-01
    98 Broy./Diag. 0.40E+00    8.8     1.50949093     -1069.2433799710  1.08E+01
    99 Broy./Diag. 0.40E+00    8.8     1.53402121     -1078.6174765979 -9.37E+00
   100 Broy./Diag. 0.40E+00    8.5     1.77675339     -1074.1047629819  4.51E+00
   101 Broy./Diag. 0.40E+00    8.3     1.84662363     -1076.7127694757 -2.61E+00
   102 Broy./Diag. 0.40E+00    8.9     1.71607959     -1076.9927209775 -2.80E-01
   103 Broy./Diag. 0.40E+00    8.8     1.39430837     -1076.2730261543  7.20E-01
   104 Broy./Diag. 0.40E+00    8.5     1.58570930     -1072.2123194750  4.06E+00
   105 Broy./Diag. 0.40E+00    8.8     1.71940378     -1079.9374597720 -7.73E+00
   106 Broy./Diag. 0.40E+00    8.7     1.78396145     -1079.1432334123  7.94E-01
   107 Broy./Diag. 0.40E+00    8.8     1.46617498     -1077.7840237609  1.36E+00
   108 Broy./Diag. 0.40E+00    8.6     1.78903155     -1070.9247342843  6.86E+00
   109 Broy./Diag. 0.40E+00    9.3     1.79259216     -1081.4712878893 -1.05E+01
   110 Broy./Diag. 0.40E+00    8.5     1.79193535     -1077.1890506541  4.28E+00
   111 Broy./Diag. 0.40E+00    8.7     1.85158274     -1075.5299521179  1.66E+00
   112 Broy./Diag. 0.40E+00    8.7     1.75729477     -1080.6534311054 -5.12E+00
   113 Broy./Diag. 0.40E+00    8.5     1.50972346     -1074.4361089103  6.22E+00
   114 Broy./Diag. 0.40E+00    8.3     1.71705052     -1076.9445067383 -2.51E+00
   115 Broy./Diag. 0.40E+00    8.5     1.79069994     -1073.9865180229  2.96E+00
   116 Broy./Diag. 0.40E+00    8.5     1.54649371     -1075.8554978239 -1.87E+00
   117 Broy./Diag. 0.40E+00    8.8     1.46631019     -1078.6204618017 -2.76E+00
   118 Broy./Diag. 0.40E+00    8.8     1.57133379     -1073.9308982655  4.69E+00
   119 Broy./Diag. 0.40E+00    8.5     1.52303548     -1077.0436997418 -3.11E+00
   120 Broy./Diag. 0.40E+00    8.4     1.76502568     -1073.0872298362  3.96E+00
   121 Broy./Diag. 0.40E+00    8.8     1.32956183     -1074.8264224237 -1.74E+00
   122 Broy./Diag. 0.40E+00    8.6     1.76445663     -1075.8768854573 -1.05E+00
   123 Broy./Diag. 0.40E+00    8.8     1.81694450     -1074.8955591535  9.81E-01
   124 Broy./Diag. 0.40E+00    8.8     1.81788653     -1079.5652219526 -4.67E+00
   125 Broy./Diag. 0.40E+00    8.6     1.44444948     -1074.9164927767  4.65E+00
   126 Broy./Diag. 0.40E+00    8.3     1.52782164     -1074.8783268042  3.82E-02
   127 Broy./Diag. 0.40E+00    8.7     1.51144021     -1079.3241326586 -4.45E+00
   128 Broy./Diag. 0.40E+00    8.7     1.61662824     -1075.7028121212  3.62E+00
   129 Broy./Diag. 0.40E+00    8.7     1.66899751     -1075.2045495296  4.98E-01
   130 Broy./Diag. 0.40E+00    8.6     1.80121173     -1075.4689111481 -2.64E-01
   131 Broy./Diag. 0.40E+00    8.8     1.82520552     -1075.4046580824  6.43E-02
   132 Broy./Diag. 0.40E+00    8.7     1.72263170     -1074.0591825704  1.35E+00
   133 Broy./Diag. 0.40E+00    8.6     1.80257233     -1073.4112608707  6.48E-01
   134 Broy./Diag. 0.40E+00    8.7     1.29398437     -1075.4059610060 -1.99E+00
   135 Broy./Diag. 0.40E+00    8.6     1.79734690     -1075.4895950807 -8.36E-02
   136 Broy./Diag. 0.40E+00    8.5     1.85506186     -1074.3205144696  1.17E+00
   137 Broy./Diag. 0.40E+00    8.3     1.54985972     -1083.9784821809 -9.66E+00
   138 Broy./Diag. 0.40E+00    8.5     1.69514946     -1073.8573465623  1.01E+01
   139 Broy./Diag. 0.40E+00    8.8     1.71755258     -1076.2887120265 -2.43E+00
   140 Broy./Diag. 0.40E+00    8.7     1.75044692     -1072.4686787577  3.82E+00
   141 Broy./Diag. 0.40E+00    8.6     1.51569477     -1078.9206842888 -6.45E+00
   142 Broy./Diag. 0.40E+00    8.7     1.47891568     -1076.1751927149  2.75E+00
   143 Broy./Diag. 0.40E+00    8.6     1.78116845     -1074.3555521860  1.82E+00
   144 Broy./Diag. 0.40E+00    8.8     1.81233933     -1081.5997825493 -7.24E+00
   145 Broy./Diag. 0.40E+00    8.7     1.81266329     -1073.3869612737  8.21E+00
   146 Broy./Diag. 0.40E+00    8.7     1.85961356     -1076.5085463186 -3.12E+00
   147 Broy./Diag. 0.40E+00    8.5     1.68967972     -1075.0091748327  1.50E+00
   148 Broy./Diag. 0.40E+00    8.8     1.69217211     -1080.7744014546 -5.77E+00
   149 Broy./Diag. 0.40E+00    8.6     1.18575429     -1073.5331572240  7.24E+00
   150 Broy./Diag. 0.40E+00    8.6     1.38669515     -1072.6219372210  9.11E-01
   151 Broy./Diag. 0.40E+00    8.9     1.47513824     -1080.2270361963 -7.61E+00
   152 Broy./Diag. 0.40E+00    8.5     1.53669255     -1076.5763215619  3.65E+00
   153 Broy./Diag. 0.40E+00    8.3     1.79198538     -1077.9040524556 -1.33E+00
   154 Broy./Diag. 0.40E+00    8.6     1.82404902     -1074.8018845025  3.10E+00
   155 Broy./Diag. 0.40E+00    8.8     1.54149418     -1073.4489207073  1.35E+00
   156 Broy./Diag. 0.40E+00    8.7     1.39463467     -1075.7521005981 -2.30E+00
   157 Broy./Diag. 0.40E+00    8.5     1.72544739     -1076.8637085646 -1.11E+00
   158 Broy./Diag. 0.40E+00    8.5     1.76367982     -1079.7682134338 -2.90E+00
   159 Broy./Diag. 0.40E+00    8.8     1.75294072     -1073.9835473425  5.78E+00
   160 Broy./Diag. 0.40E+00    8.8     1.76777453     -1077.4430315451 -3.46E+00
   161 Broy./Diag. 0.40E+00    8.8     1.61576220     -1071.9060037988  5.54E+00
   162 Broy./Diag. 0.40E+00    8.6     1.50542938     -1074.5752398208 -2.67E+00
   163 Broy./Diag. 0.40E+00    8.8     1.80008658     -1074.0951169741  4.80E-01
   164 Broy./Diag. 0.40E+00    8.7     1.82489840     -1077.0563650730 -2.96E+00
   165 Broy./Diag. 0.40E+00    8.5     1.49779575     -1076.2646553375  7.92E-01
   166 Broy./Diag. 0.40E+00    8.6     1.79607090     -1078.9137503032 -2.65E+00
   167 Broy./Diag. 0.40E+00    9.0     1.81997542     -1079.8331703202 -9.19E-01
   168 Broy./Diag. 0.40E+00    8.7     1.53016947     -1072.8412277640  6.99E+00
   169 Broy./Diag. 0.40E+00    8.7     1.56158842     -1074.9987769524 -2.16E+00
   170 Broy./Diag. 0.40E+00    8.8     1.78858674     -1074.1588257091  8.40E-01
   171 Broy./Diag. 0.40E+00    8.8     1.83283931     -1077.9849397447 -3.83E+00
   172 Broy./Diag. 0.40E+00    8.6     1.74448977     -1076.5043709784  1.48E+00
   173 Broy./Diag. 0.40E+00    8.6     1.58084925     -1076.2024859500  3.02E-01
   174 Broy./Diag. 0.40E+00    8.8     1.44621169     -1072.4748525572  3.73E+00
   175 Broy./Diag. 0.40E+00    8.7     1.45357645     -1077.1998847686 -4.73E+00
   176 Broy./Diag. 0.40E+00    8.7     1.77271238     -1073.1059077509  4.09E+00
   177 Broy./Diag. 0.40E+00    8.6     1.80008456     -1080.6127543446 -7.51E+00
   178 Broy./Diag. 0.40E+00    8.6     1.53582462     -1074.4083581677  6.20E+00
   179 Broy./Diag. 0.40E+00    8.5     1.55148253     -1075.8284623631 -1.42E+00
   180 Broy./Diag. 0.40E+00    8.6     1.79648643     -1076.5305901902 -7.02E-01
   181 Broy./Diag. 0.40E+00    8.7     1.86329958     -1074.4526946449  2.08E+00
   182 Broy./Diag. 0.40E+00    8.5     1.76496447     -1078.2911452171 -3.84E+00
   183 Broy./Diag. 0.40E+00    8.4     1.81598552     -1071.0812395354  7.21E+00
   184 Broy./Diag. 0.40E+00    8.3     1.80624134     -1084.1532810637 -1.31E+01
   185 Broy./Diag. 0.40E+00    8.1     1.55186768     -1077.3291359957  6.82E+00
   186 Broy./Diag. 0.40E+00    8.3     1.76481590     -1074.4088691498  2.92E+00
   187 Broy./Diag. 0.40E+00    8.3     1.79356999     -1074.4572821868 -4.84E-02
   188 Broy./Diag. 0.40E+00    8.1     1.53082396     -1072.8331231331  1.62E+00
   189 Broy./Diag. 0.40E+00    8.6     1.45183350     -1073.5145976455 -6.81E-01
   190 Broy./Diag. 0.40E+00    8.7     1.68849881     -1076.9018520359 -3.39E+00
   191 Broy./Diag. 0.40E+00    8.7     1.76474952     -1074.4374553111  2.46E+00
   192 Broy./Diag. 0.40E+00    8.6     1.48134236     -1076.7310618089 -2.29E+00
   193 Broy./Diag. 0.40E+00    8.8     1.79352142     -1076.2863646752  4.45E-01
   194 Broy./Diag. 0.40E+00    8.9     1.82868590     -1081.5199388374 -5.23E+00
   195 Broy./Diag. 0.40E+00    8.6     1.66064183     -1075.7099827681  5.81E+00
   196 Broy./Diag. 0.40E+00    8.7     1.51538421     -1072.6453423830  3.06E+00
   197 Broy./Diag. 0.40E+00    8.7     1.48486647     -1074.4827259816 -1.84E+00
   198 Broy./Diag. 0.40E+00    8.8     1.55347033     -1076.9382485385 -2.46E+00
   199 Broy./Diag. 0.40E+00    8.6     1.81303879     -1070.5601482033  6.38E+00
   200 Broy./Diag. 0.40E+00    8.6     1.83129513     -1084.4528935685 -1.39E+01
   201 Broy./Diag. 0.40E+00    8.6     1.66390326     -1077.0180994333  7.43E+00
   202 Broy./Diag. 0.40E+00    8.9     1.51884566     -1079.7593629534 -2.74E+00
   203 Broy./Diag. 0.40E+00    8.6     1.78061273     -1071.1915131052  8.57E+00
   204 Broy./Diag. 0.40E+00    8.4     1.83657405     -1077.2533381569 -6.06E+00
   205 Broy./Diag. 0.40E+00    8.5     1.70095905     -1077.5467417146 -2.93E-01
   206 Broy./Diag. 0.40E+00    8.7     1.85680148     -1071.4626932504  6.08E+00
   207 Broy./Diag. 0.40E+00    8.8     1.79415671     -1080.8068987456 -9.34E+00
   208 Broy./Diag. 0.40E+00    8.7     1.84505676     -1074.4999283533  6.31E+00
   209 Broy./Diag. 0.40E+00    8.8     1.50237354     -1078.2444117694 -3.74E+00
   210 Broy./Diag. 0.40E+00    8.7     1.42251804     -1073.1504571653  5.09E+00
   211 Broy./Diag. 0.40E+00    8.9     1.52289044     -1075.3209251639 -2.17E+00
   212 Broy./Diag. 0.40E+00    8.7     1.51715317     -1079.7078204400 -4.39E+00
   213 Broy./Diag. 0.40E+00    8.8     1.79437870     -1071.3409429934  8.37E+00
   214 Broy./Diag. 0.40E+00    8.8     1.80750501     -1082.6526752040 -1.13E+01
   215 Broy./Diag. 0.40E+00    8.6     1.53722340     -1077.0484753768  5.60E+00
   216 Broy./Diag. 0.40E+00    8.6     1.47374997     -1072.0976482087  4.95E+00
   217 Broy./Diag. 0.40E+00    8.6     1.78598144     -1076.0008453771 -3.90E+00
   218 Broy./Diag. 0.40E+00    8.8     1.84978238     -1075.3292292825  6.72E-01
   219 Broy./Diag. 0.40E+00    8.7     1.73139869     -1078.0434026274 -2.71E+00
   220 Broy./Diag. 0.40E+00    8.8     1.73562580     -1071.9366780205  6.11E+00
   221 Broy./Diag. 0.40E+00    8.8     1.73433808     -1077.4857826925 -5.55E+00
   222 Broy./Diag. 0.40E+00    8.6     1.67609862     -1080.5550807127 -3.07E+00
   223 Broy./Diag. 0.40E+00    8.5     1.48721026     -1072.3490286562  8.21E+00
   224 Broy./Diag. 0.40E+00    8.3     1.58713626     -1075.4241781738 -3.08E+00
   225 Broy./Diag. 0.40E+00    8.4     1.72843875     -1078.2116405875 -2.79E+00
   226 Broy./Diag. 0.40E+00    8.7     1.79441645     -1072.9138257417  5.30E+00
   227 Broy./Diag. 0.40E+00    8.7     1.78332186     -1079.1049067569 -6.19E+00
   228 Broy./Diag. 0.40E+00    8.7     1.84260084     -1076.9468720264  2.16E+00
   229 Broy./Diag. 0.40E+00    8.8     1.58512097     -1074.4621391843  2.48E+00
   230 Broy./Diag. 0.40E+00    8.9     1.81603114     -1075.8129780021 -1.35E+00
   231 Broy./Diag. 0.40E+00    8.8     1.83962738     -1075.7926836099  2.03E-02
   232 Broy./Diag. 0.40E+00    8.7     1.40762851     -1074.2726892876  1.52E+00
   233 Broy./Diag. 0.40E+00    8.6     1.53549260     -1074.5875075729 -3.15E-01
   234 Broy./Diag. 0.40E+00    8.9     1.49553929     -1077.2794159145 -2.69E+00
   235 Broy./Diag. 0.40E+00    8.8     1.73880455     -1078.3129324839 -1.03E+00
   236 Broy./Diag. 0.40E+00    8.8     1.81842122     -1073.5609191196  4.75E+00
   237 Broy./Diag. 0.40E+00    8.6     1.48763000     -1077.8868424395 -4.33E+00
   238 Broy./Diag. 0.40E+00    8.7     1.77925495     -1073.5268658746  4.36E+00
   239 Broy./Diag. 0.40E+00    8.6     1.81519843     -1082.6256439073 -9.10E+00
   240 Broy./Diag. 0.40E+00    8.7     1.77224539     -1080.6593056190  1.97E+00
   241 Broy./Diag. 0.40E+00    8.6     1.78799522     -1074.0530530246  6.61E+00
   242 Broy./Diag. 0.40E+00    8.6     1.58710700     -1075.6570491069 -1.60E+00
   243 Broy./Diag. 0.40E+00    8.6     1.56628899     -1072.8712361845  2.79E+00
   244 Broy./Diag. 0.40E+00    8.4     1.57782993     -1076.3209462250 -3.45E+00
   245 Broy./Diag. 0.40E+00    8.6     1.75735159     -1077.3767679845 -1.06E+00
   246 Broy./Diag. 0.40E+00    8.8     1.81645241     -1072.3510524824  5.03E+00
   247 Broy./Diag. 0.40E+00    8.7     1.83601795     -1076.6868522570 -4.34E+00
   248 Broy./Diag. 0.40E+00    8.6     1.47640591     -1075.3493222446  1.34E+00
   249 Broy./Diag. 0.40E+00    8.6     1.50273165     -1078.8566103021 -3.51E+00
   250 Broy./Diag. 0.40E+00    8.3     1.80310239     -1072.1574982032  6.70E+00
   251 Broy./Diag. 0.40E+00    8.3     1.83792755     -1080.0443027723 -7.89E+00
   252 Broy./Diag. 0.40E+00    8.5     1.49710486     -1078.4955896445  1.55E+00
   253 Broy./Diag. 0.40E+00    8.7     1.49264300     -1075.8498612913  2.65E+00
   254 Broy./Diag. 0.40E+00    8.7     1.55550731     -1076.0745465833 -2.25E-01
   255 Broy./Diag. 0.40E+00    8.6     1.72388097     -1073.0795325334  3.00E+00
   256 Broy./Diag. 0.40E+00    8.6     1.82314084     -1071.8840790561  1.20E+00
   257 Broy./Diag. 0.40E+00    8.7     1.79531685     -1074.7670757932 -2.88E+00
   258 Broy./Diag. 0.40E+00    8.7     1.81425859     -1075.4156966164 -6.49E-01
   259 Broy./Diag. 0.40E+00    8.6     1.46316272     -1077.3670345365 -1.95E+00
   260 Broy./Diag. 0.40E+00    8.8     1.77709922     -1076.5053446664  8.62E-01
   261 Broy./Diag. 0.40E+00    8.6     1.84900789     -1078.2290467740 -1.72E+00
   262 Broy./Diag. 0.40E+00    8.7     1.54509586     -1078.6081627236 -3.79E-01
   263 Broy./Diag. 0.40E+00    8.8     1.81709312     -1072.1631569385  6.45E+00
   264 Broy./Diag. 0.40E+00    8.9     1.82010905     -1077.1776906038 -5.01E+00
   265 Broy./Diag. 0.40E+00    8.7     1.76854311     -1073.5306341872  3.65E+00
   266 Broy./Diag. 0.40E+00    8.6     1.80421121     -1071.8610029592  1.67E+00
   267 Broy./Diag. 0.40E+00    8.8     1.57384765     -1077.9850023923 -6.12E+00
   268 Broy./Diag. 0.40E+00    8.7     1.53725166     -1074.0672475604  3.92E+00
   269 Broy./Diag. 0.40E+00    8.6     1.27435167     -1079.1011594847 -5.03E+00
   270 Broy./Diag. 0.40E+00    8.6     1.78026816     -1073.4099951751  5.69E+00
   271 Broy./Diag. 0.40E+00    8.6     1.81827560     -1078.4323483981 -5.02E+00
   272 Broy./Diag. 0.40E+00    8.6     1.55343885     -1079.5336341211 -1.10E+00
   273 Broy./Diag. 0.40E+00    8.7     1.80724994     -1075.2380028038  4.30E+00
   274 Broy./Diag. 0.40E+00    8.6     1.85800425     -1074.0579241099  1.18E+00
   275 Broy./Diag. 0.40E+00    8.6     1.72146871     -1075.7359572360 -1.68E+00
   276 Broy./Diag. 0.40E+00    8.7     1.79818178     -1073.2504670530  2.49E+00
   277 Broy./Diag. 0.40E+00    8.8     1.68230224     -1074.3932845782 -1.14E+00
   278 Broy./Diag. 0.40E+00    8.5     1.50175067     -1075.4205351754 -1.03E+00
   279 Broy./Diag. 0.40E+00    8.7     1.39126988     -1076.3430662634 -9.23E-01
   280 Broy./Diag. 0.40E+00    8.5     1.74004228     -1073.2683794942  3.07E+00
   281 Broy./Diag. 0.40E+00    8.6     1.77504117     -1080.4994426778 -7.23E+00
   282 Broy./Diag. 0.40E+00    8.7     1.67880742     -1076.6491603303  3.85E+00
   283 Broy./Diag. 0.40E+00    8.5     1.74325549     -1076.1335381713  5.16E-01
   284 Broy./Diag. 0.40E+00    8.6     1.86810837     -1072.6976475796  3.44E+00
   285 Broy./Diag. 0.40E+00    9.0     1.66494510     -1076.4154304034 -3.72E+00
   286 Broy./Diag. 0.40E+00    8.3     1.69236784     -1076.5010300795 -8.56E-02
   287 Broy./Diag. 0.40E+00    8.3     1.55602717     -1075.6778306408  8.23E-01
   288 Broy./Diag. 0.40E+00    8.5     1.66288674     -1077.7447727995 -2.07E+00
   289 Broy./Diag. 0.40E+00    8.7     1.69486267     -1073.3751025968  4.37E+00
   290 Broy./Diag. 0.40E+00    8.6     1.73071195     -1077.9480408700 -4.57E+00
   291 Broy./Diag. 0.40E+00    8.6     1.57024918     -1075.8517688845  2.10E+00
   292 Broy./Diag. 0.40E+00    8.8     1.52790511     -1076.3752106616 -5.23E-01
   293 Broy./Diag. 0.40E+00    8.7     1.80165269     -1071.7636129996  4.61E+00
   294 Broy./Diag. 0.40E+00    8.7     1.31884260     -1080.5621198061 -8.80E+00
   295 Broy./Diag. 0.40E+00    8.6     1.82664931     -1078.1949500117  2.37E+00
   296 Broy./Diag. 0.40E+00    8.6     1.46637579     -1074.2345272958  3.96E+00
   297 Broy./Diag. 0.40E+00    8.8     1.53404088     -1076.9477760064 -2.71E+00
   298 Broy./Diag. 0.40E+00    8.7     1.74340909     -1076.7051237831  2.43E-01
   299 Broy./Diag. 0.40E+00    8.6     1.72860030     -1074.9684945838  1.74E+00
   300 Broy./Diag. 0.40E+00    8.3     1.39483495     -1072.2717490945  2.70E+00

  Leaving inner SCF loop after reaching   300 steps.


  Electronic density on regular grids:       -511.9999526505        0.0000473495
  Core density on regular grids:              511.9998369217       -0.0001630783
  Total charge density on r-space grids:       -0.0001157288
  Total charge density g-space grids:          -0.0001157288

  Overlap energy of the core charge distribution:               0.00000000000000
  Self energy of the core charge distribution:              -2838.21791979120962
  Core Hamiltonian energy:                                    763.57137172548073
  Hartree energy:                                            1240.65364484142310
  Exchange-correlation energy:                               -238.27884587015149

  Total energy:                                             -1072.27174909445739

 *** WARNING in qs_scf.F:542 :: SCF run NOT converged ***


 ENERGY| Total FORCE_EVAL ( QS ) energy (a.u.):            -1073.373924895757227


 ATOMIC FORCES in [a.u.]

 # Atom   Kind   Element          X              Y              Z
      1      1      O          -0.13676326    -0.09861270     0.12277664
      2      2      H           0.04671296     0.03547463    -0.02494584
      3      2      H           0.04803350    -0.05023555    -0.01524612
      4      1      O           0.15630484    -0.16634386     0.10476439
      5      2      H          -0.01435258     0.01818052    -0.03675880
      6      2      H          -0.04303422     0.01766761     0.07740963
      7      1      O          -0.04559197     0.09098607    -0.02316908
      8      2      H          -0.01007542     0.03423109     0.10332556
      9      2      H           0.05744578    -0.02770793    -0.03764811
     10      1      O           0.10419953     0.06131320     0.17105871
     11      2      H          -0.07887921     0.06647840    -0.04215405
     12      2      H           0.04393828    -0.06956665    -0.00905948
     13      1      O           0.10210987    -0.02618762     0.05928535
     14      2      H          -0.04823973     0.08875257     0.04682101
     15      2      H          -0.04025879     0.02705557    -0.04257935
     16      1      O          -0.00073713     0.07903432    -0.14639081
     17      2      H          -0.01748959    -0.05313164    -0.02074212
     18      2      H           0.02320298    -0.00769480     0.05472853
     19      1      O           0.02792212    -0.01822660     0.12941377
     20      2      H           0.02873219    -0.01440119    -0.00606775
     21      2      H          -0.05617472    -0.02794747     0.00541588
     22      1      O          -0.05138513    -0.10788100    -0.00055961
     23      2      H           0.04872947     0.02045796    -0.01960905
     24      2      H          -0.06085400     0.00449220    -0.06450715
     25      1      O          -0.07302316     0.05539813     0.13654516
     26      2      H           0.02599350     0.00587736     0.01684489
     27      2      H          -0.06059098     0.00460545    -0.00404747
     28      1      O           0.04102856    -0.11915248    -0.07391788
     29      2      H          -0.07410209     0.02753103     0.03134808
     30      2      H           0.01550245     0.03161242    -0.01186957
     31      1      O          -0.12507307     0.05244512    -0.14311682
     32      2      H          -0.05666443     0.00545044     0.07663012
     33      2      H           0.03333243     0.01686290     0.02606699
     34      1      O           0.01692400    -0.16007682    -0.00063774
     35      2      H          -0.00227045     0.05482059    -0.03542017
     36      2      H           0.00699040     0.06511955     0.02656271
     37      1      O           0.15459520    -0.10994034     0.04351248
     38      2      H          -0.06959168     0.04287228    -0.05740891
     39      2      H          -0.07178643    -0.05886289     0.02994656
     40      1      O          -0.09531562    -0.11654177    -0.07068581
     41      2      H           0.02042716     0.04714722     0.05748738
     42      2      H           0.07030708    -0.01465735    -0.08981751
     43      1      O          -0.05192854    -0.16875471    -0.02270892
     44      2      H          -0.02028497     0.04695364    -0.09441646
     45      2      H          -0.02813366     0.03713141     0.11073353
     46      1      O          -0.08215404     0.02368378     0.02470478
     47      2      H          -0.06470866     0.11034204     0.00603620
     48      2      H          -0.03987335    -0.03945404     0.12085823
     49      1      O           0.02513206     0.17087602     0.04415233
     50      2      H           0.05852821    -0.09615531    -0.03219342
     51      2      H          -0.06002400     0.01654792    -0.05582202
     52      1      O           0.03090013    -0.12856172     0.03006017
     53      2      H           0.03955261     0.03332799     0.02071213
     54      2      H          -0.03596947     0.06199917     0.04893782
     55      1      O           0.13075855    -0.01703812     0.03357327
     56      2      H           0.01365077     0.00932166     0.07976196
     57      2      H          -0.05260665     0.11222520    -0.02088855
     58      1      O          -0.03101613    -0.05388055     0.00030241
     59      2      H           0.04391630    -0.04153544    -0.03223644
     60      2      H           0.01384204    -0.02072464    -0.06166185
     61      1      O           0.05551604    -0.08809465    -0.14026661
     62      2      H          -0.02989117     0.04504139    -0.03571536
     63      2      H           0.08380486     0.02736025     0.03186876
     64      1      O          -0.14165474     0.10659516    -0.02751111
     65      2      H           0.03178891    -0.09433431     0.00510387
     66      2      H           0.00031209    -0.01134414    -0.04610916
     67      1      O          -0.00248364    -0.08919084     0.01689509
     68      2      H           0.00859881     0.06471273     0.00163395
     69      2      H          -0.01532066     0.00899234     0.09335007
     70      1      O          -0.07326894    -0.10715502    -0.05699482
     71      2      H          -0.00807878     0.05953657     0.04874513
     72      2      H           0.01420265     0.01846257    -0.05699287
     73      1      O          -0.00731615     0.15183230     0.03470633
     74      2      H          -0.06905783    -0.03598388    -0.01743724
     75      2      H           0.00120576    -0.02863291    -0.05807954
     76      1      O          -0.05515711     0.11406738    -0.14683782
     77      2      H           0.03613255     0.00892569     0.03579791
     78      2      H          -0.08721467     0.02208325     0.09532323
     79      1      O          -0.12410879     0.07271370    -0.13949016
     80      2      H           0.03437355    -0.02090749     0.03249554
     81      2      H           0.06002991     0.00013455     0.02090389
     82      1      O           0.13808870     0.05114456    -0.15938588
     83      2      H          -0.01513885    -0.02623735     0.03737015
     84      2      H          -0.01656645    -0.06028683     0.03529444
     85      1      O           0.01081918    -0.15298129     0.08591859
     86      2      H          -0.09085536     0.08054837    -0.03146836
     87      2      H           0.04190722     0.06853068     0.04524450
     88      1      O          -0.07757070     0.04161071     0.03210610
     89      2      H           0.00889274    -0.05257897     0.08506295
     90      2      H          -0.01958454     0.12275428     0.04330917
     91      1      O          -0.00994109     0.11215068    -0.04064918
     92      2      H           0.01903184     0.01358591     0.03614305
     93      2      H           0.01068875    -0.09916618    -0.02350040
     94      1      O           0.02580468    -0.03943897     0.16739249
     95      2      H           0.08500989    -0.07936436     0.01627846
     96      2      H           0.02631524     0.09717578    -0.02087960
     97      1      O          -0.07388309     0.04905433    -0.00292043
     98      2      H          -0.06384156     0.04057343     0.01870345
     99      2      H          -0.01293313    -0.03356659     0.06586074
    100      1      O           0.03045860    -0.05942299     0.00491344
    101      2      H           0.04310586     0.00301922    -0.04614038
    102      2      H          -0.05723563    -0.06689371    -0.05999850
    103      1      O           0.10164857     0.03396610     0.02255303
    104      2      H          -0.03008042     0.08106151    -0.03882803
    105      2      H           0.04157432     0.04936620     0.03014403
    106      1      O          -0.00794823    -0.07141191     0.08395457
    107      2      H          -0.07701169     0.03545039     0.01953934
    108      2      H           0.03711575     0.01875970    -0.08703802
    109      1      O          -0.02229423    -0.11566497     0.13409981
    110      2      H           0.09590776     0.03967927     0.00156810
    111      2      H          -0.12279764     0.06483074    -0.09264670
    112      1      O           0.04407892     0.09047057    -0.01049311
    113      2      H           0.00312345    -0.06942661     0.02581570
    114      2      H          -0.02815229     0.07222366     0.01894385
    115      1      O          -0.02612157     0.02957115     0.10388913
    116      2      H          -0.06376737    -0.04182267     0.00519485
    117      2      H           0.01356489     0.09024401    -0.01261948
    118      1      O           0.02107541    -0.03857524     0.08687703
    119      2      H           0.05013080    -0.02254422     0.06597979
    120      2      H          -0.03250798     0.03899880    -0.04720132
    121      1      O          -0.10886625    -0.02864156    -0.01406120
    122      2      H           0.01729454    -0.03264514     0.01406476
    123      2      H          -0.04517536    -0.02244584    -0.10252268
    124      1      O           0.04711310     0.03778348     0.00753495
    125      2      H           0.02572599    -0.00781196    -0.03820058
    126      2      H           0.01522742    -0.03385145     0.03256654
    127      1      O           0.18007679    -0.02204795     0.17608851
    128      2      H          -0.04081417     0.02651514    -0.05684302
    129      2      H          -0.04469069    -0.03868949    -0.03875912
    130      1      O          -0.00346399     0.01959526    -0.06521455
    131      2      H           0.02429370     0.04754097    -0.02856442
    132      2      H           0.01773337    -0.02750847     0.03337926
    133      1      O           0.09716773     0.01760424     0.09204813
    134      2      H          -0.02801930     0.01543897    -0.03965135
    135      2      H          -0.09529013    -0.01101485    -0.01175262
    136      1      O           0.17714430    -0.09442747    -0.02693995
    137      2      H          -0.02303785     0.03590396     0.03887265
    138      2      H          -0.08919018     0.11742221    -0.05378880
    139      1      O           0.01331222     0.00080814    -0.06466395
    140      2      H           0.08776634     0.04793390    -0.02271229
    141      2      H          -0.00424123     0.07154485    -0.02738310
    142      1      O           0.06120349     0.05306289     0.12415195
    143      2      H          -0.05404034    -0.07466621    -0.05677919
    144      2      H           0.00550176    -0.04678395     0.04665243
    145      1      O          -0.03813074    -0.10188647    -0.14278151
    146      2      H           0.04725915    -0.08944750    -0.02233627
    147      2      H          -0.00024826     0.04207618    -0.01057892
    148      1      O          -0.11182617     0.02765832    -0.00979337
    149      2      H          -0.02086543     0.06239816     0.05223990
    150      2      H           0.02589841     0.00673298    -0.07516128
    151      1      O          -0.14238374    -0.00779292    -0.00126940
    152      2      H          -0.00046135    -0.00095438     0.01661292
    153      2      H           0.04878561    -0.02116532    -0.08902190
    154      1      O          -0.11191495    -0.10947640     0.09818507
    155      2      H           0.00988048    -0.01354532    -0.00289759
    156      2      H          -0.03927948    -0.03231288    -0.01631937
    157      1      O           0.07769012     0.02936720     0.15027870
    158      2      H          -0.03577231     0.02889216    -0.01853644
    159      2      H          -0.00121587    -0.01792165    -0.10959069
    160      1      O          -0.11960636     0.04585518     0.10065486
    161      2      H           0.17282448    -0.06743413    -0.04268587
    162      2      H          -0.00229160    -0.05411960     0.01328560
    163      1      O           0.03476912    -0.01959857     0.06489068
    164      2      H           0.03102421    -0.01470048    -0.02526367
    165      2      H           0.00631945     0.01733324    -0.01554614
    166      1      O           0.05368689     0.09363590    -0.07659099
    167      2      H           0.09636958    -0.07669667     0.04262004
    168      2      H          -0.04312276    -0.05351670    -0.03802229
    169      1      O           0.16480865     0.02799533     0.09547343
    170      2      H          -0.05174620    -0.05244845    -0.03973624
    171      2      H          -0.06446864    -0.00888218     0.08859789
    172      1      O          -0.01198013     0.08374786    -0.02853851
    173      2      H          -0.02271613    -0.03869565    -0.03762919
    174      2      H           0.07755506     0.02355224    -0.01526129
    175      1      O          -0.12936536    -0.15486239    -0.00870917
    176      2      H          -0.05738997     0.01356245     0.07230372
    177      2      H           0.08139510     0.08124666    -0.02307400
    178      1      O          -0.08509416     0.01096557     0.09260204
    179      2      H           0.02124264     0.01276856    -0.06969688
    180      2      H          -0.04824813    -0.02125803    -0.04576133
    181      1      O          -0.09925611     0.05912369     0.12061940
    182      2      H           0.01132274    -0.02777722    -0.05288830
    183      2      H          -0.01612870     0.06895359    -0.02888854
    184      1      O          -0.02354325    -0.07638793    -0.06594544
    185      2      H           0.06577070    -0.05923517    -0.02896635
    186      2      H          -0.00714740     0.02940076    -0.00412512
    187      1      O           0.08233103    -0.06492793    -0.17017737
    188      2      H           0.05768626     0.05592649     0.02758447
    189      2      H          -0.02840105    -0.02390167     0.05345130
    190      1      O          -0.00001129     0.02980961     0.09543812
    191      2      H          -0.00294318     0.05722166    -0.10557110
    192      2      H          -0.03333892    -0.10700426     0.03023797
 SUM OF ATOMIC FORCES          -0.50726347    -0.07390232     0.54450023     0.74783574

 -------------------------------------------------------------------------------
 -                                                                             -
 -                                DBCSR STATISTICS                             -
 -                                                                             -
 -------------------------------------------------------------------------------
 COUNTER                                    TOTAL       BLAS       SMM       ACC
 flops     5 x     5 x   256           6403353600       0.0%    100.0%      0.0%
 flops     5 x    13 x   256           7833512960       0.0%    100.0%      0.0%
 flops    13 x     5 x   256           7963737600       0.0%    100.0%      0.0%
 flops    13 x    13 x   256          10626330624       0.0%    100.0%      0.0%
 flops inhomo. stacks                           0       0.0%      0.0%      0.0%
 flops total                        32.826935E+09       0.0%    100.0%      0.0%
 flops max/rank                     32.826935E+09       0.0%    100.0%      0.0%
 matmuls inhomo. stacks                         0       0.0%      0.0%      0.0%
 matmuls total                            1097747       0.0%    100.0%      0.0%
 number of processed stacks                 42140       0.0%    100.0%      0.0%
 average stack size                                     0.0      26.0       0.0
 marketing flops                   333.927416E+09
 -------------------------------------------------------------------------------
 # multiplications                            301
 max memory usage/rank               3.579855E+09
 # max total images/rank                        1
 # max 3D layers                                1
 # MPI messages exchanged                       0
 MPI messages size (bytes):
  total size                         0.000000E+00
  min size                           0.000000E+00
  max size                           0.000000E+00
  average size                       0.000000E+00
 MPI breakdown and total messages size (bytes):
             size <=      128                   0                        0
       128 < size <=     8192                   0                        0
      8192 < size <=    32768                   0                        0
     32768 < size <=   131072                   0                        0
    131072 < size <=  4194304                   0                        0
   4194304 < size <= 16777216                   0                        0
  16777216 < size                               0                        0
 -------------------------------------------------------------------------------

 MEMORY| Estimated peak process memory [MiB]                                3413

 -------------------------------------------------------------------------------
 -                                                                             -
 -                           R E F E R E N C E S                               -
 -                                                                             -
 -------------------------------------------------------------------------------
 
 CP2K version 7.1, the CP2K developers group (2019).
 CP2K is freely available from https://www.cp2k.org/ .

 Schuett, Ole; Messmer, Peter; Hutter, Juerg; VandeVondele, Joost. 
 Electronic Structure Calculations on Graphics Processing Units, John
 Wiley & Sons, Ltd, 173-190 (2016). 
 GPU-Accelerated Sparse Matrix-Matrix Multiplication for
 Linear Scaling Density Functional Theory.
 https://dx.doi.org/10.1002/9781118670712.ch8

 Borstnik, U; VandeVondele, J; Weber, V; Hutter, J. 
 PARALLEL COMPUTING, 40 (5-6), 47-58 (2014). 
 Sparse matrix multiplication: The distributed block-compressed sparse
 row library.
 https://dx.doi.org/10.1016/j.parco.2014.03.012

 Hutter, J; Iannuzzi, M; Schiffmann, F; VandeVondele, J. 
 WIREs Comput Mol Sci., 4 (1), 15-25 (2014). 
 CP2K: atomistic simulations of condensed matter systems.
 https://dx.doi.org/10.1002/wcms.1159

 Krack, M. 
 THEORETICAL CHEMISTRY ACCOUNTS, 114 (1-3), 145-152 (2005). 
 Pseudopotentials for H to Kr optimized for gradient-corrected
 exchange-correlation functionals.
 https://dx.doi.org/10.1007/s00214-005-0655-y

 VandeVondele, J; Krack, M; Mohamed, F; Parrinello, M; Chassaing, T;
 Hutter, J. COMPUTER PHYSICS COMMUNICATIONS, 167 (2), 103-128 (2005). 
 QUICKSTEP: Fast and accurate density functional calculations using a
 mixed Gaussian and plane waves approach.
 https://dx.doi.org/10.1016/j.cpc.2004.12.014

 Frigo, M; Johnson, SG. 
 PROCEEDINGS OF THE IEEE, 93 (2), 216-231 (2005). 
 The design and implementation of FFTW3.
 https://dx.doi.org/10.1109/JPROC.2004.840301

 Hartwigsen, C; Goedecker, S; Hutter, J. 
 PHYSICAL REVIEW B, 58 (7), 3641-3662 (1998). 
 Relativistic separable dual-space Gaussian pseudopotentials from H to Rn.
 https://dx.doi.org/10.1103/PhysRevB.58.3641

 Lippert, G; Hutter, J; Parrinello, M. 
 MOLECULAR PHYSICS, 92 (3), 477-487 (1997). 
 A hybrid Gaussian and plane wave density functional scheme.
 https://dx.doi.org/10.1080/002689797170220

 Goedecker, S; Teter, M; Hutter, J. 
 PHYSICAL REVIEW B, 54 (3), 1703-1710 (1996). 
 Separable dual-space Gaussian pseudopotentials.
 https://dx.doi.org/10.1103/PhysRevB.54.1703


 -------------------------------------------------------------------------------
 -                                                                             -
 -                                T I M I N G                                  -
 -                                                                             -
 -------------------------------------------------------------------------------
 SUBROUTINE                       CALLS  ASD         SELF TIME        TOTAL TIME
                                MAXIMUM       AVERAGE  MAXIMUM  AVERAGE  MAXIMUM
 CP2K                                 1  1.0    0.132    0.132 2583.134 2583.134
 qs_forces                            1  2.0    0.000    0.000 2581.658 2581.658
 qs_energies                          1  3.0    0.000    0.000 2581.095 2581.095
 scf_env_do_scf                       1  4.0    0.001    0.001 2579.114 2579.114
 scf_env_do_scf_inner_loop          300  5.0    0.056    0.056 2579.113 2579.113
 qs_scf_new_mos                     300  6.0    0.010    0.010 1997.578 1997.578
 eigensolver                        300  7.0    0.050    0.050 1966.529 1966.529
 cp_fm_syevd                        300  8.0 1267.147 1267.147 1268.866 1268.866
 cp_fm_cholesky_restore             900  8.0  696.547  696.547  696.547  696.547
 gspace_mixing                      299  6.0    4.603    4.603  321.468  321.468
 broyden_mixing                     299  7.0  291.033  291.033  291.036  291.036
 qs_ks_update_qs_env                300  6.0    0.003    0.003  134.442  134.442
 rebuild_ks_matrix                  301  7.0    0.001    0.001  134.377  134.377
 qs_ks_build_kohn_sham_matrix       301  8.0    0.072    0.072  134.376  134.376
 pw_transfer                       3912  9.9    0.337    0.337  125.139  125.139
 qs_rho_update_rho                  301  6.0    0.003    0.003  124.268  124.268
 calculate_rho_elec                 301  7.0   59.368   59.368  124.265  124.265
 fft_wrap_pw1pw2                   3310 10.9    0.038    0.038  121.129  121.129
 fft_wrap_pw1pw2_70                1504 11.2   14.434   14.434  112.048  112.048
 density_rs2pw                      301  8.0    0.023    0.023   62.521   62.521
 fft3d_s                           3311 12.9   55.863   55.863   55.886   55.886
 -------------------------------------------------------------------------------

 The number of warnings for this run is : 1
 
 -------------------------------------------------------------------------------
  **** **** ******  **  PROGRAM ENDED AT                 2021-01-13 22:21:31.755
 ***** ** ***  *** **   PROGRAM RAN ON                                   gnode23
 **    ****   ******    PROGRAM RAN BY                               mayank.modi
 ***** **    ** ** **   PROGRAM PROCESS ID                                 27393
  **** **  *******  **  PROGRAM STOPPED IN /home/mayank.modi/ab-initio-thermodyn
                                           amics-of-water/mayank/cp2k_energy_cal
                                           culations
