 DBCSR| CPU Multiplication driver                                           XSMM
 DBCSR| Multrec recursion limit                                              512
 DBCSR| Multiplication stack size                                           1000
 DBCSR| Maximum elements for images                                    UNLIMITED
 DBCSR| Multiplicative factor virtual images                                   1
 DBCSR| Use multiplication densification                                       T
 DBCSR| Multiplication size stacks                                             3


  **** **** ******  **  PROGRAM STARTED AT               2021-01-13 13:29:29.936
 ***** ** ***  *** **   PROGRAM STARTED ON                               gnode23
 **    ****   ******    PROGRAM STARTED BY                           mayank.modi
 ***** **    ** ** **   PROGRAM PROCESS ID                                 19734
  **** **  *******  **  PROGRAM STARTED IN /home/mayank.modi/ab-initio-thermodyn
                                           amics-of-water/mayank/cp2k_energy_cal
                                           culations

 CP2K| version string:                                          CP2K version 7.1
 CP2K| source code revision number:                                  git:e635599
 CP2K| cp2kflags: omp libint fftw3 libxc xsmm spglib                            
 CP2K| is freely available from                            https://www.cp2k.org/
 CP2K| Program compiled at                          Mon Dec 23 19:23:12 CET 2019
 CP2K| Program compiled on                                                pc9404
 CP2K| Program compiled for                                Linux-x86-64-gfortran
 CP2K| Data directory path                                        /opt/cp2k/data
 CP2K| Input file name                   input_training_correct_cell/input444.in

 GLOBAL| Force Environment number                                              1
 GLOBAL| Basis set file name                                           BASIS_SET
 GLOBAL| Potential file name                                      GTH_POTENTIALS
 GLOBAL| MM Potential file name                                     MM_POTENTIAL
 GLOBAL| Coordinate file name                                      __STD_INPUT__
 GLOBAL| Method name                                                        CP2K
 GLOBAL| Project name                                                   H2O_bulk
 GLOBAL| Preferred FFT library                                             FFTW3
 GLOBAL| Preferred diagonalization lib.                                       SL
 GLOBAL| Run type                                                   ENERGY_FORCE
 GLOBAL| All-to-all communication in single precision                          F
 GLOBAL| FFTs using library dependent lengths                                  F
 GLOBAL| Global print level                                                  LOW
 GLOBAL| MPI I/O enabled                                                       T
 GLOBAL| Total number of message passing processes                             1
 GLOBAL| Number of threads for this process                                   36
 GLOBAL| This output is from process                                           0
 GLOBAL| CPU model name                Intel(R) Xeon(R) CPU E5-2640 v4 @ 2.40GHz
 GLOBAL| CPUID                                                              1002
 GLOBAL| Compiled for CPUID                                                    0

 MEMORY| system memory details [Kb]
 MEMORY|                        rank 0           min           max       average
 MEMORY| MemTotal            131897972     131897972     131897972     131897972
 MEMORY| MemFree             125612396     125612396     125612396     125612396
 MEMORY| Buffers               1901640       1901640       1901640       1901640
 MEMORY| Cached                1393156       1393156       1393156       1393156
 MEMORY| Slab                  2525388       2525388       2525388       2525388
 MEMORY| SReclaimable          1494680       1494680       1494680       1494680
 MEMORY| MemLikelyFree       130401872     130401872     130401872     130401872


 GENERATE| WARNING:: No connections detected for Hydrogen - Atom Nr:        57 !
 GENERATE| WARNING:: No connections detected for Hydrogen - Atom Nr:        77 !
 GENERATE|  Preliminary Number of Bonds generated:                             0
 GENERATE|  Achieved consistency in connectivity generation.

 *******************************************************************************
 *******************************************************************************
 **                                                                           **
 **     #####                         ##              ##                      **
 **    ##   ##            ##          ##              ##                      **
 **   ##     ##                       ##            ######                    **
 **   ##     ##  ##   ##  ##   #####  ##  ##   ####   ##    #####    #####    **
 **   ##     ##  ##   ##  ##  ##      ## ##   ##      ##   ##   ##  ##   ##   **
 **   ##  ## ##  ##   ##  ##  ##      ####     ###    ##   ######   ######    **
 **    ##  ###   ##   ##  ##  ##      ## ##      ##   ##   ##       ##        **
 **     #######   #####   ##   #####  ##  ##  ####    ##    #####   ##        **
 **           ##                                                    ##        **
 **                                                                           **
 **                                                ... make the atoms dance   **
 **                                                                           **
 **            Copyright (C) by CP2K developers group (2000 - 2019)           **
 **                                                                           **
 *******************************************************************************


 TOTAL NUMBERS AND MAXIMUM NUMBERS

  Total number of            - Atomic kinds:                                   2
                             - Atoms:                                        192
                             - Shell sets:                                   384
                             - Shells:                                       704
                             - Primitive Cartesian functions:                960
                             - Cartesian basis functions:                   1536
                             - Spherical basis functions:                   1472

  Maximum angular momentum of- Orbital basis functions:                        2
                             - Local part of the GTH pseudopotential:          2
                             - Non-local part of the GTH pseudopotential:      0


 SCF PARAMETERS         Density guess:                                    ATOMIC
                        --------------------------------------------------------
                        max_scf:                                             300
                        max_scf_history:                                       0
                        max_diis:                                              4
                        --------------------------------------------------------
                        eps_scf:                                        1.00E-07
                        eps_scf_history:                                0.00E+00
                        eps_diis:                                       1.00E-01
                        eps_eigval:                                     1.00E-05
                        --------------------------------------------------------
                        level_shift [a.u.]:                                 0.00
                        --------------------------------------------------------
                        Mixing method:                            BROYDEN_MIXING
                                                charge density mixing in g-space
                        --------------------------------------------------------
                        No outer SCF

 Number of electrons:                                                        512
 Number of occupied orbitals:                                                256
 Number of molecular orbitals:                                               256

 Number of orbital functions:                                               1472
 Number of independent orbital functions:                                   1472

 Extrapolation method: initial_guess


 SCF WAVEFUNCTION OPTIMIZATION

  Step     Update method      Time    Convergence         Total energy    Change
  ------------------------------------------------------------------------------
     1 NoMix/Diag. 0.40E+00    7.2     0.68793933     -1064.1006778264 -1.06E+03
     2 Broy./Diag. 0.40E+00    7.8     1.93931971      -995.9854372215  6.81E+01
     3 Broy./Diag. 0.40E+00    8.0     1.96441130     -1263.4915314542 -2.68E+02
     4 Broy./Diag. 0.40E+00    8.1     1.95480541     -1114.4754064126  1.49E+02
     5 Broy./Diag. 0.40E+00    8.2     1.75970093     -1094.2155161869  2.03E+01
     6 Broy./Diag. 0.40E+00    8.5     1.84916649     -1096.8607830523 -2.65E+00
     7 Broy./Diag. 0.40E+00    9.0     1.30612046     -1087.4434446437  9.42E+00
     8 Broy./Diag. 0.40E+00    9.1     1.65895275     -1081.9757842606  5.47E+00
     9 Broy./Diag. 0.40E+00    9.2     1.72979714     -1080.5012797361  1.47E+00
    10 Broy./Diag. 0.40E+00    9.9     1.56762345     -1073.2917931700  7.21E+00
    11 Broy./Diag. 0.40E+00    9.4     1.58545468     -1079.6221545428 -6.33E+00
    12 Broy./Diag. 0.40E+00    9.4     1.79551812     -1078.6080563053  1.01E+00
    13 Broy./Diag. 0.40E+00    9.5     1.87813693     -1073.1035764512  5.50E+00
    14 Broy./Diag. 0.40E+00    9.5     1.83920310     -1076.1410435950 -3.04E+00
    15 Broy./Diag. 0.40E+00    9.3     1.65805641     -1078.1166837103 -1.98E+00
    16 Broy./Diag. 0.40E+00    8.9     1.47440259     -1074.6795177934  3.44E+00
    17 Broy./Diag. 0.40E+00    9.2     1.46217385     -1078.9377344266 -4.26E+00
    18 Broy./Diag. 0.40E+00    9.7     1.76744299     -1073.7554175088  5.18E+00
    19 Broy./Diag. 0.40E+00    9.7     1.78218614     -1082.7115280083 -8.96E+00
    20 Broy./Diag. 0.40E+00    9.4     1.73438906     -1079.0425998370  3.67E+00
    21 Broy./Diag. 0.40E+00    9.6     1.16398868     -1078.4326611646  6.10E-01
    22 Broy./Diag. 0.40E+00    9.6     1.29053770     -1076.6297904486  1.80E+00
    23 Broy./Diag. 0.40E+00    9.6     1.82475933     -1074.4372293491  2.19E+00
    24 Broy./Diag. 0.40E+00    9.5     1.85320226     -1077.0127811958 -2.58E+00
    25 Broy./Diag. 0.40E+00    9.7     1.80673271     -1077.1550593803 -1.42E-01
    26 Broy./Diag. 0.40E+00    9.6     1.61656492     -1079.3976857249 -2.24E+00
    27 Broy./Diag. 0.40E+00    9.7     1.48733120     -1077.4522495192  1.95E+00
    28 Broy./Diag. 0.40E+00    9.6     1.80125687     -1071.8147186572  5.64E+00
    29 Broy./Diag. 0.40E+00    9.5     1.79237507     -1077.4488242270 -5.63E+00
    30 Broy./Diag. 0.40E+00    9.6     1.25139234     -1075.5729350699  1.88E+00
    31 Broy./Diag. 0.40E+00    9.6     1.22550756     -1075.3710113517  2.02E-01
    32 Broy./Diag. 0.40E+00    9.4     1.80129092     -1072.0180228811  3.35E+00
    33 Broy./Diag. 0.40E+00    9.3     1.27295948     -1079.2260189493 -7.21E+00
    34 Broy./Diag. 0.40E+00    9.2     1.58850607     -1077.5166744409  1.71E+00
    35 Broy./Diag. 0.40E+00    9.2     1.68005483     -1075.6883514914  1.83E+00
    36 Broy./Diag. 0.40E+00    9.5     1.62292609     -1078.4732470040 -2.78E+00
    37 Broy./Diag. 0.40E+00    9.4     1.57947454     -1077.2841373572  1.19E+00
    38 Broy./Diag. 0.40E+00    9.4     1.78592171     -1075.5033258420  1.78E+00
    39 Broy./Diag. 0.40E+00    9.4     1.81837215     -1078.8629991269 -3.36E+00
    40 Broy./Diag. 0.40E+00    9.8     1.25324241     -1075.8525009164  3.01E+00
    41 Broy./Diag. 0.40E+00    9.8     1.65911219     -1077.8296824662 -1.98E+00
    42 Broy./Diag. 0.40E+00    9.6     1.76138214     -1075.5657988385  2.26E+00
    43 Broy./Diag. 0.40E+00    9.8     1.31046077     -1072.6536385734  2.91E+00
    44 Broy./Diag. 0.40E+00    9.6     1.26069437     -1073.7325442170 -1.08E+00
    45 Broy./Diag. 0.40E+00    9.7     1.56899048     -1076.0402981174 -2.31E+00
    46 Broy./Diag. 0.40E+00    9.5     1.61523175     -1078.6735500732 -2.63E+00
    47 Broy./Diag. 0.40E+00    9.4     1.44461865     -1073.9900593060  4.68E+00
    48 Broy./Diag. 0.40E+00    9.7     1.28625560     -1075.3532944152 -1.36E+00
    49 Broy./Diag. 0.40E+00    9.4     1.82820215     -1080.9430227525 -5.59E+00
    50 Broy./Diag. 0.40E+00    9.7     1.34952812     -1074.8958897635  6.05E+00
    51 Broy./Diag. 0.40E+00    9.6     1.67572955     -1075.6034215345 -7.08E-01
    52 Broy./Diag. 0.40E+00    9.6     1.81561889     -1076.1771039727 -5.74E-01
    53 Broy./Diag. 0.40E+00    9.4     1.85235023     -1077.7104979613 -1.53E+00
    54 Broy./Diag. 0.40E+00    9.2     1.80400862     -1076.7753973977  9.35E-01
    55 Broy./Diag. 0.40E+00    9.5     1.40263487     -1074.5992091826  2.18E+00
    56 Broy./Diag. 0.40E+00    9.5     1.66226562     -1079.1111104694 -4.51E+00
    57 Broy./Diag. 0.40E+00    9.6     1.10350939     -1075.5229054991  3.59E+00
    58 Broy./Diag. 0.40E+00    9.6     1.26264172     -1074.5615375769  9.61E-01
    59 Broy./Diag. 0.40E+00    9.5     1.78371344     -1071.3519348569  3.21E+00
    60 Broy./Diag. 0.40E+00    9.6     1.79961245     -1079.0796736996 -7.73E+00
    61 Broy./Diag. 0.40E+00    9.8     1.55140244     -1075.6332937682  3.45E+00
    62 Broy./Diag. 0.40E+00    9.5     1.74317445     -1075.7743315217 -1.41E-01
    63 Broy./Diag. 0.40E+00    9.4     1.56701929     -1080.8041305930 -5.03E+00
    64 Broy./Diag. 0.40E+00    9.7     1.77107028     -1075.4551460056  5.35E+00
    65 Broy./Diag. 0.40E+00    9.7     1.58203774     -1077.7403850060 -2.29E+00
    66 Broy./Diag. 0.40E+00    9.6     1.65758319     -1074.3402228126  3.40E+00
    67 Broy./Diag. 0.40E+00    9.4     1.82471220     -1075.2971229878 -9.57E-01
    68 Broy./Diag. 0.40E+00    9.4     1.82768605     -1077.2468993624 -1.95E+00
    69 Broy./Diag. 0.40E+00    9.6     1.77509699     -1078.3028352681 -1.06E+00
    70 Broy./Diag. 0.40E+00    9.4     1.80045665     -1079.3871276388 -1.08E+00
    71 Broy./Diag. 0.40E+00    9.7     1.48183557     -1075.3987316103  3.99E+00
    72 Broy./Diag. 0.40E+00    9.5     1.48617251     -1074.9630653943  4.36E-01
    73 Broy./Diag. 0.40E+00    9.5     1.80190753     -1074.8801590565  8.29E-02
    74 Broy./Diag. 0.40E+00    9.4     1.81243267     -1077.5581451905 -2.68E+00
    75 Broy./Diag. 0.40E+00    9.3     1.62121555     -1075.8504533977  1.71E+00
    76 Broy./Diag. 0.40E+00    9.2     1.62976376     -1078.6721768190 -2.82E+00
    77 Broy./Diag. 0.40E+00    9.7     1.81866093     -1072.1333381617  6.54E+00
    78 Broy./Diag. 0.40E+00    9.5     1.81437877     -1077.7468961043 -5.61E+00
    79 Broy./Diag. 0.40E+00    9.4     1.81251093     -1075.6927243432  2.05E+00
    80 Broy./Diag. 0.40E+00    9.5     1.82471875     -1075.5077840804  1.85E-01
    81 Broy./Diag. 0.40E+00    9.6     1.26395686     -1075.5526341562 -4.49E-02
    82 Broy./Diag. 0.40E+00    9.5     1.77427744     -1073.8976440504  1.65E+00
    83 Broy./Diag. 0.40E+00    9.6     1.81997834     -1078.4686337468 -4.57E+00
    84 Broy./Diag. 0.40E+00    9.5     1.60078753     -1075.2484570501  3.22E+00
    85 Broy./Diag. 0.40E+00    9.4     1.82907590     -1077.3485909045 -2.10E+00
    86 Broy./Diag. 0.40E+00    9.3     1.61886710     -1078.5524652222 -1.20E+00
    87 Broy./Diag. 0.40E+00    9.5     1.48009602     -1071.7746931660  6.78E+00
    88 Broy./Diag. 0.40E+00    9.3     0.87136317     -1078.0352054498 -6.26E+00
    89 Broy./Diag. 0.40E+00    9.3     1.80923533     -1076.1257554366  1.91E+00
    90 Broy./Diag. 0.40E+00    9.6     1.83577851     -1078.1758936985 -2.05E+00
    91 Broy./Diag. 0.40E+00    9.5     1.48463751     -1076.0364556311  2.14E+00
    92 Broy./Diag. 0.40E+00    9.6     1.58726211     -1077.2817902074 -1.25E+00
    93 Broy./Diag. 0.40E+00    9.6     1.66811936     -1080.6094460911 -3.33E+00
    94 Broy./Diag. 0.40E+00    9.4     1.82575170     -1076.9529285430  3.66E+00
    95 Broy./Diag. 0.40E+00    9.4     1.77487677     -1077.1892372497 -2.36E-01
    96 Broy./Diag. 0.40E+00    9.5     1.80622101     -1078.3271463078 -1.14E+00
    97 Broy./Diag. 0.40E+00    9.7     1.81935502     -1071.6734118760  6.65E+00
    98 Broy./Diag. 0.40E+00    9.3     1.82438107     -1079.4345002445 -7.76E+00
    99 Broy./Diag. 0.40E+00    9.6     1.72640719     -1079.0683781338  3.66E-01
   100 Broy./Diag. 0.40E+00    9.6     1.47595159     -1078.5609148738  5.07E-01
   101 Broy./Diag. 0.40E+00    9.5     1.55539077     -1072.1733988810  6.39E+00
   102 Broy./Diag. 0.40E+00    9.5     1.81392610     -1080.4472231471 -8.27E+00
   103 Broy./Diag. 0.40E+00    9.4     1.81962342     -1080.8357682501 -3.89E-01
   104 Broy./Diag. 0.40E+00    9.5     1.37592160     -1075.7891690107  5.05E+00
   105 Broy./Diag. 0.40E+00    9.4     1.62588858     -1075.5038960130  2.85E-01
   106 Broy./Diag. 0.40E+00    9.6     1.59226038     -1077.3050481067 -1.80E+00
   107 Broy./Diag. 0.40E+00    9.6     1.27442273     -1075.3323561520  1.97E+00
   108 Broy./Diag. 0.40E+00    9.4     1.56014725     -1074.9229510183  4.09E-01
   109 Broy./Diag. 0.40E+00    9.6     1.77098396     -1074.9696785358 -4.67E-02
   110 Broy./Diag. 0.40E+00    9.6     1.83226682     -1077.1611852154 -2.19E+00
   111 Broy./Diag. 0.40E+00    9.5     1.84509578     -1078.6536380630 -1.49E+00
   112 Broy./Diag. 0.40E+00    9.5     1.58206318     -1071.2367371104  7.42E+00
   113 Broy./Diag. 0.40E+00    9.6     1.62517486     -1076.3215111687 -5.08E+00
   114 Broy./Diag. 0.40E+00    9.5     1.54193569     -1075.9503300839  3.71E-01
   115 Broy./Diag. 0.40E+00    9.4     1.59273391     -1072.7667613893  3.18E+00
   116 Broy./Diag. 0.40E+00    9.6     1.67261831     -1080.2185063788 -7.45E+00
   117 Broy./Diag. 0.40E+00    9.6     1.60813475     -1078.0835112618  2.13E+00
   118 Broy./Diag. 0.40E+00    9.6     1.76114807     -1077.4455179397  6.38E-01
   119 Broy./Diag. 0.40E+00    9.5     1.77735260     -1075.5252145433  1.92E+00
   120 Broy./Diag. 0.40E+00    9.5     1.82545866     -1077.5245185536 -2.00E+00
   121 Broy./Diag. 0.40E+00    9.4     1.85660146     -1077.9834199014 -4.59E-01
   122 Broy./Diag. 0.40E+00    9.3     1.71783921     -1078.4376669420 -4.54E-01
   123 Broy./Diag. 0.40E+00    9.2     1.52120218     -1074.8905244278  3.55E+00
   124 Broy./Diag. 0.40E+00    9.6     1.56505633     -1078.1615158489 -3.27E+00
   125 Broy./Diag. 0.40E+00    9.7     1.25030388     -1074.2613430067  3.90E+00
   126 Broy./Diag. 0.40E+00    9.5     1.79263508     -1071.8168737438  2.44E+00
   127 Broy./Diag. 0.40E+00    9.3     1.79002292     -1081.4809393222 -9.66E+00
   128 Broy./Diag. 0.40E+00    9.4     1.76582458     -1077.8523599193  3.63E+00
   129 Broy./Diag. 0.40E+00    9.6     1.77923355     -1075.6786044337  2.17E+00
   130 Broy./Diag. 0.40E+00    9.6     1.26666430     -1074.9872833477  6.91E-01
   131 Broy./Diag. 0.40E+00    9.3     1.67466125     -1071.8142104685  3.17E+00
   132 Broy./Diag. 0.40E+00    9.3     1.77510581     -1078.7813581679 -6.97E+00
   133 Broy./Diag. 0.40E+00    9.1     1.81329141     -1078.4503271429  3.31E-01
   134 Broy./Diag. 0.40E+00    9.4     1.82644727     -1078.2631029460  1.87E-01
   135 Broy./Diag. 0.40E+00    9.5     1.84033978     -1077.3268142649  9.36E-01
   136 Broy./Diag. 0.40E+00    9.8     1.58492046     -1077.9782468460 -6.51E-01
   137 Broy./Diag. 0.40E+00    9.6     1.67838144     -1075.5411147998  2.44E+00
   138 Broy./Diag. 0.40E+00    9.5     1.46616149     -1071.8562011875  3.68E+00
   139 Broy./Diag. 0.40E+00    9.4     1.46409035     -1075.4102190991 -3.55E+00
   140 Broy./Diag. 0.40E+00    9.1     1.23967143     -1075.5024828334 -9.23E-02
   141 Broy./Diag. 0.40E+00    9.6     1.77700789     -1076.2634551412 -7.61E-01
   142 Broy./Diag. 0.40E+00    9.3     1.81261128     -1077.7680087087 -1.50E+00
   143 Broy./Diag. 0.40E+00    9.3     1.83178942     -1078.6934014158 -9.25E-01
   144 Broy./Diag. 0.40E+00    9.5     0.83180957     -1073.6980518184  5.00E+00
   145 Broy./Diag. 0.40E+00    9.4     1.53550080     -1071.8709881676  1.83E+00
   146 Broy./Diag. 0.40E+00    9.1     1.26544027     -1077.7459499115 -5.87E+00
   147 Broy./Diag. 0.40E+00    9.5     1.46865901     -1075.9297851117  1.82E+00
   148 Broy./Diag. 0.40E+00    9.7     1.47561909     -1079.1084853998 -3.18E+00
   149 Broy./Diag. 0.40E+00    9.6     1.62765433     -1076.8615734763  2.25E+00
   150 Broy./Diag. 0.40E+00    9.5     1.25691417     -1075.2787287044  1.58E+00
   151 Broy./Diag. 0.40E+00    9.1     1.80129213     -1075.4347569174 -1.56E-01
   152 Broy./Diag. 0.40E+00    9.0     1.82905638     -1076.7789707596 -1.34E+00
   153 Broy./Diag. 0.40E+00    9.5     1.84479457     -1076.9941966357 -2.15E-01
   154 Broy./Diag. 0.40E+00    9.6     1.71430771     -1076.2098568172  7.84E-01
   155 Broy./Diag. 0.40E+00    9.5     1.58808736     -1077.4540648898 -1.24E+00
   156 Broy./Diag. 0.40E+00    9.3     1.68907790     -1074.6567391054  2.80E+00
   157 Broy./Diag. 0.40E+00    9.7     1.61955566     -1074.7876699743 -1.31E-01
   158 Broy./Diag. 0.40E+00    9.3     1.63620683     -1075.3801627596 -5.92E-01
   159 Broy./Diag. 0.40E+00    9.2     1.81632663     -1075.6553926535 -2.75E-01
   160 Broy./Diag. 0.40E+00    9.1     1.83378542     -1077.5537757051 -1.90E+00
   161 Broy./Diag. 0.40E+00    9.8     1.78795600     -1075.1282109186  2.43E+00
   162 Broy./Diag. 0.40E+00    9.5     1.81855292     -1076.8403906904 -1.71E+00
   163 Broy./Diag. 0.40E+00    9.4     0.97996617     -1074.7865171566  2.05E+00
   164 Broy./Diag. 0.40E+00    9.5     1.20852480     -1074.9001776478 -1.14E-01
   165 Broy./Diag. 0.40E+00    9.6     1.78563836     -1072.3567231047  2.54E+00
   166 Broy./Diag. 0.40E+00    9.3     1.80160523     -1079.5937088428 -7.24E+00
   167 Broy./Diag. 0.40E+00    9.3     1.83021254     -1078.1247806651  1.47E+00
   168 Broy./Diag. 0.40E+00    9.7     1.64065932     -1077.3605442537  7.64E-01
   169 Broy./Diag. 0.40E+00    9.5     1.26024129     -1078.2344345167 -8.74E-01
   170 Broy./Diag. 0.40E+00   10.1     1.45726586     -1074.6859940588  3.55E+00
   171 Broy./Diag. 0.40E+00    9.6     1.46712494     -1074.5113367631  1.75E-01
   172 Broy./Diag. 0.40E+00    9.5     1.60938578     -1075.1002040600 -5.89E-01
   173 Broy./Diag. 0.40E+00    9.7     1.60937419     -1077.6739979595 -2.57E+00
   174 Broy./Diag. 0.40E+00    9.6     1.46241943     -1075.9682196446  1.71E+00
   175 Broy./Diag. 0.40E+00    9.3     1.48765699     -1075.8607953088  1.07E-01
   176 Broy./Diag. 0.40E+00    9.4     1.81792206     -1072.0185229597  3.84E+00
   177 Broy./Diag. 0.40E+00    9.3     1.85198704     -1080.6962202440 -8.68E+00
   178 Broy./Diag. 0.40E+00    9.3     1.55928870     -1077.3966263293  3.30E+00
   179 Broy./Diag. 0.40E+00    8.8     1.63736160     -1078.8078695667 -1.41E+00
   180 Broy./Diag. 0.40E+00    8.8     1.53806493     -1075.1897274307  3.62E+00
   181 Broy./Diag. 0.40E+00    8.9     1.70522250     -1077.3475261697 -2.16E+00
   182 Broy./Diag. 0.40E+00    8.9     1.77318102     -1074.5349755891  2.81E+00
   183 Broy./Diag. 0.40E+00    8.7     1.72554783     -1078.5161599081 -3.98E+00
   184 Broy./Diag. 0.40E+00    9.3     1.62483790     -1077.6994071209  8.17E-01
   185 Broy./Diag. 0.40E+00    9.4     1.79424213     -1075.5782695007  2.12E+00
   186 Broy./Diag. 0.40E+00    9.0     1.82011789     -1081.0442019167 -5.47E+00
   187 Broy./Diag. 0.40E+00    9.0     1.85707360     -1071.8735793909  9.17E+00
   188 Broy./Diag. 0.40E+00    9.3     1.83448276     -1081.3339916943 -9.46E+00
   189 Broy./Diag. 0.40E+00    9.6     1.24238959     -1075.7045299833  5.63E+00
   190 Broy./Diag. 0.40E+00    9.3     1.58357838     -1072.0950556153  3.61E+00
   191 Broy./Diag. 0.40E+00    9.6     1.77530832     -1078.2666944158 -6.17E+00
   192 Broy./Diag. 0.40E+00    9.5     1.82405271     -1074.9380853005  3.33E+00
   193 Broy./Diag. 0.40E+00    9.5     1.71343820     -1078.0028674945 -3.06E+00
   194 Broy./Diag. 0.40E+00    9.6     1.53066487     -1074.9131252483  3.09E+00
   195 Broy./Diag. 0.40E+00    9.6     1.81020946     -1077.0513971818 -2.14E+00
   196 Broy./Diag. 0.40E+00    9.3     1.62141914     -1080.5841293572 -3.53E+00
   197 Broy./Diag. 0.40E+00    9.5     1.52672482     -1075.6867086493  4.90E+00
   198 Broy./Diag. 0.40E+00    9.7     1.66733566     -1075.5528347211  1.34E-01
   199 Broy./Diag. 0.40E+00    9.6     1.63547000     -1074.5657657528  9.87E-01
   200 Broy./Diag. 0.40E+00    9.4     1.76584920     -1079.4428943023 -4.88E+00
   201 Broy./Diag. 0.40E+00    9.4     1.85503460     -1077.3728536298  2.07E+00
   202 Broy./Diag. 0.40E+00    9.9     1.77506918     -1074.8732512283  2.50E+00
   203 Broy./Diag. 0.40E+00    9.6     1.55479941     -1074.0692044408  8.04E-01
   204 Broy./Diag. 0.40E+00    9.4     1.55289789     -1077.2304739248 -3.16E+00
   205 Broy./Diag. 0.40E+00    9.3     1.81683450     -1075.3143863207  1.92E+00
   206 Broy./Diag. 0.40E+00    9.8     1.85215406     -1077.4513782166 -2.14E+00
   207 Broy./Diag. 0.40E+00    9.5     1.83407885     -1071.6370712347  5.81E+00
   208 Broy./Diag. 0.40E+00    9.5     1.80652042     -1077.9409029012 -6.30E+00
   209 Broy./Diag. 0.40E+00    9.4     1.63772966     -1078.4399849826 -4.99E-01
   210 Broy./Diag. 0.40E+00    9.5     1.63407195     -1077.7626982911  6.77E-01
   211 Broy./Diag. 0.40E+00    9.5     1.68175747     -1075.5587057301  2.20E+00
   212 Broy./Diag. 0.40E+00    9.5     1.57736230     -1075.1953634896  3.63E-01
   213 Broy./Diag. 0.40E+00    9.6     1.58345303     -1075.0715879094  1.24E-01
   214 Broy./Diag. 0.40E+00    9.4     1.77874716     -1075.3459109952 -2.74E-01
   215 Broy./Diag. 0.40E+00    9.7     1.56195624     -1075.4173363034 -7.14E-02
   216 Broy./Diag. 0.40E+00    9.3     1.83875034     -1077.6228935504 -2.21E+00
   217 Broy./Diag. 0.40E+00    9.6     1.45716471     -1075.7850160936  1.84E+00
   218 Broy./Diag. 0.40E+00    9.3     1.82264554     -1077.6096196597 -1.82E+00
   219 Broy./Diag. 0.40E+00    9.4     1.58494221     -1075.6725686458  1.94E+00
   220 Broy./Diag. 0.40E+00    9.5     1.66404621     -1078.1711282123 -2.50E+00
   221 Broy./Diag. 0.40E+00    9.6     1.27381489     -1071.5854017993  6.59E+00
   222 Broy./Diag. 0.40E+00    9.4     1.66173042     -1075.8835802512 -4.30E+00
   223 Broy./Diag. 0.40E+00    9.6     1.70353422     -1075.6093066460  2.74E-01
   224 Broy./Diag. 0.40E+00    9.8     1.63016415     -1075.5337859242  7.55E-02
   225 Broy./Diag. 0.40E+00    9.5     1.81345416     -1075.5547350697 -2.09E-02
   226 Broy./Diag. 0.40E+00    9.7     1.84222130     -1077.7717172234 -2.22E+00
   227 Broy./Diag. 0.40E+00    9.6     1.78480901     -1072.5140056705  5.26E+00
   228 Broy./Diag. 0.40E+00    9.5     1.82505392     -1078.0025792006 -5.49E+00
   229 Broy./Diag. 0.40E+00    9.5     1.82442779     -1078.8769593623 -8.74E-01
   230 Broy./Diag. 0.40E+00    9.4     1.03626723     -1079.8988031725 -1.02E+00
   231 Broy./Diag. 0.40E+00    9.3     1.65544101     -1078.1420107921  1.76E+00
   232 Broy./Diag. 0.40E+00    9.5     1.80173493     -1077.2785866297  8.63E-01
   233 Broy./Diag. 0.40E+00    9.5     1.82258884     -1075.2352448779  2.04E+00
   234 Broy./Diag. 0.40E+00    9.3     1.62611015     -1075.8211283611 -5.86E-01
   235 Broy./Diag. 0.40E+00    9.2     1.79865818     -1078.8628554279 -3.04E+00
   236 Broy./Diag. 0.40E+00   10.5     1.82754950     -1077.2920284455  1.57E+00
   237 Broy./Diag. 0.40E+00    9.7     1.62834614     -1074.1798112497  3.11E+00
   238 Broy./Diag. 0.40E+00    9.4     1.24429608     -1078.5715074845 -4.39E+00
   239 Broy./Diag. 0.40E+00    9.4     1.82864518     -1071.8968571731  6.67E+00
   240 Broy./Diag. 0.40E+00    9.6     1.80648075     -1081.1580388345 -9.26E+00
   241 Broy./Diag. 0.40E+00    9.4     1.78019721     -1075.2749063369  5.88E+00
   242 Broy./Diag. 0.40E+00    9.4     1.81901482     -1078.5849109906 -3.31E+00
   243 Broy./Diag. 0.40E+00    9.8     1.14444666     -1075.7025947921  2.88E+00
   244 Broy./Diag. 0.40E+00    9.5     1.64321356     -1075.7428401677 -4.02E-02
   245 Broy./Diag. 0.40E+00    9.5     1.70838381     -1073.9395422832  1.80E+00
   246 Broy./Diag. 0.40E+00    9.6     1.80558409     -1071.9344325613  2.01E+00
   247 Broy./Diag. 0.40E+00    9.4     1.82198576     -1080.9371413077 -9.00E+00
   248 Broy./Diag. 0.40E+00    9.0     1.34379161     -1079.0484789115  1.89E+00
   249 Broy./Diag. 0.40E+00    9.3     1.61225304     -1075.7055025693  3.34E+00
   250 Broy./Diag. 0.40E+00    9.5     1.75393452     -1077.0785226189 -1.37E+00
   251 Broy./Diag. 0.40E+00    9.5     1.80673847     -1075.3752157019  1.70E+00
   252 Broy./Diag. 0.40E+00    9.5     1.81402560     -1077.1179355463 -1.74E+00
   253 Broy./Diag. 0.40E+00    9.5     1.18149687     -1075.7619917986  1.36E+00
   254 Broy./Diag. 0.40E+00    9.6     1.26616563     -1075.2837403352  4.78E-01
   255 Broy./Diag. 0.40E+00    9.5     1.80734436     -1073.7894175420  1.49E+00
   256 Broy./Diag. 0.40E+00    9.6     1.85245372     -1078.5727678866 -4.78E+00
   257 Broy./Diag. 0.40E+00    9.4     1.42497551     -1074.8738746772  3.70E+00
   258 Broy./Diag. 0.40E+00    9.5     1.23523929     -1072.0800639737  2.79E+00
   259 Broy./Diag. 0.40E+00    9.4     1.77640549     -1076.3363085911 -4.26E+00
   260 Broy./Diag. 0.40E+00    9.6     1.80651134     -1077.9494314155 -1.61E+00
   261 Broy./Diag. 0.40E+00    9.6     1.83668653     -1077.4388794190  5.11E-01
   262 Broy./Diag. 0.40E+00    9.4     1.74998353     -1075.3589681223  2.08E+00
   263 Broy./Diag. 0.40E+00    9.4     1.59426210     -1074.9724665618  3.87E-01
   264 Broy./Diag. 0.40E+00    9.3     1.39301600     -1074.8140648222  1.58E-01
   265 Broy./Diag. 0.40E+00    9.6     1.58517486     -1075.3215340442 -5.07E-01
   266 Broy./Diag. 0.40E+00    9.3     1.61661606     -1077.2875833771 -1.97E+00
   267 Broy./Diag. 0.40E+00    9.1     1.78659450     -1073.5903191074  3.70E+00
   268 Broy./Diag. 0.40E+00    9.1     1.79613936     -1079.2610972180 -5.67E+00
   269 Broy./Diag. 0.40E+00    9.5     1.80568205     -1071.8272820843  7.43E+00
   270 Broy./Diag. 0.40E+00    9.5     1.81944722     -1079.2877027573 -7.46E+00
   271 Broy./Diag. 0.40E+00    9.5     1.48090949     -1077.6621226199  1.63E+00
   272 Broy./Diag. 0.40E+00    9.6     1.77481516     -1074.2429662007  3.42E+00
   273 Broy./Diag. 0.40E+00    9.5     1.81926053     -1078.8698555987 -4.63E+00
   274 Broy./Diag. 0.40E+00    9.7     1.26775653     -1078.2774646164  5.92E-01
   275 Broy./Diag. 0.40E+00    9.6     1.81128537     -1075.0016155077  3.28E+00
   276 Broy./Diag. 0.40E+00    9.7     1.82171940     -1077.4190911202 -2.42E+00
   277 Broy./Diag. 0.40E+00    9.3     1.78676985     -1075.2698871234  2.15E+00
   278 Broy./Diag. 0.40E+00    9.5     1.82056451     -1078.0573315579 -2.79E+00
   279 Broy./Diag. 0.40E+00    9.6     1.60401711     -1071.4065150189  6.65E+00
   280 Broy./Diag. 0.40E+00    9.3     1.80444532     -1081.2236097741 -9.82E+00
   281 Broy./Diag. 0.40E+00    9.4     1.83475044     -1079.2387085469  1.98E+00
   282 Broy./Diag. 0.40E+00    9.6     1.46313701     -1074.6983321497  4.54E+00
   283 Broy./Diag. 0.40E+00    9.7     1.66426961     -1075.5176751525 -8.19E-01
   284 Broy./Diag. 0.40E+00    9.5     1.72102681     -1075.1383177875  3.79E-01
   285 Broy./Diag. 0.40E+00    9.4     1.26973645     -1071.8276258836  3.31E+00
   286 Broy./Diag. 0.40E+00    9.1     1.78355787     -1075.6266266731 -3.80E+00
   287 Broy./Diag. 0.40E+00    8.9     1.79802931     -1078.8747125235 -3.25E+00
   288 Broy./Diag. 0.40E+00    9.0     1.79591195     -1077.5882661484  1.29E+00
   289 Broy./Diag. 0.40E+00    9.1     1.82695640     -1078.0690826308 -4.81E-01
   290 Broy./Diag. 0.40E+00    9.8     1.24615311     -1078.2508297236 -1.82E-01
   291 Broy./Diag. 0.40E+00    9.4     1.83434212     -1071.7578203099  6.49E+00
   292 Broy./Diag. 0.40E+00    9.5     1.82414160     -1078.7925705849 -7.03E+00
   293 Broy./Diag. 0.40E+00    9.6     1.80452816     -1077.8045113231  9.88E-01
   294 Broy./Diag. 0.40E+00    9.6     1.69961130     -1078.8898017967 -1.09E+00
   295 Broy./Diag. 0.40E+00    9.3     1.66675128     -1075.0706162968  3.82E+00
   296 Broy./Diag. 0.40E+00    9.4     1.55017019     -1071.7962853613  3.27E+00
   297 Broy./Diag. 0.40E+00    9.6     1.58166582     -1078.7802911664 -6.98E+00
   298 Broy./Diag. 0.40E+00    9.4     1.48005715     -1077.5553390224  1.22E+00
   299 Broy./Diag. 0.40E+00    9.7     1.82750195     -1077.6069784540 -5.16E-02
   300 Broy./Diag. 0.40E+00    9.3     1.21510697     -1075.6475563069  1.96E+00

  Leaving inner SCF loop after reaching   300 steps.


  Electronic density on regular grids:       -512.0000918057       -0.0000918057
  Core density on regular grids:              511.9999727586       -0.0000272414
  Total charge density on r-space grids:       -0.0001190470
  Total charge density g-space grids:          -0.0001190470

  Overlap energy of the core charge distribution:               0.00000000000000
  Self energy of the core charge distribution:              -2838.21791979120962
  Core Hamiltonian energy:                                    760.16527876239263
  Hartree energy:                                            1240.94867296306074
  Exchange-correlation energy:                               -238.54358824111878

  Total energy:                                             -1075.64755630687523

 *** WARNING in qs_scf.F:542 :: SCF run NOT converged ***


 ENERGY| Total FORCE_EVAL ( QS ) energy (a.u.):            -1074.785201899486538


 ATOMIC FORCES in [a.u.]

 # Atom   Kind   Element          X              Y              Z
      1      1      O          -0.05541808     0.07856300    -0.05125665
      2      2      H          -0.01847898    -0.03824731     0.06829798
      3      2      H           0.06021910    -0.02322839    -0.04017221
      4      1      O           0.03174689    -0.09413813     0.02768839
      5      2      H          -0.02348759     0.06936456     0.03937787
      6      2      H           0.01535134     0.01442622    -0.08766084
      7      1      O          -0.10526175     0.02408570    -0.00680791
      8      2      H           0.03884043    -0.06871596    -0.01474977
      9      2      H           0.06624630     0.04275451     0.01790611
     10      1      O           0.02950747    -0.00928307     0.08721224
     11      2      H           0.05116290     0.01395601    -0.05287995
     12      2      H          -0.06776383     0.02312844    -0.00321954
     13      1      O           0.03686594    -0.01051615    -0.08735085
     14      2      H          -0.03056936    -0.06452608     0.03159726
     15      2      H           0.03259925     0.05424828     0.05945622
     16      1      O          -0.05165350    -0.07569552     0.03897255
     17      2      H           0.07880612     0.01378399     0.02803412
     18      2      H           0.00136844     0.05603170    -0.06049711
     19      1      O           0.00475264    -0.00238096     0.04592661
     20      2      H          -0.04918489    -0.04002615     0.02947393
     21      2      H          -0.01589145    -0.01750171    -0.03167337
     22      1      O           0.04434495     0.03683471    -0.01489108
     23      2      H          -0.00632777    -0.02772828     0.05316681
     24      2      H          -0.06092795     0.00594423    -0.03363141
     25      1      O           0.08331989    -0.05025661    -0.01285860
     26      2      H          -0.02325482     0.05864838    -0.00026286
     27      2      H          -0.07662219    -0.00688778     0.06593969
     28      1      O           0.00581030    -0.02668604    -0.07414223
     29      2      H          -0.03997366     0.01524061     0.06648520
     30      2      H           0.06289431     0.05320407     0.00396678
     31      1      O          -0.00215058     0.04141365     0.06893699
     32      2      H           0.04119621    -0.06592188     0.00257688
     33      2      H          -0.04803378    -0.00880365    -0.04601370
     34      1      O          -0.06653190    -0.04146645    -0.05465967
     35      2      H           0.00269082     0.03449399     0.05666829
     36      2      H           0.08661787    -0.04142022     0.00580624
     37      1      O           0.02545321     0.05331316    -0.09112952
     38      2      H          -0.05522310     0.01384868     0.02951159
     39      2      H           0.02140247    -0.04459693     0.04992212
     40      1      O          -0.03753792     0.04010795     0.02151059
     41      2      H           0.01357026    -0.08217423     0.01613268
     42      2      H           0.04220885     0.03467431    -0.03392421
     43      1      O          -0.04416913     0.05496600     0.05218141
     44      2      H           0.05420567    -0.01949300    -0.00566666
     45      2      H          -0.03635446    -0.03058026    -0.03109975
     46      1      O          -0.00560373     0.06608583    -0.01899256
     47      2      H          -0.05494890    -0.02552799     0.02372119
     48      2      H           0.05724896    -0.05734167    -0.03198345
     49      1      O          -0.02688984     0.09267968     0.03643360
     50      2      H           0.01944634    -0.06096979     0.06506395
     51      2      H          -0.00485868    -0.02927189    -0.07994032
     52      1      O          -0.03816621     0.05668442     0.01868952
     53      2      H           0.04596515    -0.00806928    -0.05884804
     54      2      H          -0.02826049    -0.06891066     0.05310634
     55      1      O           0.05910024     0.07064766     0.03238287
     56      2      H           0.01234140    -0.00525767    -0.04573666
     57      2      H          -0.00041214    -0.02239934     0.00643055
     58      1      O          -0.02362908    -0.03956652     0.08991770
     59      2      H          -0.05830841    -0.02020098    -0.02244587
     60      2      H           0.01861348    -0.05000317     0.00501326
     61      1      O          -0.05398207    -0.01254827     0.04081382
     62      2      H          -0.03819558     0.00177225    -0.07777173
     63      2      H           0.06519355    -0.00980065     0.01236079
     64      1      O           0.04976344     0.05073787     0.01862762
     65      2      H          -0.07864653     0.01843088     0.02025311
     66      2      H           0.02551505    -0.07968957    -0.00641175
     67      1      O           0.05143217     0.06074878     0.06403941
     68      2      H          -0.07101732     0.04051319    -0.01432126
     69      2      H           0.01184844    -0.05935241    -0.03891680
     70      1      O          -0.10989968     0.03627799     0.01381313
     71      2      H           0.06706963     0.04826633     0.02423231
     72      2      H           0.00333342    -0.10110133    -0.01345027
     73      1      O          -0.05294067     0.03504868     0.07204490
     74      2      H           0.00988668     0.02860007    -0.06073800
     75      2      H          -0.00238018    -0.08644868     0.01527428
     76      1      O          -0.04849199    -0.01464966     0.03670676
     77      2      H          -0.01666800     0.01778812    -0.00587266
     78      2      H           0.01891340     0.02686097     0.00855666
     79      1      O           0.01480227     0.07370235     0.06385608
     80      2      H           0.02436150    -0.02336847    -0.04546120
     81      2      H          -0.06539415    -0.02045458     0.01756580
     82      1      O           0.00183920    -0.00046143    -0.04513456
     83      2      H          -0.01372807    -0.03785594     0.06231788
     84      2      H           0.04451737     0.07467770     0.02455700
     85      1      O           0.02406799    -0.06565575    -0.06855785
     86      2      H          -0.02973933     0.04140532    -0.01156356
     87      2      H           0.04040971    -0.00267652     0.06175675
     88      1      O           0.06118886    -0.02372169     0.03831823
     89      2      H          -0.04156116     0.05073182     0.03542704
     90      2      H          -0.00847540     0.00189654    -0.08397988
     91      1      O          -0.00229819    -0.04286526    -0.07780851
     92      2      H          -0.01064136    -0.01271011     0.07743786
     93      2      H           0.03382999     0.06654227    -0.01775245
     94      1      O           0.04404753     0.05362200     0.03632844
     95      2      H           0.01373398    -0.05820233    -0.05124156
     96      2      H          -0.06946744    -0.03168480     0.02845461
     97      1      O           0.03227239     0.07213822     0.05218457
     98      2      H           0.03301242     0.00185081    -0.06208620
     99      2      H          -0.04581351    -0.06343647     0.00222102
    100      1      O          -0.00109437     0.10322508     0.02878934
    101      2      H          -0.03127513    -0.01717446    -0.06035099
    102      2      H           0.00392129    -0.04018690     0.05356012
    103      1      O           0.02092151    -0.08050095    -0.00051756
    104      2      H           0.06364678     0.05395716     0.05607963
    105      2      H          -0.04445025     0.05840163    -0.03915899
    106      1      O          -0.00561397    -0.03819284     0.03955560
    107      2      H          -0.03710568     0.07886276    -0.01565929
    108      2      H           0.06807570    -0.01362797    -0.04679700
    109      1      O          -0.09244313     0.06085006     0.05208023
    110      2      H           0.01711767     0.01880585    -0.06690214
    111      2      H           0.02996143    -0.05550662     0.02864442
    112      1      O           0.01348093     0.09433342    -0.00641627
    113      2      H          -0.00844521    -0.06687809    -0.05232391
    114      2      H           0.03018518    -0.01634256     0.07834058
    115      1      O          -0.05061137    -0.03927267    -0.05260286
    116      2      H           0.06687924     0.01875832     0.00894849
    117      2      H          -0.04238944     0.01880406     0.05671317
    118      1      O          -0.01380911     0.03588640    -0.04828444
    119      2      H           0.04792123    -0.01514406     0.04491487
    120      2      H          -0.05112781    -0.03718075     0.01676654
    121      1      O           0.00589178    -0.08411905     0.00567101
    122      2      H           0.03174356     0.05909225     0.05479603
    123      2      H          -0.03919007     0.01800985    -0.03874476
    124      1      O           0.00246592    -0.03003030    -0.04781022
    125      2      H          -0.02715920     0.07704839     0.01394987
    126      2      H           0.02475187    -0.02600194     0.06810923
    127      1      O          -0.08173510    -0.00837070     0.01220302
    128      2      H           0.07206193     0.02034337     0.02393016
    129      2      H          -0.00723405    -0.03411468    -0.03387728
    130      1      O           0.07917447     0.06573113     0.05828876
    131      2      H          -0.06853479     0.03750611     0.00056299
    132      2      H          -0.00997838    -0.07467645    -0.03199425
    133      1      O           0.02814601    -0.06593218    -0.02375493
    134      2      H           0.04046429     0.05918040    -0.01452824
    135      2      H          -0.08456163     0.00878729     0.02741563
    136      1      O           0.03773134    -0.00962141    -0.09561593
    137      2      H           0.01358545     0.06198248     0.04296548
    138      2      H          -0.01466095    -0.06582102     0.03143012
    139      1      O           0.06518306     0.00294319    -0.01154112
    140      2      H          -0.05786828     0.00582337    -0.04810266
    141      2      H          -0.00266786     0.02816766     0.06509123
    142      1      O           0.01377760    -0.05243426    -0.07223380
    143      2      H          -0.00401230    -0.04184837     0.07543541
    144      2      H           0.02119600     0.09089308     0.00964142
    145      1      O           0.04814879    -0.01957200     0.02997488
    146      2      H          -0.07157529    -0.02049344     0.04271234
    147      2      H          -0.02206608     0.06802625    -0.03348053
    148      1      O          -0.03676684     0.05177131     0.03375545
    149      2      H           0.06370934    -0.00303736    -0.05561523
    150      2      H          -0.05151202    -0.05196692     0.00134135
    151      1      O          -0.12409580     0.06038420     0.00650978
    152      2      H           0.03282736    -0.07651642    -0.03273065
    153      2      H           0.12460169    -0.03881142     0.00273042
    154      1      O          -0.08426898    -0.06019175     0.01168789
    155      2      H           0.01468976     0.00107976    -0.07770658
    156      2      H           0.05319296     0.03191353     0.04736390
    157      1      O           0.00825768     0.01384225    -0.06825113
    158      2      H          -0.05260015    -0.00070934     0.06005727
    159      2      H           0.05107267    -0.06121114     0.00022204
    160      1      O           0.04527021    -0.06179616     0.04471529
    161      2      H          -0.03210146     0.05206758     0.03564859
    162      2      H           0.00989502     0.00497056    -0.05619016
    163      1      O           0.06835858     0.00327932    -0.03905376
    164      2      H          -0.04755255     0.05799244    -0.01485727
    165      2      H          -0.04438288    -0.06879373     0.03207269
    166      1      O           0.04413425     0.04071084    -0.04316810
    167      2      H           0.00837641     0.00070141     0.08878564
    168      2      H          -0.03773292    -0.06305646    -0.00445364
    169      1      O           0.01732663    -0.05982450    -0.06828030
    170      2      H          -0.05953180     0.04915332    -0.00024821
    171      2      H           0.02655325    -0.00802122     0.06512768
    172      1      O          -0.07768121     0.04412025    -0.00184416
    173      2      H           0.05476311     0.03604156    -0.04477311
    174      2      H           0.05958562     0.04741985     0.05269802
    175      1      O           0.07497559    -0.00937412    -0.04975674
    176      2      H          -0.08170863     0.04666249    -0.03253052
    177      2      H          -0.00833979    -0.05451436     0.06154894
    178      1      O          -0.03985218     0.07841898     0.05351482
    179      2      H           0.06709617    -0.01838529     0.03587006
    180      2      H          -0.00988205    -0.02525870    -0.07469843
    181      1      O          -0.01159176    -0.05279346     0.00247681
    182      2      H          -0.05385577     0.05650216     0.01881337
    183      2      H           0.04608938     0.09352606    -0.01262604
    184      1      O          -0.02630016    -0.05389478    -0.04141783
    185      2      H          -0.00372546     0.05974691    -0.02098147
    186      2      H          -0.00337890    -0.02546732     0.09321999
    187      1      O           0.04369846     0.00078133     0.05087153
    188      2      H           0.02699939     0.03433773    -0.04432017
    189      2      H          -0.07404900    -0.03891621    -0.00568740
    190      1      O          -0.10070235    -0.01533773    -0.01820313
    191      2      H           0.05699488    -0.05510839    -0.00491588
    192      2      H           0.02206903     0.08024814    -0.01098609
 SUM OF ATOMIC FORCES          -0.16455028     0.13132535     0.51270148     0.55424358

 -------------------------------------------------------------------------------
 -                                                                             -
 -                                DBCSR STATISTICS                             -
 -                                                                             -
 -------------------------------------------------------------------------------
 COUNTER                                    TOTAL       BLAS       SMM       ACC
 flops     5 x     5 x   256           5887078400       0.0%    100.0%      0.0%
 flops     5 x    13 x   256           7012096000       0.0%    100.0%      0.0%
 flops    13 x     5 x   256           7222458880       0.0%    100.0%      0.0%
 flops    13 x    13 x   256           9558488576       0.0%    100.0%      0.0%
 flops inhomo. stacks                           0       0.0%      0.0%      0.0%
 flops total                        29.680122E+09       0.0%    100.0%      0.0%
 flops max/rank                     29.680122E+09       0.0%    100.0%      0.0%
 matmuls inhomo. stacks                         0       0.0%      0.0%      0.0%
 matmuls total                             998116       0.0%    100.0%      0.0%
 number of processed stacks                 42140       0.0%    100.0%      0.0%
 average stack size                                     0.0      23.7       0.0
 marketing flops                   333.927416E+09
 -------------------------------------------------------------------------------
 # multiplications                            301
 max memory usage/rank               4.979024E+09
 # max total images/rank                        1
 # max 3D layers                                1
 # MPI messages exchanged                       0
 MPI messages size (bytes):
  total size                         0.000000E+00
  min size                           0.000000E+00
  max size                           0.000000E+00
  average size                       0.000000E+00
 MPI breakdown and total messages size (bytes):
             size <=      128                   0                        0
       128 < size <=     8192                   0                        0
      8192 < size <=    32768                   0                        0
     32768 < size <=   131072                   0                        0
    131072 < size <=  4194304                   0                        0
   4194304 < size <= 16777216                   0                        0
  16777216 < size                               0                        0
 -------------------------------------------------------------------------------

 MEMORY| Estimated peak process memory [MiB]                                4743

 -------------------------------------------------------------------------------
 -                                                                             -
 -                           R E F E R E N C E S                               -
 -                                                                             -
 -------------------------------------------------------------------------------
 
 CP2K version 7.1, the CP2K developers group (2019).
 CP2K is freely available from https://www.cp2k.org/ .

 Schuett, Ole; Messmer, Peter; Hutter, Juerg; VandeVondele, Joost. 
 Electronic Structure Calculations on Graphics Processing Units, John
 Wiley & Sons, Ltd, 173-190 (2016). 
 GPU-Accelerated Sparse Matrix-Matrix Multiplication for
 Linear Scaling Density Functional Theory.
 https://dx.doi.org/10.1002/9781118670712.ch8

 Borstnik, U; VandeVondele, J; Weber, V; Hutter, J. 
 PARALLEL COMPUTING, 40 (5-6), 47-58 (2014). 
 Sparse matrix multiplication: The distributed block-compressed sparse
 row library.
 https://dx.doi.org/10.1016/j.parco.2014.03.012

 Hutter, J; Iannuzzi, M; Schiffmann, F; VandeVondele, J. 
 WIREs Comput Mol Sci., 4 (1), 15-25 (2014). 
 CP2K: atomistic simulations of condensed matter systems.
 https://dx.doi.org/10.1002/wcms.1159

 Krack, M. 
 THEORETICAL CHEMISTRY ACCOUNTS, 114 (1-3), 145-152 (2005). 
 Pseudopotentials for H to Kr optimized for gradient-corrected
 exchange-correlation functionals.
 https://dx.doi.org/10.1007/s00214-005-0655-y

 VandeVondele, J; Krack, M; Mohamed, F; Parrinello, M; Chassaing, T;
 Hutter, J. COMPUTER PHYSICS COMMUNICATIONS, 167 (2), 103-128 (2005). 
 QUICKSTEP: Fast and accurate density functional calculations using a
 mixed Gaussian and plane waves approach.
 https://dx.doi.org/10.1016/j.cpc.2004.12.014

 Frigo, M; Johnson, SG. 
 PROCEEDINGS OF THE IEEE, 93 (2), 216-231 (2005). 
 The design and implementation of FFTW3.
 https://dx.doi.org/10.1109/JPROC.2004.840301

 Hartwigsen, C; Goedecker, S; Hutter, J. 
 PHYSICAL REVIEW B, 58 (7), 3641-3662 (1998). 
 Relativistic separable dual-space Gaussian pseudopotentials from H to Rn.
 https://dx.doi.org/10.1103/PhysRevB.58.3641

 Lippert, G; Hutter, J; Parrinello, M. 
 MOLECULAR PHYSICS, 92 (3), 477-487 (1997). 
 A hybrid Gaussian and plane wave density functional scheme.
 https://dx.doi.org/10.1080/002689797170220

 Goedecker, S; Teter, M; Hutter, J. 
 PHYSICAL REVIEW B, 54 (3), 1703-1710 (1996). 
 Separable dual-space Gaussian pseudopotentials.
 https://dx.doi.org/10.1103/PhysRevB.54.1703


 -------------------------------------------------------------------------------
 -                                                                             -
 -                                T I M I N G                                  -
 -                                                                             -
 -------------------------------------------------------------------------------
 SUBROUTINE                       CALLS  ASD         SELF TIME        TOTAL TIME
                                MAXIMUM       AVERAGE  MAXIMUM  AVERAGE  MAXIMUM
 CP2K                                 1  1.0    0.178    0.178 2837.168 2837.168
 qs_forces                            1  2.0    0.000    0.000 2835.147 2835.147
 qs_energies                          1  3.0    0.000    0.000 2834.453 2834.453
 scf_env_do_scf                       1  4.0    0.002    0.002 2831.953 2831.953
 scf_env_do_scf_inner_loop          300  5.0    0.063    0.063 2831.951 2831.951
 qs_scf_new_mos                     300  6.0    0.010    0.010 2018.127 2018.127
 eigensolver                        300  7.0    0.053    0.053 1983.842 1983.842
 cp_fm_syevd                        300  8.0 1285.309 1285.309 1287.099 1287.099
 cp_fm_cholesky_restore             900  8.0  695.672  695.672  695.672  695.672
 gspace_mixing                      299  6.0    6.752    6.752  459.419  459.419
 broyden_mixing                     299  7.0  416.744  416.744  416.748  416.748
 rebuild_ks_matrix                  301  7.0    0.001    0.001  185.405  185.405
 qs_ks_build_kohn_sham_matrix       301  8.0    0.080    0.080  185.404  185.404
 qs_ks_update_qs_env                300  6.0    0.003    0.003  185.277  185.277
 pw_transfer                       3912  9.9    0.351    0.351  171.318  171.318
 qs_rho_update_rho                  301  6.0    0.004    0.004  167.945  167.945
 calculate_rho_elec                 301  7.0   80.525   80.525  167.941  167.941
 fft_wrap_pw1pw2                   3310 10.9    0.039    0.039  166.246  166.246
 fft_wrap_pw1pw2_70                1504 11.2   18.650   18.650  154.975  154.975
 density_rs2pw                      301  8.0    0.028    0.028   84.747   84.747
 fft3d_s                           3311 12.9   74.611   74.611   74.636   74.636
 pw_poisson_solve                   301  9.0   54.553   54.553   59.384   59.384
 pw_scatter_s                      1804 13.2   58.596   58.596   58.596   58.596
 -------------------------------------------------------------------------------

 The number of warnings for this run is : 1
 
 -------------------------------------------------------------------------------
  **** **** ******  **  PROGRAM ENDED AT                 2021-01-13 14:16:47.338
 ***** ** ***  *** **   PROGRAM RAN ON                                   gnode23
 **    ****   ******    PROGRAM RAN BY                               mayank.modi
 ***** **    ** ** **   PROGRAM PROCESS ID                                 19734
  **** **  *******  **  PROGRAM STOPPED IN /home/mayank.modi/ab-initio-thermodyn
                                           amics-of-water/mayank/cp2k_energy_cal
                                           culations
