 DBCSR| CPU Multiplication driver                                           XSMM
 DBCSR| Multrec recursion limit                                              512
 DBCSR| Multiplication stack size                                           1000
 DBCSR| Maximum elements for images                                    UNLIMITED
 DBCSR| Multiplicative factor virtual images                                   1
 DBCSR| Use multiplication densification                                       T
 DBCSR| Multiplication size stacks                                             3


  **** **** ******  **  PROGRAM STARTED AT               2021-02-22 11:11:57.511
 ***** ** ***  *** **   PROGRAM STARTED ON                               gnode68
 **    ****   ******    PROGRAM STARTED BY                           mayank.modi
 ***** **    ** ** **   PROGRAM PROCESS ID                                 19774
  **** **  *******  **  PROGRAM STARTED IN /home/mayank.modi/ab-initio-thermodyn
                                           amics-of-water/mayank/cp2k_energy_cal
                                           culations

 CP2K| version string:                                          CP2K version 7.1
 CP2K| source code revision number:                                  git:e635599
 CP2K| cp2kflags: omp libint fftw3 libxc xsmm spglib                            
 CP2K| is freely available from                            https://www.cp2k.org/
 CP2K| Program compiled at                          Mon Dec 23 19:23:12 CET 2019
 CP2K| Program compiled on                                                pc9404
 CP2K| Program compiled for                                Linux-x86-64-gfortran
 CP2K| Data directory path                                        /opt/cp2k/data
 CP2K| Input file name                  input_training_correct_cell/input1348.in

 GLOBAL| Force Environment number                                              1
 GLOBAL| Basis set file name                                           BASIS_SET
 GLOBAL| Potential file name                                      GTH_POTENTIALS
 GLOBAL| MM Potential file name                                     MM_POTENTIAL
 GLOBAL| Coordinate file name                                      __STD_INPUT__
 GLOBAL| Method name                                                        CP2K
 GLOBAL| Project name                                                   H2O_bulk
 GLOBAL| Preferred FFT library                                             FFTW3
 GLOBAL| Preferred diagonalization lib.                                       SL
 GLOBAL| Run type                                                   ENERGY_FORCE
 GLOBAL| All-to-all communication in single precision                          F
 GLOBAL| FFTs using library dependent lengths                                  F
 GLOBAL| Global print level                                                  LOW
 GLOBAL| MPI I/O enabled                                                       T
 GLOBAL| Total number of message passing processes                             1
 GLOBAL| Number of threads for this process                                   36
 GLOBAL| This output is from process                                           0
 GLOBAL| CPU model name                Intel(R) Xeon(R) CPU E5-2640 v4 @ 2.40GHz
 GLOBAL| CPUID                                                              1002
 GLOBAL| Compiled for CPUID                                                    0

 MEMORY| system memory details [Kb]
 MEMORY|                        rank 0           min           max       average
 MEMORY| MemTotal            131893512     131893512     131893512     131893512
 MEMORY| MemFree             119709880     119709880     119709880     119709880
 MEMORY| Buffers               1024296       1024296       1024296       1024296
 MEMORY| Cached                9698240       9698240       9698240       9698240
 MEMORY| Slab                  1016560       1016560       1016560       1016560
 MEMORY| SReclaimable           622764        622764        622764        622764
 MEMORY| MemLikelyFree       131055180     131055180     131055180     131055180


 GENERATE|  Preliminary Number of Bonds generated:                             0
 GENERATE|  Achieved consistency in connectivity generation.

 *******************************************************************************
 *******************************************************************************
 **                                                                           **
 **     #####                         ##              ##                      **
 **    ##   ##            ##          ##              ##                      **
 **   ##     ##                       ##            ######                    **
 **   ##     ##  ##   ##  ##   #####  ##  ##   ####   ##    #####    #####    **
 **   ##     ##  ##   ##  ##  ##      ## ##   ##      ##   ##   ##  ##   ##   **
 **   ##  ## ##  ##   ##  ##  ##      ####     ###    ##   ######   ######    **
 **    ##  ###   ##   ##  ##  ##      ## ##      ##   ##   ##       ##        **
 **     #######   #####   ##   #####  ##  ##  ####    ##    #####   ##        **
 **           ##                                                    ##        **
 **                                                                           **
 **                                                ... make the atoms dance   **
 **                                                                           **
 **            Copyright (C) by CP2K developers group (2000 - 2019)           **
 **                                                                           **
 *******************************************************************************


 TOTAL NUMBERS AND MAXIMUM NUMBERS

  Total number of            - Atomic kinds:                                   2
                             - Atoms:                                        192
                             - Shell sets:                                   384
                             - Shells:                                       704
                             - Primitive Cartesian functions:                960
                             - Cartesian basis functions:                   1536
                             - Spherical basis functions:                   1472

  Maximum angular momentum of- Orbital basis functions:                        2
                             - Local part of the GTH pseudopotential:          2
                             - Non-local part of the GTH pseudopotential:      0


 SCF PARAMETERS         Density guess:                                    ATOMIC
                        --------------------------------------------------------
                        max_scf:                                             300
                        max_scf_history:                                       0
                        max_diis:                                              4
                        --------------------------------------------------------
                        eps_scf:                                        1.00E-07
                        eps_scf_history:                                0.00E+00
                        eps_diis:                                       1.00E-01
                        eps_eigval:                                     1.00E-05
                        --------------------------------------------------------
                        level_shift [a.u.]:                                 0.00
                        --------------------------------------------------------
                        Mixing method:                            BROYDEN_MIXING
                                                charge density mixing in g-space
                        --------------------------------------------------------
                        No outer SCF

 Number of electrons:                                                        512
 Number of occupied orbitals:                                                256
 Number of molecular orbitals:                                               256

 Number of orbital functions:                                               1472
 Number of independent orbital functions:                                   1472

 Extrapolation method: initial_guess


 SCF WAVEFUNCTION OPTIMIZATION

  Step     Update method      Time    Convergence         Total energy    Change
  ------------------------------------------------------------------------------
     1 NoMix/Diag. 0.40E+00    7.3     0.61533712     -1064.2687414838 -1.06E+03
     2 Broy./Diag. 0.40E+00    7.9     1.93124455      -995.4098736968  6.89E+01
     3 Broy./Diag. 0.40E+00    8.0     1.97501764     -1265.4707834181 -2.70E+02
     4 Broy./Diag. 0.40E+00    8.4     1.73804048     -1114.3830826811  1.51E+02
     5 Broy./Diag. 0.40E+00    8.8     1.78111136     -1095.3008015337  1.91E+01
     6 Broy./Diag. 0.40E+00    8.8     1.87278658     -1098.5698117314 -3.27E+00
     7 Broy./Diag. 0.40E+00    8.9     1.57142074     -1095.7993715180  2.77E+00
     8 Broy./Diag. 0.40E+00    9.2     0.53321719     -1081.7755446200  1.40E+01
     9 Broy./Diag. 0.40E+00    9.3     0.20539042     -1073.6534362102  8.12E+00
    10 Broy./Diag. 0.40E+00    9.4     0.10539608     -1074.0034318486 -3.50E-01
    11 Broy./Diag. 0.40E+00    9.5     0.15074617     -1075.0376822254 -1.03E+00
    12 Broy./Diag. 0.40E+00    9.5     0.20608671     -1074.5762670932  4.61E-01
    13 Broy./Diag. 0.40E+00    9.3     1.36928457     -1072.8648382522  1.71E+00
    14 Broy./Diag. 0.40E+00    9.7     1.39163389     -1078.9490014042 -6.08E+00
    15 Broy./Diag. 0.40E+00    9.5     0.13352581     -1077.6191207087  1.33E+00
    16 Broy./Diag. 0.40E+00    9.5     0.09764116     -1077.6324202937 -1.33E-02
    17 Broy./Diag. 0.40E+00    9.4     0.05688080     -1076.3707920545  1.26E+00
    18 Broy./Diag. 0.40E+00    9.4     0.05411177     -1077.1204961920 -7.50E-01
    19 Broy./Diag. 0.40E+00    9.5     0.04417458     -1076.3204489611  8.00E-01
    20 Broy./Diag. 0.40E+00    9.7     0.02287683     -1076.2958193607  2.46E-02
    21 Broy./Diag. 0.40E+00    9.5     0.01630460     -1076.2485516912  4.73E-02
    22 Broy./Diag. 0.40E+00    9.7     0.01093815     -1076.1627650482  8.58E-02
    23 Broy./Diag. 0.40E+00    9.8     0.00739038     -1076.2276448975 -6.49E-02
    24 Broy./Diag. 0.40E+00    9.4     0.00658500     -1076.2491894297 -2.15E-02
    25 Broy./Diag. 0.40E+00    9.6     0.00596770     -1076.1694878290  7.97E-02
    26 Broy./Diag. 0.40E+00    9.6     0.00459077     -1076.2182435478 -4.88E-02
    27 Broy./Diag. 0.40E+00    9.7     0.00328086     -1076.2522978749 -3.41E-02
    28 Broy./Diag. 0.40E+00    9.4     0.00388492     -1076.1941656818  5.81E-02
    29 Broy./Diag. 0.40E+00    9.7     0.00283180     -1076.2491387236 -5.50E-02
    30 Broy./Diag. 0.40E+00    9.5     0.00229718     -1076.2427261908  6.41E-03
    31 Broy./Diag. 0.40E+00    9.3     0.00216200     -1076.2127954638  2.99E-02
    32 Broy./Diag. 0.40E+00    9.1     0.00181750     -1076.2244844333 -1.17E-02
    33 Broy./Diag. 0.40E+00    8.7     0.00158609     -1076.2160058658  8.48E-03
    34 Broy./Diag. 0.40E+00    9.4     0.00097198     -1076.2056489897  1.04E-02
    35 Broy./Diag. 0.40E+00    9.6     0.00090248     -1076.2108195174 -5.17E-03
    36 Broy./Diag. 0.40E+00    9.5     0.00070899     -1076.2104439842  3.76E-04
    37 Broy./Diag. 0.40E+00    9.3     0.00060675     -1076.2119734439 -1.53E-03
    38 Broy./Diag. 0.40E+00    8.8     0.00073214     -1076.2180681084 -6.09E-03
    39 Broy./Diag. 0.40E+00    8.9     0.00057316     -1076.2152130512  2.86E-03
    40 Broy./Diag. 0.40E+00    8.8     0.00037725     -1076.2141137445  1.10E-03
    41 Broy./Diag. 0.40E+00    8.8     0.00023714     -1076.2189716519 -4.86E-03
    42 Broy./Diag. 0.40E+00    8.7     0.00031544     -1076.2167158221  2.26E-03
    43 Broy./Diag. 0.40E+00    8.7     0.00028099     -1076.2164149830  3.01E-04
    44 Broy./Diag. 0.40E+00    9.7     0.00016537     -1076.2170662307 -6.51E-04
    45 Broy./Diag. 0.40E+00    9.4     0.00015985     -1076.2169168650  1.49E-04
    46 Broy./Diag. 0.40E+00    9.5     0.00009602     -1076.2163762835  5.41E-04
    47 Broy./Diag. 0.40E+00    9.6     0.00008303     -1076.2158402286  5.36E-04
    48 Broy./Diag. 0.40E+00    9.5     0.00010087     -1076.2168039611 -9.64E-04
    49 Broy./Diag. 0.40E+00    9.5     0.00011994     -1076.2161306591  6.73E-04
    50 Broy./Diag. 0.40E+00    9.5     0.00009227     -1076.2162983699 -1.68E-04
    51 Broy./Diag. 0.40E+00    9.3     0.00004827     -1076.2162333471  6.50E-05
    52 Broy./Diag. 0.40E+00    9.2     0.00005923     -1076.2165309698 -2.98E-04
    53 Broy./Diag. 0.40E+00    9.5     0.00005353     -1076.2163127701  2.18E-04
    54 Broy./Diag. 0.40E+00    9.4     0.00004665     -1076.2163955983 -8.28E-05
    55 Broy./Diag. 0.40E+00    9.3     0.00003671     -1076.2163934083  2.19E-06
    56 Broy./Diag. 0.40E+00    9.1     0.00002116     -1076.2162352470  1.58E-04
    57 Broy./Diag. 0.40E+00    9.5     0.00001274     -1076.2164285025 -1.93E-04
    58 Broy./Diag. 0.40E+00    9.4     0.00001304     -1076.2163562427  7.23E-05
    59 Broy./Diag. 0.40E+00    9.5     0.00001732     -1076.2163325066  2.37E-05
    60 Broy./Diag. 0.40E+00    9.3     0.00001707     -1076.2163375024 -5.00E-06
    61 Broy./Diag. 0.40E+00    8.9     0.00001086     -1076.2163980790 -6.06E-05
    62 Broy./Diag. 0.40E+00    8.8     0.00001174     -1076.2163628231  3.53E-05
    63 Broy./Diag. 0.40E+00    8.8     0.00001205     -1076.2163616550  1.17E-06
    64 Broy./Diag. 0.40E+00    9.3     0.00000926     -1076.2164034371 -4.18E-05
    65 Broy./Diag. 0.40E+00    8.9     0.00000539     -1076.2163818395  2.16E-05
    66 Broy./Diag. 0.40E+00    8.7     0.00000351     -1076.2163826601 -8.21E-07
    67 Broy./Diag. 0.40E+00    9.1     0.00000307     -1076.2163877845 -5.12E-06
    68 Broy./Diag. 0.40E+00    9.7     0.00000224     -1076.2163780082  9.78E-06
    69 Broy./Diag. 0.40E+00    9.7     0.00000397     -1076.2163797345 -1.73E-06
    70 Broy./Diag. 0.40E+00    9.3     0.00000416     -1076.2163954502 -1.57E-05
    71 Broy./Diag. 0.40E+00    9.5     0.00000396     -1076.2163673423  2.81E-05
    72 Broy./Diag. 0.40E+00    9.5     0.00000289     -1076.2163737290 -6.39E-06
    73 Broy./Diag. 0.40E+00    9.5     0.00000295     -1076.2163797384 -6.01E-06
    74 Broy./Diag. 0.40E+00    9.4     0.00000249     -1076.2163687959  1.09E-05
    75 Broy./Diag. 0.40E+00    9.1     0.00000146     -1076.2163766319 -7.84E-06
    76 Broy./Diag. 0.40E+00    8.9     0.00000101     -1076.2163719107  4.72E-06
    77 Broy./Diag. 0.40E+00    9.0     0.00000102     -1076.2163722639 -3.53E-07
    78 Broy./Diag. 0.40E+00    9.0     0.00000073     -1076.2163785397 -6.28E-06
    79 Broy./Diag. 0.40E+00    9.3     0.00000062     -1076.2163735365  5.00E-06
    80 Broy./Diag. 0.40E+00    9.3     0.00000077     -1076.2163712619  2.27E-06
    81 Broy./Diag. 0.40E+00    9.7     0.00000074     -1076.2163782744 -7.01E-06
    82 Broy./Diag. 0.40E+00    9.5     0.00000053     -1076.2163751532  3.12E-06
    83 Broy./Diag. 0.40E+00    9.6     0.00000049     -1076.2163729193  2.23E-06
    84 Broy./Diag. 0.40E+00    9.5     0.00000055     -1076.2163757321 -2.81E-06
    85 Broy./Diag. 0.40E+00    9.5     0.00000038     -1076.2163741456  1.59E-06
    86 Broy./Diag. 0.40E+00    9.5     0.00000019     -1076.2163747133 -5.68E-07
    87 Broy./Diag. 0.40E+00    9.4     0.00000019     -1076.2163749060 -1.93E-07
    88 Broy./Diag. 0.40E+00    9.3     0.00000016     -1076.2163738336  1.07E-06
    89 Broy./Diag. 0.40E+00    9.5     0.00000013     -1076.2163749775 -1.14E-06
    90 Broy./Diag. 0.40E+00    9.5     0.00000021     -1076.2163751752 -1.98E-07
    91 Broy./Diag. 0.40E+00    9.5     0.00000021     -1076.2163734281  1.75E-06
    92 Broy./Diag. 0.40E+00    9.6     0.00000019     -1076.2163745921 -1.16E-06
    93 Broy./Diag. 0.40E+00    9.3     0.00000016     -1076.2163751412 -5.49E-07
    94 Broy./Diag. 0.40E+00    9.6     0.00000017     -1076.2163743411  8.00E-07
    95 Broy./Diag. 0.40E+00    9.3     0.00000014     -1076.2163745810 -2.40E-07
    96 Broy./Diag. 0.40E+00    9.2     0.00000007     -1076.2163744617  1.19E-07

  *** SCF run converged in    96 steps ***


  Electronic density on regular grids:       -512.0003700492       -0.0003700492
  Core density on regular grids:              511.9998948313       -0.0001051687
  Total charge density on r-space grids:       -0.0004752179
  Total charge density g-space grids:          -0.0004752179

  Overlap energy of the core charge distribution:               0.00000000000000
  Self energy of the core charge distribution:              -2838.21791979120962
  Core Hamiltonian energy:                                    759.88666746894057
  Hartree energy:                                            1240.78250090474012
  Exchange-correlation energy:                               -238.66762304413129

  Total energy:                                             -1076.21637446166005

 ENERGY| Total FORCE_EVAL ( QS ) energy (a.u.):            -1076.216374529915811


 ATOMIC FORCES in [a.u.]

 # Atom   Kind   Element          X              Y              Z
      1      1      O           0.01416561    -0.02578165    -0.05571790
      2      2      H           0.05933046     0.00908712     0.02330712
      3      2      H          -0.04165312     0.07208283     0.00712847
      4      1      O           0.03035571     0.01639486    -0.04473958
      5      2      H          -0.04979301    -0.07153774     0.00944823
      6      2      H           0.03484350     0.05795323     0.04473375
      7      1      O           0.06295943    -0.02359587     0.00411443
      8      2      H          -0.03880585    -0.05721481    -0.04194985
      9      2      H           0.01629738     0.07630141    -0.02590820
     10      1      O           0.02767978     0.05866427     0.03022527
     11      2      H          -0.05265533     0.03747079     0.02566268
     12      2      H          -0.00795232    -0.05232755    -0.03184951
     13      1      O           0.04985429     0.05124556    -0.03086430
     14      2      H          -0.03031229    -0.04580824    -0.03467063
     15      2      H          -0.01757592    -0.01582936     0.05216197
     16      1      O           0.02495185    -0.05959133    -0.07594495
     17      2      H           0.03424721     0.05842948     0.00248366
     18      2      H          -0.02373450    -0.02287829     0.06196576
     19      1      O           0.00123553    -0.01200088     0.00112602
     20      2      H          -0.08667595    -0.03643490    -0.00171601
     21      2      H           0.05235789     0.00565318     0.05961371
     22      1      O          -0.04739394    -0.03453607    -0.06084049
     23      2      H          -0.00544499     0.05380872     0.00148315
     24      2      H           0.04651931    -0.00842224     0.01200692
     25      1      O           0.05868944    -0.02560215    -0.00717296
     26      2      H          -0.06390790    -0.02468673    -0.01279377
     27      2      H          -0.02408648     0.03679110     0.06970296
     28      1      O           0.02749186     0.05343300     0.05779396
     29      2      H          -0.04613393     0.00365980     0.04671881
     30      2      H           0.02559704     0.01335160    -0.05331389
     31      1      O          -0.01696359    -0.01247916    -0.06792291
     32      2      H           0.03633487     0.03477841    -0.04810466
     33      2      H           0.02390753    -0.00122581     0.07784402
     34      1      O          -0.08459399     0.00850640    -0.09797499
     35      2      H           0.09560840    -0.03235704     0.00822432
     36      2      H          -0.03717276     0.01127212     0.08698675
     37      1      O           0.00816687    -0.05431060     0.01804479
     38      2      H          -0.00933772     0.06513472     0.03311390
     39      2      H           0.04842229    -0.01861728    -0.02407654
     40      1      O           0.02802927    -0.06307193     0.03668440
     41      2      H          -0.02976465     0.07758011    -0.00323187
     42      2      H          -0.06125492    -0.00808094    -0.07745647
     43      1      O           0.02224029     0.05335986    -0.00629596
     44      2      H          -0.03127293     0.00083047    -0.02775139
     45      2      H          -0.03905344    -0.00458426     0.05323922
     46      1      O           0.04071354     0.08021768    -0.06344953
     47      2      H          -0.01168311    -0.02534869     0.07852976
     48      2      H           0.02033640    -0.05361925    -0.02735448
     49      1      O          -0.00968492     0.01592132    -0.08851204
     50      2      H           0.05869032    -0.00602402     0.08855661
     51      2      H          -0.03960352    -0.04006628     0.03777046
     52      1      O          -0.09304452     0.03692534    -0.06351625
     53      2      H           0.05435723     0.02366246    -0.05101335
     54      2      H           0.01296538     0.00195827     0.07350790
     55      1      O          -0.03721640     0.02410718    -0.06927505
     56      2      H          -0.00606040    -0.05595545     0.06130762
     57      2      H           0.07330744     0.04137758    -0.01565240
     58      1      O          -0.02319608    -0.05411300     0.01350483
     59      2      H           0.03079355     0.01546131    -0.05911127
     60      2      H           0.01610611     0.01117807     0.08259428
     61      1      O          -0.06192238    -0.08577825    -0.05861941
     62      2      H          -0.06863149     0.06933521     0.00185036
     63      2      H           0.10027897    -0.02114676    -0.00247620
     64      1      O           0.06419660    -0.08979308    -0.07623739
     65      2      H           0.01029369    -0.02381346     0.03868386
     66      2      H          -0.08402469     0.07757657     0.00202235
     67      1      O           0.00114433     0.00892448    -0.11549161
     68      2      H          -0.04796704     0.01386308     0.03653673
     69      2      H          -0.00912623    -0.06039997     0.05336816
     70      1      O           0.06884139    -0.01324223     0.04612845
     71      2      H           0.05194664    -0.05039841    -0.06090895
     72      2      H          -0.08652514     0.01456899    -0.04691414
     73      1      O           0.05462703     0.11789941     0.02974009
     74      2      H           0.07222152    -0.05215590     0.05698522
     75      2      H          -0.07103789    -0.05261150    -0.02470810
     76      1      O           0.04694650    -0.05888111    -0.01807998
     77      2      H           0.05679591     0.07254247     0.01163770
     78      2      H          -0.07721160    -0.04466301     0.02611530
     79      1      O          -0.02899045    -0.10673648     0.07489819
     80      2      H           0.05256271     0.06884451     0.00681188
     81      2      H          -0.04040098     0.01746252    -0.05305028
     82      1      O          -0.07080181    -0.03322354    -0.06420402
     83      2      H           0.00028507     0.03055297    -0.02178951
     84      2      H           0.07448416    -0.03590072     0.02365806
     85      1      O          -0.07259491     0.02039499    -0.06390396
     86      2      H          -0.00533797    -0.04781535     0.08013914
     87      2      H           0.01818083     0.05624871     0.00980913
     88      1      O          -0.02318876    -0.06851635    -0.02918452
     89      2      H           0.03264712     0.04498717     0.02222213
     90      2      H          -0.06586265     0.00948789    -0.00756673
     91      1      O           0.00151525    -0.03428175    -0.09009711
     92      2      H          -0.01397125     0.06027481     0.06192478
     93      2      H           0.07090417    -0.06946539     0.03182776
     94      1      O           0.00021680    -0.08896581     0.07677091
     95      2      H          -0.03798440     0.06674048     0.04298806
     96      2      H          -0.02109725    -0.01722248    -0.08679073
     97      1      O           0.08845062    -0.01852352     0.04375654
     98      2      H          -0.05965523    -0.03991386     0.02951222
     99      2      H          -0.04194776     0.03513984    -0.03808904
    100      1      O          -0.01785386    -0.01681379     0.03952557
    101      2      H           0.02903315    -0.05366466    -0.07736944
    102      2      H          -0.05490872     0.04087579    -0.00021649
    103      1      O          -0.06144879     0.03392364    -0.05344503
    104      2      H          -0.02542123     0.04497058     0.04398188
    105      2      H           0.04624949    -0.04499220     0.01629448
    106      1      O          -0.02408848     0.09621768    -0.02359478
    107      2      H          -0.03064666    -0.02840063    -0.03726251
    108      2      H           0.02214428    -0.04804263     0.07241873
    109      1      O          -0.02651085     0.06913276    -0.05070741
    110      2      H          -0.02657441     0.00417153     0.05338456
    111      2      H           0.08055024    -0.02628537     0.01403925
    112      1      O           0.10591225    -0.04759384     0.06453253
    113      2      H           0.00726074     0.03252491    -0.01892629
    114      2      H          -0.08190687    -0.02593088     0.00378283
    115      1      O           0.01120295    -0.09246940    -0.05404869
    116      2      H          -0.01709649     0.07471660    -0.03866580
    117      2      H           0.01932813     0.00927627     0.07693833
    118      1      O           0.02717114    -0.00751670    -0.08594083
    119      2      H          -0.06554247     0.04568114    -0.02622790
    120      2      H          -0.00294472    -0.04672646     0.07724282
    121      1      O           0.00029899    -0.10116833    -0.08452279
    122      2      H          -0.07673877     0.02999904    -0.02918397
    123      2      H           0.01737457     0.04447118     0.08392735
    124      1      O          -0.00081930    -0.11451495     0.03494146
    125      2      H           0.02584323     0.05607228     0.00892078
    126      2      H          -0.03076679     0.02284109    -0.07174734
    127      1      O          -0.04836050    -0.06102214    -0.04660362
    128      2      H          -0.05414578     0.02975861     0.03014920
    129      2      H           0.06232924     0.04083882     0.03304425
    130      1      O           0.03541781    -0.07973643     0.08066897
    131      2      H          -0.05291520     0.00361407    -0.01869962
    132      2      H           0.04391316     0.04020390    -0.02444191
    133      1      O          -0.03827740    -0.00996156    -0.01457313
    134      2      H           0.02399139    -0.06417400     0.04921674
    135      2      H           0.05712099     0.01707534    -0.03497390
    136      1      O           0.04063845    -0.13567316    -0.02925930
    137      2      H           0.00456021     0.07643307     0.04015029
    138      2      H          -0.04544230     0.04268287    -0.05068820
    139      1      O           0.04838671     0.01834478     0.08050511
    140      2      H           0.01098618     0.04081724    -0.04111499
    141      2      H          -0.09347671     0.00226747     0.03395699
    142      1      O           0.07192049     0.12729407    -0.00870053
    143      2      H           0.01071735    -0.06026779    -0.03269823
    144      2      H          -0.03041752    -0.03734098     0.07460722
    145      1      O          -0.09442186     0.00073490     0.05891748
    146      2      H           0.01717284     0.01787741    -0.07220823
    147      2      H           0.03526277     0.01922394     0.05024017
    148      1      O          -0.13168264    -0.03951656     0.07586046
    149      2      H           0.03438608    -0.04472260    -0.02649898
    150      2      H           0.02804251     0.07257712    -0.00093012
    151      1      O          -0.07870846    -0.04691308    -0.06973329
    152      2      H           0.02505356    -0.04138137     0.06441169
    153      2      H           0.08584141     0.06678961    -0.01859537
    154      1      O          -0.00473024     0.00819456    -0.11001271
    155      2      H           0.06751888    -0.04998765     0.06171631
    156      2      H          -0.02306511     0.07438342     0.00101599
    157      1      O           0.10614198    -0.03423674    -0.04388417
    158      2      H          -0.05367309     0.04823491    -0.06931554
    159      2      H          -0.02100253     0.01022846     0.08310153
    160      1      O          -0.03269795    -0.01281271     0.07634439
    161      2      H          -0.00095101    -0.03994908    -0.07053811
    162      2      H           0.06173999     0.02461333    -0.02401034
    163      1      O          -0.01416678     0.03437095    -0.07621646
    164      2      H           0.02910226     0.05479213    -0.00635836
    165      2      H           0.02519193    -0.06746172     0.08075446
    166      1      O          -0.03537025     0.03899826     0.07786817
    167      2      H           0.04261439     0.05210062     0.01474554
    168      2      H           0.00659718    -0.06603479    -0.04812890
    169      1      O          -0.01328974     0.00863200     0.09484081
    170      2      H           0.05863047     0.08603930    -0.00262738
    171      2      H          -0.01566090    -0.02843814    -0.03302740
    172      1      O           0.02980409    -0.01626073    -0.00241899
    173      2      H           0.08067236     0.01244019    -0.02760631
    174      2      H          -0.07839450     0.01097312     0.05836621
    175      1      O           0.02573101    -0.06936452    -0.05442218
    176      2      H           0.00967981     0.07787532     0.03814841
    177      2      H           0.00819803    -0.02293829     0.06809738
    178      1      O          -0.00806427    -0.00078486    -0.00795998
    179      2      H          -0.03952265    -0.03339625    -0.02328469
    180      2      H          -0.00154771     0.08709803    -0.01302006
    181      1      O          -0.00272849    -0.03742754    -0.08445086
    182      2      H           0.02790727     0.01770008    -0.00627456
    183      2      H           0.00037525     0.07690173     0.00586053
    184      1      O           0.09231174     0.01447552     0.08245849
    185      2      H           0.01958044     0.02679046    -0.08903118
    186      2      H          -0.06447541    -0.00249402    -0.02371729
    187      1      O           0.10911864    -0.05593679     0.05115827
    188      2      H          -0.06632458     0.00438030     0.01674506
    189      2      H           0.00679702     0.05086449     0.01616930
    190      1      O           0.05556692    -0.04268920     0.06462211
    191      2      H          -0.08975054     0.00967199     0.00697568
    192      2      H           0.02634018     0.02529474    -0.08131837
 SUM OF ATOMIC FORCES           0.08998438     0.05331096     0.06212504     0.12165018

 -------------------------------------------------------------------------------
 -                                                                             -
 -                                DBCSR STATISTICS                             -
 -                                                                             -
 -------------------------------------------------------------------------------
 COUNTER                                    TOTAL       BLAS       SMM       ACC
 flops     5 x     5 x   256           1771763200       0.0%    100.0%      0.0%
 flops    13 x     5 x   256           2085391360       0.0%    100.0%      0.0%
 flops     5 x    13 x   256           2149954560       0.0%    100.0%      0.0%
 flops    13 x    13 x   256           2820120576       0.0%    100.0%      0.0%
 flops inhomo. stacks                           0       0.0%      0.0%      0.0%
 flops total                         8.827230E+09       0.0%    100.0%      0.0%
 flops max/rank                      8.827230E+09       0.0%    100.0%      0.0%
 matmuls inhomo. stacks                         0       0.0%      0.0%      0.0%
 matmuls total                             298275       0.0%    100.0%      0.0%
 number of processed stacks                 13580       0.0%    100.0%      0.0%
 average stack size                                     0.0      22.0       0.0
 marketing flops                   107.611161E+09
 -------------------------------------------------------------------------------
 # multiplications                             97
 max memory usage/rank               4.993950E+09
 # max total images/rank                        1
 # max 3D layers                                1
 # MPI messages exchanged                       0
 MPI messages size (bytes):
  total size                         0.000000E+00
  min size                           0.000000E+00
  max size                           0.000000E+00
  average size                       0.000000E+00
 MPI breakdown and total messages size (bytes):
             size <=      128                   0                        0
       128 < size <=     8192                   0                        0
      8192 < size <=    32768                   0                        0
     32768 < size <=   131072                   0                        0
    131072 < size <=  4194304                   0                        0
   4194304 < size <= 16777216                   0                        0
  16777216 < size                               0                        0
 -------------------------------------------------------------------------------

 MEMORY| Estimated peak process memory [MiB]                                4757

 -------------------------------------------------------------------------------
 -                                                                             -
 -                           R E F E R E N C E S                               -
 -                                                                             -
 -------------------------------------------------------------------------------
 
 CP2K version 7.1, the CP2K developers group (2019).
 CP2K is freely available from https://www.cp2k.org/ .

 Schuett, Ole; Messmer, Peter; Hutter, Juerg; VandeVondele, Joost. 
 Electronic Structure Calculations on Graphics Processing Units, John
 Wiley & Sons, Ltd, 173-190 (2016). 
 GPU-Accelerated Sparse Matrix-Matrix Multiplication for
 Linear Scaling Density Functional Theory.
 https://dx.doi.org/10.1002/9781118670712.ch8

 Borstnik, U; VandeVondele, J; Weber, V; Hutter, J. 
 PARALLEL COMPUTING, 40 (5-6), 47-58 (2014). 
 Sparse matrix multiplication: The distributed block-compressed sparse
 row library.
 https://dx.doi.org/10.1016/j.parco.2014.03.012

 Hutter, J; Iannuzzi, M; Schiffmann, F; VandeVondele, J. 
 WIREs Comput Mol Sci., 4 (1), 15-25 (2014). 
 CP2K: atomistic simulations of condensed matter systems.
 https://dx.doi.org/10.1002/wcms.1159

 Krack, M. 
 THEORETICAL CHEMISTRY ACCOUNTS, 114 (1-3), 145-152 (2005). 
 Pseudopotentials for H to Kr optimized for gradient-corrected
 exchange-correlation functionals.
 https://dx.doi.org/10.1007/s00214-005-0655-y

 VandeVondele, J; Krack, M; Mohamed, F; Parrinello, M; Chassaing, T;
 Hutter, J. COMPUTER PHYSICS COMMUNICATIONS, 167 (2), 103-128 (2005). 
 QUICKSTEP: Fast and accurate density functional calculations using a
 mixed Gaussian and plane waves approach.
 https://dx.doi.org/10.1016/j.cpc.2004.12.014

 Frigo, M; Johnson, SG. 
 PROCEEDINGS OF THE IEEE, 93 (2), 216-231 (2005). 
 The design and implementation of FFTW3.
 https://dx.doi.org/10.1109/JPROC.2004.840301

 Hartwigsen, C; Goedecker, S; Hutter, J. 
 PHYSICAL REVIEW B, 58 (7), 3641-3662 (1998). 
 Relativistic separable dual-space Gaussian pseudopotentials from H to Rn.
 https://dx.doi.org/10.1103/PhysRevB.58.3641

 Lippert, G; Hutter, J; Parrinello, M. 
 MOLECULAR PHYSICS, 92 (3), 477-487 (1997). 
 A hybrid Gaussian and plane wave density functional scheme.
 https://dx.doi.org/10.1080/002689797170220

 Goedecker, S; Teter, M; Hutter, J. 
 PHYSICAL REVIEW B, 54 (3), 1703-1710 (1996). 
 Separable dual-space Gaussian pseudopotentials.
 https://dx.doi.org/10.1103/PhysRevB.54.1703


 -------------------------------------------------------------------------------
 -                                                                             -
 -                                T I M I N G                                  -
 -                                                                             -
 -------------------------------------------------------------------------------
 SUBROUTINE                       CALLS  ASD         SELF TIME        TOTAL TIME
                                MAXIMUM       AVERAGE  MAXIMUM  AVERAGE  MAXIMUM
 CP2K                                 1  1.0    0.146    0.146  896.121  896.121
 qs_forces                            1  2.0    0.000    0.000  894.211  894.211
 qs_energies                          1  3.0    0.000    0.000  893.508  893.508
 scf_env_do_scf                       1  4.0    0.000    0.000  891.052  891.052
 scf_env_do_scf_inner_loop           96  5.0    0.023    0.023  891.051  891.051
 qs_scf_new_mos                      96  6.0    0.003    0.003  636.237  636.237
 eigensolver                         96  7.0    0.014    0.014  625.488  625.488
 cp_fm_syevd                         96  8.0  405.545  405.545  406.079  406.079
 cp_fm_cholesky_restore             288  8.0  219.053  219.053  219.053  219.053
 gspace_mixing                       95  6.0    2.146    2.146  140.393  140.393
 broyden_mixing                      95  7.0  126.485  126.485  126.486  126.486
 rebuild_ks_matrix                   97  7.0    0.000    0.000   58.636   58.636
 qs_ks_build_kohn_sham_matrix        97  8.0    0.021    0.021   58.635   58.635
 qs_ks_update_qs_env                 96  6.0    0.001    0.001   58.150   58.150
 qs_rho_update_rho                   97  6.0    0.001    0.001   56.347   56.347
 calculate_rho_elec                  97  7.0   28.041   28.041   56.346   56.346
 pw_transfer                       1260  9.9    0.107    0.107   56.271   56.271
 fft_wrap_pw1pw2                   1066 10.9    0.011    0.011   54.704   54.704
 fft_wrap_pw1pw2_70                 484 11.2    5.585    5.585   51.095   51.095
 density_rs2pw                       97  8.0    0.008    0.008   27.570   27.570
 fft3d_s                           1067 12.9   25.410   25.410   25.421   25.421
 pw_scatter_s                       580 13.2   18.999   18.999   18.999   18.999
 pw_poisson_solve                    97  9.0   16.905   16.905   18.429   18.429
 -------------------------------------------------------------------------------

 The number of warnings for this run is : 0
 
 -------------------------------------------------------------------------------
  **** **** ******  **  PROGRAM ENDED AT                 2021-02-22 11:26:53.791
 ***** ** ***  *** **   PROGRAM RAN ON                                   gnode68
 **    ****   ******    PROGRAM RAN BY                               mayank.modi
 ***** **    ** ** **   PROGRAM PROCESS ID                                 19774
  **** **  *******  **  PROGRAM STOPPED IN /home/mayank.modi/ab-initio-thermodyn
                                           amics-of-water/mayank/cp2k_energy_cal
                                           culations
