 DBCSR| CPU Multiplication driver                                           XSMM
 DBCSR| Multrec recursion limit                                              512
 DBCSR| Multiplication stack size                                           1000
 DBCSR| Maximum elements for images                                    UNLIMITED
 DBCSR| Multiplicative factor virtual images                                   1
 DBCSR| Use multiplication densification                                       T
 DBCSR| Multiplication size stacks                                             3


  **** **** ******  **  PROGRAM STARTED AT               2021-02-23 03:59:43.794
 ***** ** ***  *** **   PROGRAM STARTED ON                               gnode68
 **    ****   ******    PROGRAM STARTED BY                           mayank.modi
 ***** **    ** ** **   PROGRAM PROCESS ID                                 29822
  **** **  *******  **  PROGRAM STARTED IN /home/mayank.modi/ab-initio-thermodyn
                                           amics-of-water/mayank/cp2k_energy_cal
                                           culations

 CP2K| version string:                                          CP2K version 7.1
 CP2K| source code revision number:                                  git:e635599
 CP2K| cp2kflags: omp libint fftw3 libxc xsmm spglib                            
 CP2K| is freely available from                            https://www.cp2k.org/
 CP2K| Program compiled at                          Mon Dec 23 19:23:12 CET 2019
 CP2K| Program compiled on                                                pc9404
 CP2K| Program compiled for                                Linux-x86-64-gfortran
 CP2K| Data directory path                                        /opt/cp2k/data
 CP2K| Input file name                  input_training_correct_cell/input1460.in

 GLOBAL| Force Environment number                                              1
 GLOBAL| Basis set file name                                           BASIS_SET
 GLOBAL| Potential file name                                      GTH_POTENTIALS
 GLOBAL| MM Potential file name                                     MM_POTENTIAL
 GLOBAL| Coordinate file name                                      __STD_INPUT__
 GLOBAL| Method name                                                        CP2K
 GLOBAL| Project name                                                   H2O_bulk
 GLOBAL| Preferred FFT library                                             FFTW3
 GLOBAL| Preferred diagonalization lib.                                       SL
 GLOBAL| Run type                                                   ENERGY_FORCE
 GLOBAL| All-to-all communication in single precision                          F
 GLOBAL| FFTs using library dependent lengths                                  F
 GLOBAL| Global print level                                                  LOW
 GLOBAL| MPI I/O enabled                                                       T
 GLOBAL| Total number of message passing processes                             1
 GLOBAL| Number of threads for this process                                   36
 GLOBAL| This output is from process                                           0
 GLOBAL| CPU model name                Intel(R) Xeon(R) CPU E5-2640 v4 @ 2.40GHz
 GLOBAL| CPUID                                                              1002
 GLOBAL| Compiled for CPUID                                                    0

 MEMORY| system memory details [Kb]
 MEMORY|                        rank 0           min           max       average
 MEMORY| MemTotal            131893512     131893512     131893512     131893512
 MEMORY| MemFree             119711560     119711560     119711560     119711560
 MEMORY| Buffers               1024352       1024352       1024352       1024352
 MEMORY| Cached                9706412       9706412       9706412       9706412
 MEMORY| Slab                  1017020       1017020       1017020       1017020
 MEMORY| SReclaimable           622964        622964        622964        622964
 MEMORY| MemLikelyFree       131065288     131065288     131065288     131065288


 GENERATE|  Preliminary Number of Bonds generated:                             0
 GENERATE|  Achieved consistency in connectivity generation.

 *******************************************************************************
 *******************************************************************************
 **                                                                           **
 **     #####                         ##              ##                      **
 **    ##   ##            ##          ##              ##                      **
 **   ##     ##                       ##            ######                    **
 **   ##     ##  ##   ##  ##   #####  ##  ##   ####   ##    #####    #####    **
 **   ##     ##  ##   ##  ##  ##      ## ##   ##      ##   ##   ##  ##   ##   **
 **   ##  ## ##  ##   ##  ##  ##      ####     ###    ##   ######   ######    **
 **    ##  ###   ##   ##  ##  ##      ## ##      ##   ##   ##       ##        **
 **     #######   #####   ##   #####  ##  ##  ####    ##    #####   ##        **
 **           ##                                                    ##        **
 **                                                                           **
 **                                                ... make the atoms dance   **
 **                                                                           **
 **            Copyright (C) by CP2K developers group (2000 - 2019)           **
 **                                                                           **
 *******************************************************************************


 TOTAL NUMBERS AND MAXIMUM NUMBERS

  Total number of            - Atomic kinds:                                   2
                             - Atoms:                                        192
                             - Shell sets:                                   384
                             - Shells:                                       704
                             - Primitive Cartesian functions:                960
                             - Cartesian basis functions:                   1536
                             - Spherical basis functions:                   1472

  Maximum angular momentum of- Orbital basis functions:                        2
                             - Local part of the GTH pseudopotential:          2
                             - Non-local part of the GTH pseudopotential:      0


 SCF PARAMETERS         Density guess:                                    ATOMIC
                        --------------------------------------------------------
                        max_scf:                                             300
                        max_scf_history:                                       0
                        max_diis:                                              4
                        --------------------------------------------------------
                        eps_scf:                                        1.00E-07
                        eps_scf_history:                                0.00E+00
                        eps_diis:                                       1.00E-01
                        eps_eigval:                                     1.00E-05
                        --------------------------------------------------------
                        level_shift [a.u.]:                                 0.00
                        --------------------------------------------------------
                        Mixing method:                            BROYDEN_MIXING
                                                charge density mixing in g-space
                        --------------------------------------------------------
                        No outer SCF

 Number of electrons:                                                        512
 Number of occupied orbitals:                                                256
 Number of molecular orbitals:                                               256

 Number of orbital functions:                                               1472
 Number of independent orbital functions:                                   1472

 Extrapolation method: initial_guess


 SCF WAVEFUNCTION OPTIMIZATION

  Step     Update method      Time    Convergence         Total energy    Change
  ------------------------------------------------------------------------------
     1 NoMix/Diag. 0.40E+00    7.2     0.61962586     -1064.1959156679 -1.06E+03
     2 Broy./Diag. 0.40E+00    7.9     1.86617029      -995.0010128979  6.92E+01
     3 Broy./Diag. 0.40E+00    7.9     1.91555587     -1266.6400125837 -2.72E+02
     4 Broy./Diag. 0.40E+00    8.0     1.65717177     -1120.5978205070  1.46E+02
     5 Broy./Diag. 0.40E+00    8.2     1.65110778     -1094.0699109706  2.65E+01
     6 Broy./Diag. 0.40E+00    8.2     1.75123095     -1099.1936399828 -5.12E+00
     7 Broy./Diag. 0.40E+00    8.5     1.81589561     -1098.2432219628  9.50E-01
     8 Broy./Diag. 0.40E+00    8.9     1.90132742     -1084.4260211254  1.38E+01
     9 Broy./Diag. 0.40E+00    9.1     1.45845983     -1078.2947558520  6.13E+00
    10 Broy./Diag. 0.40E+00    9.3     1.24564932     -1075.2631916877  3.03E+00
    11 Broy./Diag. 0.40E+00    9.6     1.02372316     -1074.5587361084  7.04E-01
    12 Broy./Diag. 0.40E+00    9.5     0.34086228     -1071.5821785348  2.98E+00
    13 Broy./Diag. 0.40E+00    9.3     1.14352538     -1069.6732259681  1.91E+00
    14 Broy./Diag. 0.40E+00    9.1     1.24360148     -1079.4392559211 -9.77E+00
    15 Broy./Diag. 0.40E+00    9.6     0.42468092     -1078.1151241207  1.32E+00
    16 Broy./Diag. 0.40E+00    9.3     0.45772628     -1076.5338287413  1.58E+00
    17 Broy./Diag. 0.40E+00    9.6     1.58342836     -1074.9885717262  1.55E+00
    18 Broy./Diag. 0.40E+00    9.3     1.64173861     -1076.2905546089 -1.30E+00
    19 Broy./Diag. 0.40E+00    9.6     1.64980588     -1074.8599084318  1.43E+00
    20 Broy./Diag. 0.40E+00    9.5     1.57099492     -1077.2692200395 -2.41E+00
    21 Broy./Diag. 0.40E+00    9.5     1.17998283     -1075.7971450374  1.47E+00
    22 Broy./Diag. 0.40E+00    9.7     1.15917361     -1077.3285074907 -1.53E+00
    23 Broy./Diag. 0.40E+00    9.5     0.19612248     -1076.5099698374  8.19E-01
    24 Broy./Diag. 0.40E+00    9.3     0.15834617     -1075.3542675109  1.16E+00
    25 Broy./Diag. 0.40E+00    9.5     0.11873429     -1075.8301648018 -4.76E-01
    26 Broy./Diag. 0.40E+00    9.5     0.11131086     -1075.9815657282 -1.51E-01
    27 Broy./Diag. 0.40E+00    9.3     0.03695881     -1076.2049450688 -2.23E-01
    28 Broy./Diag. 0.40E+00    9.2     0.02582828     -1075.8567043932  3.48E-01
    29 Broy./Diag. 0.40E+00    9.1     0.12107884     -1076.1133930023 -2.57E-01
    30 Broy./Diag. 0.40E+00    9.2     0.07469156     -1076.3520770736 -2.39E-01
    31 Broy./Diag. 0.40E+00    9.7     0.05424626     -1076.0886075051  2.63E-01
    32 Broy./Diag. 0.40E+00    9.4     0.04253193     -1076.2322016354 -1.44E-01
    33 Broy./Diag. 0.40E+00    9.6     0.01638194     -1076.1386557271  9.35E-02
    34 Broy./Diag. 0.40E+00    9.6     0.01665968     -1076.2680186104 -1.29E-01
    35 Broy./Diag. 0.40E+00    9.6     0.00494946     -1076.1086901034  1.59E-01
    36 Broy./Diag. 0.40E+00    9.4     0.00336728     -1076.0918848247  1.68E-02
    37 Broy./Diag. 0.40E+00    9.5     0.00486428     -1076.1162404958 -2.44E-02
    38 Broy./Diag. 0.40E+00    9.3     0.00560180     -1076.1528907751 -3.67E-02
    39 Broy./Diag. 0.40E+00    9.5     0.00330076     -1076.1000610123  5.28E-02
    40 Broy./Diag. 0.40E+00    9.3     0.00384188     -1076.1035076732 -3.45E-03
    41 Broy./Diag. 0.40E+00    9.4     0.00260939     -1076.1311086587 -2.76E-02
    42 Broy./Diag. 0.40E+00    9.3     0.00302948     -1076.1146218624  1.65E-02
    43 Broy./Diag. 0.40E+00    9.5     0.00271789     -1076.1167820160 -2.16E-03
    44 Broy./Diag. 0.40E+00    9.3     0.00229719     -1076.1125874003  4.19E-03
    45 Broy./Diag. 0.40E+00    9.1     0.00153552     -1076.1315085405 -1.89E-02
    46 Broy./Diag. 0.40E+00    9.5     0.00084733     -1076.1169716795  1.45E-02
    47 Broy./Diag. 0.40E+00    9.5     0.00046042     -1076.1182104549 -1.24E-03
    48 Broy./Diag. 0.40E+00    9.4     0.00081950     -1076.1156457850  2.56E-03
    49 Broy./Diag. 0.40E+00    9.6     0.00075395     -1076.1199872082 -4.34E-03
    50 Broy./Diag. 0.40E+00    9.5     0.00044417     -1076.1163396256  3.65E-03
    51 Broy./Diag. 0.40E+00    9.6     0.00026494     -1076.1168903521 -5.51E-04
    52 Broy./Diag. 0.40E+00    9.6     0.00025372     -1076.1177682278 -8.78E-04
    53 Broy./Diag. 0.40E+00    9.5     0.00019169     -1076.1170854722  6.83E-04
    54 Broy./Diag. 0.40E+00    9.6     0.00022326     -1076.1172538977 -1.68E-04
    55 Broy./Diag. 0.40E+00    9.6     0.00013275     -1076.1166182525  6.36E-04
    56 Broy./Diag. 0.40E+00    9.3     0.00013593     -1076.1176546897 -1.04E-03
    57 Broy./Diag. 0.40E+00    9.6     0.00010214     -1076.1174249918  2.30E-04
    58 Broy./Diag. 0.40E+00    9.5     0.00010680     -1076.1172746387  1.50E-04
    59 Broy./Diag. 0.40E+00    9.6     0.00013913     -1076.1168599218  4.15E-04
    60 Broy./Diag. 0.40E+00    9.4     0.00008578     -1076.1175625286 -7.03E-04
    61 Broy./Diag. 0.40E+00    9.4     0.00006397     -1076.1172197316  3.43E-04
    62 Broy./Diag. 0.40E+00    9.4     0.00005204     -1076.1172223369 -2.61E-06
    63 Broy./Diag. 0.40E+00    9.6     0.00003944     -1076.1172420166 -1.97E-05
    64 Broy./Diag. 0.40E+00    9.3     0.00003583     -1076.1172042675  3.77E-05
    65 Broy./Diag. 0.40E+00    9.1     0.00003295     -1076.1173082342 -1.04E-04
    66 Broy./Diag. 0.40E+00    8.9     0.00002111     -1076.1171747110  1.34E-04
    67 Broy./Diag. 0.40E+00    9.6     0.00002531     -1076.1171877668 -1.31E-05
    68 Broy./Diag. 0.40E+00    9.5     0.00002135     -1076.1173217464 -1.34E-04
    69 Broy./Diag. 0.40E+00    9.3     0.00002903     -1076.1173229338 -1.19E-06
    70 Broy./Diag. 0.40E+00    9.1     0.00002149     -1076.1171623647  1.61E-04
    71 Broy./Diag. 0.40E+00    9.1     0.00001098     -1076.1172431172 -8.08E-05
    72 Broy./Diag. 0.40E+00    9.5     0.00001316     -1076.1172298822  1.32E-05
    73 Broy./Diag. 0.40E+00    9.4     0.00001206     -1076.1172397229 -9.84E-06
    74 Broy./Diag. 0.40E+00    9.5     0.00000792     -1076.1172270065  1.27E-05
    75 Broy./Diag. 0.40E+00    9.5     0.00000566     -1076.1172027659  2.42E-05
    76 Broy./Diag. 0.40E+00    9.6     0.00000426     -1076.1172206678 -1.79E-05
    77 Broy./Diag. 0.40E+00    9.6     0.00000386     -1076.1172344365 -1.38E-05
    78 Broy./Diag. 0.40E+00    9.4     0.00000376     -1076.1172069401  2.75E-05
    79 Broy./Diag. 0.40E+00    9.6     0.00000422     -1076.1172043574  2.58E-06
    80 Broy./Diag. 0.40E+00    9.4     0.00000595     -1076.1172449623 -4.06E-05
    81 Broy./Diag. 0.40E+00    9.3     0.00000350     -1076.1172184076  2.66E-05
    82 Broy./Diag. 0.40E+00    8.9     0.00000240     -1076.1172213947 -2.99E-06
    83 Broy./Diag. 0.40E+00    9.1     0.00000247     -1076.1172166702  4.72E-06
    84 Broy./Diag. 0.40E+00    9.5     0.00000204     -1076.1172216148 -4.94E-06
    85 Broy./Diag. 0.40E+00    9.5     0.00000174     -1076.1172279308 -6.32E-06
    86 Broy./Diag. 0.40E+00    9.7     0.00000146     -1076.1172177250  1.02E-05
    87 Broy./Diag. 0.40E+00    9.4     0.00000100     -1076.1172125063  5.22E-06
    88 Broy./Diag. 0.40E+00    9.6     0.00000128     -1076.1172229137 -1.04E-05
    89 Broy./Diag. 0.40E+00    9.6     0.00000083     -1076.1172226555  2.58E-07
    90 Broy./Diag. 0.40E+00    9.4     0.00000141     -1076.1172124319  1.02E-05
    91 Broy./Diag. 0.40E+00    9.6     0.00000120     -1076.1172219057 -9.47E-06
    92 Broy./Diag. 0.40E+00    9.4     0.00000056     -1076.1172206990  1.21E-06
    93 Broy./Diag. 0.40E+00    9.3     0.00000066     -1076.1172215792 -8.80E-07
    94 Broy./Diag. 0.40E+00    9.3     0.00000047     -1076.1172192148  2.36E-06
    95 Broy./Diag. 0.40E+00    9.5     0.00000039     -1076.1172190242  1.91E-07
    96 Broy./Diag. 0.40E+00    9.6     0.00000031     -1076.1172212552 -2.23E-06
    97 Broy./Diag. 0.40E+00    9.4     0.00000023     -1076.1172210884  1.67E-07
    98 Broy./Diag. 0.40E+00    9.4     0.00000025     -1076.1172184289  2.66E-06
    99 Broy./Diag. 0.40E+00    9.6     0.00000024     -1076.1172192500 -8.21E-07
   100 Broy./Diag. 0.40E+00    9.6     0.00000029     -1076.1172216532 -2.40E-06
   101 Broy./Diag. 0.40E+00    9.6     0.00000028     -1076.1172188723  2.78E-06
   102 Broy./Diag. 0.40E+00    9.4     0.00000019     -1076.1172196628 -7.91E-07
   103 Broy./Diag. 0.40E+00    9.5     0.00000015     -1076.1172198002 -1.37E-07
   104 Broy./Diag. 0.40E+00    9.5     0.00000014     -1076.1172203402 -5.40E-07
   105 Broy./Diag. 0.40E+00    9.7     0.00000014     -1076.1172200256  3.15E-07
   106 Broy./Diag. 0.40E+00    9.6     0.00000009     -1076.1172196579  3.68E-07

  *** SCF run converged in   106 steps ***


  Electronic density on regular grids:       -512.0000352439       -0.0000352439
  Core density on regular grids:              511.9999258275       -0.0000741725
  Total charge density on r-space grids:       -0.0001094164
  Total charge density g-space grids:          -0.0001094164

  Overlap energy of the core charge distribution:               0.00000000000000
  Self energy of the core charge distribution:              -2838.21791979120962
  Core Hamiltonian energy:                                    759.86021003128064
  Hartree energy:                                            1240.86992252156892
  Exchange-correlation energy:                               -238.62943241950376

  Total energy:                                             -1076.11721965786387

 ENERGY| Total FORCE_EVAL ( QS ) energy (a.u.):            -1076.117219904402418


 ATOMIC FORCES in [a.u.]

 # Atom   Kind   Element          X              Y              Z
      1      1      O           0.06496746    -0.03519710    -0.02052723
      2      2      H           0.04517743     0.00478096     0.08153730
      3      2      H          -0.08115500     0.03201394     0.03045562
      4      1      O           0.05676664    -0.00208611    -0.02890832
      5      2      H           0.03523411    -0.05447308     0.00388924
      6      2      H           0.00627500     0.04920440     0.07720566
      7      1      O           0.05319701    -0.04677152     0.02565911
      8      2      H          -0.03314677    -0.00831027    -0.02227894
      9      2      H          -0.00863759     0.09303286     0.03409296
     10      1      O           0.08972179     0.03200348    -0.01465404
     11      2      H          -0.03259505     0.00442965     0.09544105
     12      2      H          -0.04198554    -0.04089386    -0.05787574
     13      1      O           0.02221801    -0.03226497     0.06699111
     14      2      H          -0.00354179    -0.03189506    -0.05683295
     15      2      H          -0.04789240    -0.01732226     0.01711880
     16      1      O          -0.08484460    -0.09265619     0.05906960
     17      2      H          -0.01036932     0.06841617    -0.09560837
     18      2      H           0.06955057     0.05579035     0.03240171
     19      1      O           0.02310477    -0.07600884    -0.03219056
     20      2      H          -0.05355428    -0.01137030     0.01761852
     21      2      H           0.02380056     0.02880711     0.06625178
     22      1      O          -0.05040514     0.05285031    -0.03727591
     23      2      H          -0.03055463     0.00656338     0.06544731
     24      2      H           0.03376013    -0.04258454     0.05211610
     25      1      O           0.11961927    -0.00736935     0.04890513
     26      2      H          -0.09169308    -0.07338136    -0.03405736
     27      2      H           0.02981978     0.02916862    -0.06654292
     28      1      O           0.00693956     0.01157067     0.09124220
     29      2      H          -0.05902816    -0.00482728     0.02126727
     30      2      H           0.02397144     0.01257200    -0.09922697
     31      1      O          -0.09726210    -0.01420880    -0.08312446
     32      2      H           0.00383177     0.00118993     0.05900471
     33      2      H           0.04344231     0.05003898    -0.01475519
     34      1      O          -0.10229917    -0.01195894    -0.05636483
     35      2      H           0.10514003     0.04301814    -0.03253312
     36      2      H           0.00305980     0.05848611     0.03466828
     37      1      O           0.08134241    -0.10275164     0.03960585
     38      2      H          -0.00814353     0.04894825     0.06143267
     39      2      H           0.01030080     0.00645572    -0.06548524
     40      1      O          -0.00152224    -0.05876114     0.04555909
     41      2      H           0.04917749     0.04818692     0.03446968
     42      2      H          -0.03063938     0.05800639    -0.03197541
     43      1      O           0.03837523    -0.03317260     0.06872324
     44      2      H          -0.02537455     0.02126197    -0.06061654
     45      2      H          -0.02463247    -0.00042655     0.00707393
     46      1      O          -0.07937688    -0.05774846    -0.01498183
     47      2      H           0.04017499    -0.07447726    -0.01517775
     48      2      H           0.05260642     0.08604840     0.00855875
     49      1      O          -0.01966963    -0.02521320    -0.11686129
     50      2      H           0.02599196     0.00161864     0.06776102
     51      2      H          -0.04229869    -0.02565582     0.00957349
     52      1      O           0.02526690    -0.08008976    -0.07546802
     53      2      H          -0.04017606     0.06817736    -0.02344233
     54      2      H           0.04451198     0.06224812     0.07883804
     55      1      O          -0.07690192     0.09688419    -0.01398073
     56      2      H           0.01777477    -0.03311499    -0.00589553
     57      2      H           0.08367398     0.00200336     0.01855142
     58      1      O          -0.04179551    -0.05960314     0.02171077
     59      2      H           0.03053484     0.05634632    -0.03585855
     60      2      H          -0.01757583     0.03384764     0.04340330
     61      1      O           0.01155404    -0.11428806    -0.07397885
     62      2      H          -0.05423337    -0.00067663     0.09902454
     63      2      H           0.00956358     0.05546657    -0.04326655
     64      1      O           0.07086598     0.04013066     0.06014761
     65      2      H          -0.05890376    -0.08759734     0.02570417
     66      2      H          -0.04438090     0.03044164     0.01420915
     67      1      O           0.11808665     0.01059415    -0.00869024
     68      2      H          -0.04277430    -0.05463392     0.01509760
     69      2      H          -0.05490989     0.10707447     0.06647640
     70      1      O           0.01927010     0.06824500     0.12451623
     71      2      H           0.03206010    -0.04924241    -0.05884530
     72      2      H          -0.07240935     0.05125602    -0.02633236
     73      1      O          -0.10791571     0.08927453     0.06468953
     74      2      H           0.05434049    -0.00111529    -0.02857489
     75      2      H           0.01976614    -0.09065461     0.00412728
     76      1      O           0.05461857    -0.09469457    -0.04433961
     77      2      H           0.02167190     0.06042438     0.04349515
     78      2      H          -0.05741402     0.00624093     0.02031388
     79      1      O           0.06224653    -0.11712308    -0.03561706
     80      2      H          -0.01837504     0.06011826    -0.01439668
     81      2      H          -0.07108761     0.00287496    -0.01776142
     82      1      O          -0.09053153    -0.00142435    -0.07893427
     83      2      H          -0.00579928     0.05581460    -0.02466016
     84      2      H           0.02573636     0.00166797     0.07042133
     85      1      O           0.04747902    -0.03249621    -0.10967767
     86      2      H           0.02984424    -0.02878395     0.07404595
     87      2      H          -0.01640683     0.02029880     0.05415858
     88      1      O           0.03295044    -0.13125054     0.09831691
     89      2      H           0.00476071     0.07505609    -0.01062467
     90      2      H          -0.08455305     0.03614918    -0.01915341
     91      1      O           0.03902445    -0.01100043     0.01469978
     92      2      H          -0.03286442     0.02783155    -0.02132022
     93      2      H           0.01089827    -0.03228955     0.02198644
     94      1      O           0.01971924    -0.13307597     0.08844425
     95      2      H          -0.02890993     0.03850854     0.01424385
     96      2      H          -0.03046068     0.03843010    -0.05064889
     97      1      O           0.00631477    -0.03148175     0.06600794
     98      2      H          -0.02610966    -0.03240402     0.03774169
     99      2      H          -0.01006058     0.00553857    -0.09037969
    100      1      O          -0.05047841     0.04693568     0.13690250
    101      2      H          -0.05413694    -0.00401264    -0.02944593
    102      2      H           0.07111176     0.06287238    -0.03281271
    103      1      O          -0.04593411    -0.07777133    -0.09305348
    104      2      H          -0.00177524     0.03536153     0.01856762
    105      2      H           0.05066800    -0.03196739     0.02496460
    106      1      O          -0.05957773    -0.01788441     0.00481636
    107      2      H          -0.01298714    -0.07288882     0.01381675
    108      2      H           0.06781476     0.07711555     0.05406221
    109      1      O          -0.01378249    -0.03197584     0.00670028
    110      2      H           0.03751890     0.06765846     0.06367810
    111      2      H           0.03191031    -0.00904070    -0.07773480
    112      1      O           0.11449807    -0.03268846    -0.08814906
    113      2      H           0.00893602     0.08552282     0.01817227
    114      2      H          -0.08077952    -0.07483965     0.00310154
    115      1      O          -0.02416857    -0.09606547    -0.01350096
    116      2      H          -0.00115972     0.08022974     0.01122622
    117      2      H           0.08412618    -0.02404930     0.01164462
    118      1      O           0.10274577    -0.01308163    -0.05518653
    119      2      H          -0.00716039     0.08742557    -0.00720330
    120      2      H           0.02045941    -0.02164607     0.04876040
    121      1      O          -0.00436686    -0.08706829     0.05396845
    122      2      H          -0.08377008     0.03849271    -0.04076466
    123      2      H           0.06433076     0.02689717     0.03676712
    124      1      O          -0.03916067    -0.09556806    -0.07457694
    125      2      H           0.03214127     0.05681343     0.02183636
    126      2      H          -0.05861983     0.03236292    -0.04802203
    127      1      O           0.02009595    -0.02537920    -0.04880659
    128      2      H          -0.04831036    -0.01454038    -0.05400592
    129      2      H           0.02617341     0.04411235     0.08511894
    130      1      O          -0.03415683    -0.06448979     0.09487967
    131      2      H          -0.03674611    -0.01062959    -0.09425476
    132      2      H           0.02193686     0.04046282    -0.02312328
    133      1      O           0.05178324    -0.10912121     0.05934353
    134      2      H           0.00729897     0.00464711    -0.05888970
    135      2      H          -0.01803207     0.09611415    -0.00342355
    136      1      O          -0.01278405    -0.05377989    -0.09708265
    137      2      H           0.00416605     0.02536401     0.10535226
    138      2      H          -0.03255057     0.07334832    -0.03259894
    139      1      O           0.05422279     0.03507999    -0.01556077
    140      2      H          -0.01629035    -0.02378642    -0.03832457
    141      2      H          -0.03124688    -0.02192948     0.04508695
    142      1      O          -0.05747192     0.05209413     0.02790998
    143      2      H           0.02810128    -0.05998670    -0.06628810
    144      2      H           0.02692828    -0.00903168     0.08197690
    145      1      O          -0.04019458     0.01207714     0.00785671
    146      2      H           0.05817631    -0.00901554    -0.07761166
    147      2      H           0.04016598     0.04840455     0.07896877
    148      1      O          -0.01336635     0.11231923     0.03971290
    149      2      H          -0.03206360    -0.05719347    -0.09409431
    150      2      H           0.10384676     0.01621064    -0.01568742
    151      1      O          -0.04792146    -0.00186483    -0.12222093
    152      2      H           0.01853066    -0.07434679     0.02949943
    153      2      H           0.02966652     0.03346131     0.03537503
    154      1      O          -0.00664283    -0.01552053     0.01232091
    155      2      H           0.08231868    -0.00103914    -0.02574111
    156      2      H           0.00725345     0.08209206    -0.01357720
    157      1      O           0.03904286    -0.06896328     0.01998333
    158      2      H           0.03959989     0.07235471    -0.01600417
    159      2      H          -0.02842044     0.03076671     0.03687659
    160      1      O           0.06920498    -0.00421812     0.10303260
    161      2      H          -0.05140718    -0.05799440    -0.04492946
    162      2      H           0.04171628     0.03427902    -0.06533906
    163      1      O           0.06170443    -0.10244322    -0.09481850
    164      2      H          -0.00480658     0.05286504     0.00822426
    165      2      H          -0.02364818    -0.00003951     0.03316174
    166      1      O          -0.07887080     0.01992900     0.12466145
    167      2      H           0.05429040     0.02324076    -0.04958738
    168      2      H           0.01517611    -0.06042627    -0.07582489
    169      1      O           0.02456720     0.10346776     0.06250538
    170      2      H          -0.08724088    -0.04585255    -0.02881858
    171      2      H           0.03264323    -0.03708519    -0.00728605
    172      1      O          -0.00951788     0.10258960     0.01039588
    173      2      H           0.06124755    -0.03949887    -0.04677262
    174      2      H          -0.02061282     0.01123536     0.03928073
    175      1      O           0.03376596     0.01218396    -0.08958539
    176      2      H          -0.03517872     0.08184330     0.03228323
    177      2      H           0.04203948    -0.05591657     0.02860306
    178      1      O           0.07964453    -0.05213318    -0.02575530
    179      2      H          -0.05205605     0.04171182    -0.04079856
    180      2      H          -0.01531931     0.08297453     0.03418937
    181      1      O          -0.01619538    -0.12013908     0.04041824
    182      2      H           0.02067615     0.03011231     0.06516309
    183      2      H          -0.06225897     0.08019307    -0.01001313
    184      1      O           0.07048162     0.01585364     0.10408471
    185      2      H           0.04456420    -0.02285418    -0.03981844
    186      2      H          -0.04069910     0.04496102    -0.02591098
    187      1      O          -0.01603264    -0.08520595     0.05622903
    188      2      H          -0.02634231    -0.03695951     0.00114691
    189      2      H           0.00349941     0.10500644     0.02235456
    190      1      O          -0.00226137     0.01301614    -0.00138972
    191      2      H          -0.05205315     0.01324500     0.03889560
    192      2      H           0.00159584     0.00991076    -0.05803889
 SUM OF ATOMIC FORCES           0.31875862     0.22986334     0.52525509     0.65600086

 -------------------------------------------------------------------------------
 -                                                                             -
 -                                DBCSR STATISTICS                             -
 -                                                                             -
 -------------------------------------------------------------------------------
 COUNTER                                    TOTAL       BLAS       SMM       ACC
 flops     5 x     5 x   256           1817459200       0.0%    100.0%      0.0%
 flops     5 x    13 x   256           2129454080       0.0%    100.0%      0.0%
 flops    13 x     5 x   256           2229160960       0.0%    100.0%      0.0%
 flops    13 x    13 x   256           2805324288       0.0%    100.0%      0.0%
 flops inhomo. stacks                           0       0.0%      0.0%      0.0%
 flops total                         8.981399E+09       0.0%    100.0%      0.0%
 flops max/rank                      8.981399E+09       0.0%    100.0%      0.0%
 matmuls inhomo. stacks                         0       0.0%      0.0%      0.0%
 matmuls total                             305378       0.0%    100.0%      0.0%
 number of processed stacks                 14980       0.0%    100.0%      0.0%
 average stack size                                     0.0      20.4       0.0
 marketing flops                   118.705095E+09
 -------------------------------------------------------------------------------
 # multiplications                            107
 max memory usage/rank               4.992164E+09
 # max total images/rank                        1
 # max 3D layers                                1
 # MPI messages exchanged                       0
 MPI messages size (bytes):
  total size                         0.000000E+00
  min size                           0.000000E+00
  max size                           0.000000E+00
  average size                       0.000000E+00
 MPI breakdown and total messages size (bytes):
             size <=      128                   0                        0
       128 < size <=     8192                   0                        0
      8192 < size <=    32768                   0                        0
     32768 < size <=   131072                   0                        0
    131072 < size <=  4194304                   0                        0
   4194304 < size <= 16777216                   0                        0
  16777216 < size                               0                        0
 -------------------------------------------------------------------------------

 MEMORY| Estimated peak process memory [MiB]                                4755

 -------------------------------------------------------------------------------
 -                                                                             -
 -                           R E F E R E N C E S                               -
 -                                                                             -
 -------------------------------------------------------------------------------
 
 CP2K version 7.1, the CP2K developers group (2019).
 CP2K is freely available from https://www.cp2k.org/ .

 Schuett, Ole; Messmer, Peter; Hutter, Juerg; VandeVondele, Joost. 
 Electronic Structure Calculations on Graphics Processing Units, John
 Wiley & Sons, Ltd, 173-190 (2016). 
 GPU-Accelerated Sparse Matrix-Matrix Multiplication for
 Linear Scaling Density Functional Theory.
 https://dx.doi.org/10.1002/9781118670712.ch8

 Borstnik, U; VandeVondele, J; Weber, V; Hutter, J. 
 PARALLEL COMPUTING, 40 (5-6), 47-58 (2014). 
 Sparse matrix multiplication: The distributed block-compressed sparse
 row library.
 https://dx.doi.org/10.1016/j.parco.2014.03.012

 Hutter, J; Iannuzzi, M; Schiffmann, F; VandeVondele, J. 
 WIREs Comput Mol Sci., 4 (1), 15-25 (2014). 
 CP2K: atomistic simulations of condensed matter systems.
 https://dx.doi.org/10.1002/wcms.1159

 Krack, M. 
 THEORETICAL CHEMISTRY ACCOUNTS, 114 (1-3), 145-152 (2005). 
 Pseudopotentials for H to Kr optimized for gradient-corrected
 exchange-correlation functionals.
 https://dx.doi.org/10.1007/s00214-005-0655-y

 VandeVondele, J; Krack, M; Mohamed, F; Parrinello, M; Chassaing, T;
 Hutter, J. COMPUTER PHYSICS COMMUNICATIONS, 167 (2), 103-128 (2005). 
 QUICKSTEP: Fast and accurate density functional calculations using a
 mixed Gaussian and plane waves approach.
 https://dx.doi.org/10.1016/j.cpc.2004.12.014

 Frigo, M; Johnson, SG. 
 PROCEEDINGS OF THE IEEE, 93 (2), 216-231 (2005). 
 The design and implementation of FFTW3.
 https://dx.doi.org/10.1109/JPROC.2004.840301

 Hartwigsen, C; Goedecker, S; Hutter, J. 
 PHYSICAL REVIEW B, 58 (7), 3641-3662 (1998). 
 Relativistic separable dual-space Gaussian pseudopotentials from H to Rn.
 https://dx.doi.org/10.1103/PhysRevB.58.3641

 Lippert, G; Hutter, J; Parrinello, M. 
 MOLECULAR PHYSICS, 92 (3), 477-487 (1997). 
 A hybrid Gaussian and plane wave density functional scheme.
 https://dx.doi.org/10.1080/002689797170220

 Goedecker, S; Teter, M; Hutter, J. 
 PHYSICAL REVIEW B, 54 (3), 1703-1710 (1996). 
 Separable dual-space Gaussian pseudopotentials.
 https://dx.doi.org/10.1103/PhysRevB.54.1703


 -------------------------------------------------------------------------------
 -                                                                             -
 -                                T I M I N G                                  -
 -                                                                             -
 -------------------------------------------------------------------------------
 SUBROUTINE                       CALLS  ASD         SELF TIME        TOTAL TIME
                                MAXIMUM       AVERAGE  MAXIMUM  AVERAGE  MAXIMUM
 CP2K                                 1  1.0    0.155    0.155  995.373  995.373
 qs_forces                            1  2.0    0.000    0.000  993.421  993.421
 qs_energies                          1  3.0    0.000    0.000  992.713  992.713
 scf_env_do_scf                       1  4.0    0.001    0.001  990.263  990.263
 scf_env_do_scf_inner_loop          106  5.0    0.020    0.020  990.263  990.263
 qs_scf_new_mos                     106  6.0    0.003    0.003  702.399  702.399
 eigensolver                        106  7.0    0.019    0.019  689.114  689.114
 cp_fm_syevd                        106  8.0  446.754  446.754  447.360  447.360
 cp_fm_cholesky_restore             318  8.0  241.372  241.372  241.372  241.372
 gspace_mixing                      105  6.0    2.379    2.379  158.987  158.987
 broyden_mixing                     105  7.0  143.173  143.173  143.174  143.174
 rebuild_ks_matrix                  107  7.0    0.000    0.000   67.561   67.561
 qs_ks_build_kohn_sham_matrix       107  8.0    0.031    0.031   67.560   67.560
 qs_ks_update_qs_env                106  6.0    0.001    0.001   67.080   67.080
 pw_transfer                       1390  9.9    0.112    0.112   64.177   64.177
 fft_wrap_pw1pw2                   1176 10.9    0.014    0.014   62.298   62.298
 qs_rho_update_rho                  107  6.0    0.001    0.001   61.665   61.665
 calculate_rho_elec                 107  7.0   29.150   29.150   61.664   61.664
 fft_wrap_pw1pw2_70                 534 11.2    6.537    6.537   57.571   57.571
 density_rs2pw                      107  8.0    0.009    0.009   31.460   31.460
 fft3d_s                           1177 12.9   28.786   28.786   28.798   28.798
 pw_scatter_s                       640 13.2   21.479   21.479   21.479   21.479
 pw_poisson_solve                   107  9.0   19.098   19.098   20.934   20.934
 -------------------------------------------------------------------------------

 The number of warnings for this run is : 0
 
 -------------------------------------------------------------------------------
  **** **** ******  **  PROGRAM ENDED AT                 2021-02-23 04:16:19.283
 ***** ** ***  *** **   PROGRAM RAN ON                                   gnode68
 **    ****   ******    PROGRAM RAN BY                               mayank.modi
 ***** **    ** ** **   PROGRAM PROCESS ID                                 29822
  **** **  *******  **  PROGRAM STOPPED IN /home/mayank.modi/ab-initio-thermodyn
                                           amics-of-water/mayank/cp2k_energy_cal
                                           culations
