 DBCSR| CPU Multiplication driver                                           XSMM
 DBCSR| Multrec recursion limit                                              512
 DBCSR| Multiplication stack size                                           1000
 DBCSR| Maximum elements for images                                    UNLIMITED
 DBCSR| Multiplicative factor virtual images                                   1
 DBCSR| Use multiplication densification                                       T
 DBCSR| Multiplication size stacks                                             3


  **** **** ******  **  PROGRAM STARTED AT               2021-02-23 17:03:25.786
 ***** ** ***  *** **   PROGRAM STARTED ON                               gnode68
 **    ****   ******    PROGRAM STARTED BY                           mayank.modi
 ***** **    ** ** **   PROGRAM PROCESS ID                                 37388
  **** **  *******  **  PROGRAM STARTED IN /home/mayank.modi/ab-initio-thermodyn
                                           amics-of-water/mayank/cp2k_energy_cal
                                           culations

 CP2K| version string:                                          CP2K version 7.1
 CP2K| source code revision number:                                  git:e635599
 CP2K| cp2kflags: omp libint fftw3 libxc xsmm spglib                            
 CP2K| is freely available from                            https://www.cp2k.org/
 CP2K| Program compiled at                          Mon Dec 23 19:23:12 CET 2019
 CP2K| Program compiled on                                                pc9404
 CP2K| Program compiled for                                Linux-x86-64-gfortran
 CP2K| Data directory path                                        /opt/cp2k/data
 CP2K| Input file name                  input_training_correct_cell/input1552.in

 GLOBAL| Force Environment number                                              1
 GLOBAL| Basis set file name                                           BASIS_SET
 GLOBAL| Potential file name                                      GTH_POTENTIALS
 GLOBAL| MM Potential file name                                     MM_POTENTIAL
 GLOBAL| Coordinate file name                                      __STD_INPUT__
 GLOBAL| Method name                                                        CP2K
 GLOBAL| Project name                                                   H2O_bulk
 GLOBAL| Preferred FFT library                                             FFTW3
 GLOBAL| Preferred diagonalization lib.                                       SL
 GLOBAL| Run type                                                   ENERGY_FORCE
 GLOBAL| All-to-all communication in single precision                          F
 GLOBAL| FFTs using library dependent lengths                                  F
 GLOBAL| Global print level                                                  LOW
 GLOBAL| MPI I/O enabled                                                       T
 GLOBAL| Total number of message passing processes                             1
 GLOBAL| Number of threads for this process                                   36
 GLOBAL| This output is from process                                           0
 GLOBAL| CPU model name                Intel(R) Xeon(R) CPU E5-2640 v4 @ 2.40GHz
 GLOBAL| CPUID                                                              1002
 GLOBAL| Compiled for CPUID                                                    0

 MEMORY| system memory details [Kb]
 MEMORY|                        rank 0           min           max       average
 MEMORY| MemTotal            131893512     131893512     131893512     131893512
 MEMORY| MemFree             119706104     119706104     119706104     119706104
 MEMORY| Buffers               1024444       1024444       1024444       1024444
 MEMORY| Cached                9708116       9708116       9708116       9708116
 MEMORY| Slab                  1018412       1018412       1018412       1018412
 MEMORY| SReclaimable           622952        622952        622952        622952
 MEMORY| MemLikelyFree       131061616     131061616     131061616     131061616


 GENERATE|  Preliminary Number of Bonds generated:                             0
 GENERATE|  Achieved consistency in connectivity generation.

 *******************************************************************************
 *******************************************************************************
 **                                                                           **
 **     #####                         ##              ##                      **
 **    ##   ##            ##          ##              ##                      **
 **   ##     ##                       ##            ######                    **
 **   ##     ##  ##   ##  ##   #####  ##  ##   ####   ##    #####    #####    **
 **   ##     ##  ##   ##  ##  ##      ## ##   ##      ##   ##   ##  ##   ##   **
 **   ##  ## ##  ##   ##  ##  ##      ####     ###    ##   ######   ######    **
 **    ##  ###   ##   ##  ##  ##      ## ##      ##   ##   ##       ##        **
 **     #######   #####   ##   #####  ##  ##  ####    ##    #####   ##        **
 **           ##                                                    ##        **
 **                                                                           **
 **                                                ... make the atoms dance   **
 **                                                                           **
 **            Copyright (C) by CP2K developers group (2000 - 2019)           **
 **                                                                           **
 *******************************************************************************


 TOTAL NUMBERS AND MAXIMUM NUMBERS

  Total number of            - Atomic kinds:                                   2
                             - Atoms:                                        192
                             - Shell sets:                                   384
                             - Shells:                                       704
                             - Primitive Cartesian functions:                960
                             - Cartesian basis functions:                   1536
                             - Spherical basis functions:                   1472

  Maximum angular momentum of- Orbital basis functions:                        2
                             - Local part of the GTH pseudopotential:          2
                             - Non-local part of the GTH pseudopotential:      0


 SCF PARAMETERS         Density guess:                                    ATOMIC
                        --------------------------------------------------------
                        max_scf:                                             300
                        max_scf_history:                                       0
                        max_diis:                                              4
                        --------------------------------------------------------
                        eps_scf:                                        1.00E-07
                        eps_scf_history:                                0.00E+00
                        eps_diis:                                       1.00E-01
                        eps_eigval:                                     1.00E-05
                        --------------------------------------------------------
                        level_shift [a.u.]:                                 0.00
                        --------------------------------------------------------
                        Mixing method:                            BROYDEN_MIXING
                                                charge density mixing in g-space
                        --------------------------------------------------------
                        No outer SCF

 Number of electrons:                                                        512
 Number of occupied orbitals:                                                256
 Number of molecular orbitals:                                               256

 Number of orbital functions:                                               1472
 Number of independent orbital functions:                                   1472

 Extrapolation method: initial_guess


 SCF WAVEFUNCTION OPTIMIZATION

  Step     Update method      Time    Convergence         Total energy    Change
  ------------------------------------------------------------------------------
     1 NoMix/Diag. 0.40E+00    7.2     0.61806794     -1063.8795259006 -1.06E+03
     2 Broy./Diag. 0.40E+00    8.0     1.91662313      -992.5278992391  7.14E+01
     3 Broy./Diag. 0.40E+00    8.4     1.95303929     -1275.9842830416 -2.83E+02
     4 Broy./Diag. 0.40E+00    8.6     1.79703211     -1124.5593708292  1.51E+02
     5 Broy./Diag. 0.40E+00    8.6     1.65953756     -1091.9902044014  3.26E+01
     6 Broy./Diag. 0.40E+00    9.0     1.89313687     -1097.3324746750 -5.34E+00
     7 Broy./Diag. 0.40E+00    8.8     1.89469843     -1095.0082272456  2.32E+00
     8 Broy./Diag. 0.40E+00    9.3     0.91145976     -1083.1130013392  1.19E+01
     9 Broy./Diag. 0.40E+00    9.8     1.70100439     -1076.8235675241  6.29E+00
    10 Broy./Diag. 0.40E+00    9.3     1.74404718     -1081.0210864133 -4.20E+00
    11 Broy./Diag. 0.40E+00    8.9     0.48385094     -1074.6385573758  6.38E+00
    12 Broy./Diag. 0.40E+00    9.1     0.27423656     -1072.2195233752  2.42E+00
    13 Broy./Diag. 0.40E+00    9.5     0.15956565     -1070.0704190356  2.15E+00
    14 Broy./Diag. 0.40E+00    9.5     0.11927685     -1079.5309145664 -9.46E+00
    15 Broy./Diag. 0.40E+00    9.3     0.09830694     -1077.8495269086  1.68E+00
    16 Broy./Diag. 0.40E+00    9.3     0.08944395     -1075.1571342578  2.69E+00
    17 Broy./Diag. 0.40E+00    9.2     0.11547512     -1076.3877164724 -1.23E+00
    18 Broy./Diag. 0.40E+00    9.3     0.07842428     -1075.8508753305  5.37E-01
    19 Broy./Diag. 0.40E+00    9.1     0.06211485     -1075.7973418531  5.35E-02
    20 Broy./Diag. 0.40E+00    8.8     0.02272649     -1075.8822625993 -8.49E-02
    21 Broy./Diag. 0.40E+00    9.2     0.01181633     -1075.6049277826  2.77E-01
    22 Broy./Diag. 0.40E+00    9.6     0.00602694     -1075.5700620617  3.49E-02
    23 Broy./Diag. 0.40E+00    9.5     0.00452871     -1075.5864232236 -1.64E-02
    24 Broy./Diag. 0.40E+00    9.6     0.00585238     -1075.5560443418  3.04E-02
    25 Broy./Diag. 0.40E+00    9.4     0.00695165     -1075.5075148349  4.85E-02
    26 Broy./Diag. 0.40E+00    9.5     0.00883945     -1075.5773848713 -6.99E-02
    27 Broy./Diag. 0.40E+00    9.6     0.00579993     -1075.5730072658  4.38E-03
    28 Broy./Diag. 0.40E+00    9.7     0.00288997     -1075.5127193199  6.03E-02
    29 Broy./Diag. 0.40E+00    9.5     0.00651261     -1075.5684700129 -5.58E-02
    30 Broy./Diag. 0.40E+00    9.6     0.00667005     -1075.5748951365 -6.43E-03
    31 Broy./Diag. 0.40E+00    9.2     0.00184754     -1075.5580373532  1.69E-02
    32 Broy./Diag. 0.40E+00    9.5     0.00166399     -1075.5426170850  1.54E-02
    33 Broy./Diag. 0.40E+00    9.4     0.00125674     -1075.5676328623 -2.50E-02
    34 Broy./Diag. 0.40E+00    9.3     0.00137360     -1075.5553307980  1.23E-02
    35 Broy./Diag. 0.40E+00    9.6     0.00147228     -1075.5493638264  5.97E-03
    36 Broy./Diag. 0.40E+00    9.7     0.00224988     -1075.5593770458 -1.00E-02
    37 Broy./Diag. 0.40E+00    9.2     0.00198943     -1075.5523121283  7.06E-03
    38 Broy./Diag. 0.40E+00    8.9     0.00075050     -1075.5444810830  7.83E-03
    39 Broy./Diag. 0.40E+00    9.2     0.00072602     -1075.5600852241 -1.56E-02
    40 Broy./Diag. 0.40E+00    9.3     0.00137241     -1075.5538815808  6.20E-03
    41 Broy./Diag. 0.40E+00    9.3     0.00117022     -1075.5507376558  3.14E-03
    42 Broy./Diag. 0.40E+00    9.2     0.00062888     -1075.5521617270 -1.42E-03
    43 Broy./Diag. 0.40E+00    9.3     0.00118912     -1075.5549340988 -2.77E-03
    44 Broy./Diag. 0.40E+00    8.9     0.00115152     -1075.5545471884  3.87E-04
    45 Broy./Diag. 0.40E+00    9.0     0.00081912     -1075.5524460639  2.10E-03
    46 Broy./Diag. 0.40E+00    8.9     0.00073708     -1075.5539792329 -1.53E-03
    47 Broy./Diag. 0.40E+00    9.2     0.00017088     -1075.5545622508 -5.83E-04
    48 Broy./Diag. 0.40E+00    9.5     0.00021759     -1075.5537690321  7.93E-04
    49 Broy./Diag. 0.40E+00    9.5     0.00019216     -1075.5541275168 -3.58E-04
    50 Broy./Diag. 0.40E+00    9.3     0.00012244     -1075.5546520553 -5.25E-04
    51 Broy./Diag. 0.40E+00    9.5     0.00011060     -1075.5545739241  7.81E-05
    52 Broy./Diag. 0.40E+00    9.4     0.00037849     -1075.5544142246  1.60E-04
    53 Broy./Diag. 0.40E+00    9.5     0.00016716     -1075.5549386364 -5.24E-04
    54 Broy./Diag. 0.40E+00    9.6     0.00021288     -1075.5535740295  1.36E-03
    55 Broy./Diag. 0.40E+00    9.5     0.00008814     -1075.5541413724 -5.67E-04
    56 Broy./Diag. 0.40E+00    9.3     0.00005872     -1075.5545589293 -4.18E-04
    57 Broy./Diag. 0.40E+00    9.2     0.00004093     -1075.5547943363 -2.35E-04
    58 Broy./Diag. 0.40E+00    9.5     0.00005778     -1075.5540149697  7.79E-04
    59 Broy./Diag. 0.40E+00    9.7     0.00004083     -1075.5540859620 -7.10E-05
    60 Broy./Diag. 0.40E+00    9.4     0.00001966     -1075.5544657044 -3.80E-04
    61 Broy./Diag. 0.40E+00    9.4     0.00001402     -1075.5541920830  2.74E-04
    62 Broy./Diag. 0.40E+00    9.4     0.00002973     -1075.5543230013 -1.31E-04
    63 Broy./Diag. 0.40E+00    9.3     0.00004300     -1075.5542220669  1.01E-04
    64 Broy./Diag. 0.40E+00    9.1     0.00001388     -1075.5543247111 -1.03E-04
    65 Broy./Diag. 0.40E+00    9.2     0.00001646     -1075.5542980783  2.66E-05
    66 Broy./Diag. 0.40E+00    9.6     0.00001245     -1075.5543142493 -1.62E-05
    67 Broy./Diag. 0.40E+00    9.6     0.00000628     -1075.5543095432  4.71E-06
    68 Broy./Diag. 0.40E+00    9.3     0.00000650     -1075.5542487084  6.08E-05
    69 Broy./Diag. 0.40E+00    9.0     0.00000713     -1075.5542897314 -4.10E-05
    70 Broy./Diag. 0.40E+00    9.0     0.00000473     -1075.5543249887 -3.53E-05
    71 Broy./Diag. 0.40E+00    9.4     0.00000461     -1075.5542582639  6.67E-05
    72 Broy./Diag. 0.40E+00    9.1     0.00000265     -1075.5543150000 -5.67E-05
    73 Broy./Diag. 0.40E+00    8.9     0.00001044     -1075.5542852491  2.98E-05
    74 Broy./Diag. 0.40E+00    8.9     0.00000822     -1075.5542846251  6.24E-07
    75 Broy./Diag. 0.40E+00    8.7     0.00000309     -1075.5542973882 -1.28E-05
    76 Broy./Diag. 0.40E+00    8.9     0.00000372     -1075.5542989571 -1.57E-06
    77 Broy./Diag. 0.40E+00    8.9     0.00000262     -1075.5542933967  5.56E-06
    78 Broy./Diag. 0.40E+00    8.8     0.00000160     -1075.5542807548  1.26E-05
    79 Broy./Diag. 0.40E+00    8.7     0.00000239     -1075.5542985776 -1.78E-05
    80 Broy./Diag. 0.40E+00    9.0     0.00000192     -1075.5543096138 -1.10E-05
    81 Broy./Diag. 0.40E+00    9.4     0.00000121     -1075.5542877942  2.18E-05
    82 Broy./Diag. 0.40E+00    9.3     0.00000086     -1075.5543004324 -1.26E-05
    83 Broy./Diag. 0.40E+00    8.9     0.00000243     -1075.5542929750  7.46E-06
    84 Broy./Diag. 0.40E+00    9.0     0.00000286     -1075.5542936421 -6.67E-07
    85 Broy./Diag. 0.40E+00    9.0     0.00000058     -1075.5542962752 -2.63E-06
    86 Broy./Diag. 0.40E+00    9.5     0.00000105     -1075.5542971520 -8.77E-07
    87 Broy./Diag. 0.40E+00    9.6     0.00000087     -1075.5542950913  2.06E-06
    88 Broy./Diag. 0.40E+00    9.6     0.00000055     -1075.5542907762  4.32E-06
    89 Broy./Diag. 0.40E+00    9.3     0.00000054     -1075.5542955388 -4.76E-06
    90 Broy./Diag. 0.40E+00    9.5     0.00000058     -1075.5542975699 -2.03E-06
    91 Broy./Diag. 0.40E+00    9.4     0.00000035     -1075.5542917617  5.81E-06
    92 Broy./Diag. 0.40E+00    9.7     0.00000031     -1075.5542953532 -3.59E-06
    93 Broy./Diag. 0.40E+00    9.6     0.00000060     -1075.5542933878  1.97E-06
    94 Broy./Diag. 0.40E+00    9.4     0.00000098     -1075.5542935430 -1.55E-07
    95 Broy./Diag. 0.40E+00    9.6     0.00000046     -1075.5542940754 -5.32E-07
    96 Broy./Diag. 0.40E+00    9.8     0.00000034     -1075.5542946328 -5.57E-07
    97 Broy./Diag. 0.40E+00    9.4     0.00000034     -1075.5542941846  4.48E-07
    98 Broy./Diag. 0.40E+00    9.3     0.00000024     -1075.5542928065  1.38E-06
    99 Broy./Diag. 0.40E+00    9.1     0.00000022     -1075.5542943734 -1.57E-06
   100 Broy./Diag. 0.40E+00    9.1     0.00000024     -1075.5542952870 -9.14E-07
   101 Broy./Diag. 0.40E+00    9.4     0.00000018     -1075.5542931951  2.09E-06
   102 Broy./Diag. 0.40E+00    9.9     0.00000015     -1075.5542948611 -1.67E-06
   103 Broy./Diag. 0.40E+00    9.3     0.00000027     -1075.5542940450  8.16E-07
   104 Broy./Diag. 0.40E+00    9.2     0.00000043     -1075.5542940340  1.09E-08
   105 Broy./Diag. 0.40E+00    9.6     0.00000028     -1075.5542942072 -1.73E-07
   106 Broy./Diag. 0.40E+00    9.5     0.00000012     -1075.5542944096 -2.02E-07
   107 Broy./Diag. 0.40E+00    9.6     0.00000017     -1075.5542944224 -1.29E-08
   108 Broy./Diag. 0.40E+00    9.3     0.00000013     -1075.5542937234  6.99E-07
   109 Broy./Diag. 0.40E+00    9.2     0.00000010     -1075.5542942818 -5.58E-07

  *** SCF run converged in   109 steps ***


  Electronic density on regular grids:       -512.0002669724       -0.0002669724
  Core density on regular grids:              512.0001330394        0.0001330394
  Total charge density on r-space grids:       -0.0001339330
  Total charge density g-space grids:          -0.0001339330

  Overlap energy of the core charge distribution:               0.00000000000000
  Self energy of the core charge distribution:              -2838.21791979120962
  Core Hamiltonian energy:                                    759.69449423478920
  Hartree energy:                                            1241.25437084401142
  Exchange-correlation energy:                               -238.28523956938324

  Total energy:                                             -1075.55429428179241

 ENERGY| Total FORCE_EVAL ( QS ) energy (a.u.):            -1075.554294176749863


 ATOMIC FORCES in [a.u.]

 # Atom   Kind   Element          X              Y              Z
      1      1      O          -0.11736535     0.04192323     0.11059871
      2      2      H           0.02043311    -0.00658150    -0.05420314
      3      2      H           0.04963250     0.02178722    -0.00880175
      4      1      O           0.05036819    -0.11207821    -0.00226326
      5      2      H          -0.06311050     0.05160730     0.02166187
      6      2      H           0.06321401     0.00644880     0.06553352
      7      1      O           0.04252415    -0.04349757    -0.02398662
      8      2      H          -0.07239678     0.04955794     0.01625154
      9      2      H           0.06398835    -0.01941604    -0.05473244
     10      1      O          -0.01246387     0.05353408    -0.06036471
     11      2      H          -0.04190263    -0.05314824     0.04180479
     12      2      H           0.08480216     0.00031943    -0.00947980
     13      1      O           0.06696108     0.01908493     0.02427823
     14      2      H          -0.02430982     0.04073565    -0.08749653
     15      2      H          -0.04711128     0.00966192     0.01815419
     16      1      O           0.06493602     0.04946582     0.02193783
     17      2      H           0.01347028     0.00462813     0.06072667
     18      2      H          -0.07485197    -0.06124630    -0.04919087
     19      1      O          -0.01256329    -0.02779675    -0.11191472
     20      2      H          -0.05812129    -0.05513335     0.00627640
     21      2      H          -0.01300286     0.02960240     0.04399285
     22      1      O          -0.06933049    -0.00678102    -0.10367798
     23      2      H          -0.02489075     0.05630369     0.08284201
     24      2      H           0.05665931    -0.05686497    -0.01406848
     25      1      O           0.03948331     0.10528181     0.01298475
     26      2      H          -0.02950674    -0.00022900    -0.00438823
     27      2      H          -0.03872274    -0.06369079    -0.01575087
     28      1      O           0.00738906    -0.02878337    -0.00158701
     29      2      H          -0.04785121     0.04416696    -0.00455602
     30      2      H           0.03127022     0.04277142    -0.02582313
     31      1      O          -0.03691633     0.09928824    -0.08332792
     32      2      H           0.08813272     0.02555110     0.05242313
     33      2      H          -0.00223826    -0.07564297     0.06181030
     34      1      O           0.12703270    -0.06854216     0.00121381
     35      2      H          -0.01095074     0.03422826     0.05943914
     36      2      H          -0.06007645    -0.02144684    -0.05890667
     37      1      O           0.02096176    -0.06800383    -0.05350732
     38      2      H          -0.05752640     0.03900467     0.01771418
     39      2      H           0.05646408     0.01878053    -0.02569673
     40      1      O           0.08363382    -0.07787445    -0.04048152
     41      2      H          -0.02301584    -0.02103334     0.02586755
     42      2      H          -0.04852285     0.07012547    -0.06439310
     43      1      O          -0.01602234     0.04106634     0.07970183
     44      2      H          -0.00005284    -0.05004757    -0.05537237
     45      2      H           0.01141051     0.06557214     0.00177658
     46      1      O           0.01711784    -0.08701350    -0.02964686
     47      2      H          -0.06114425     0.00460164     0.08839358
     48      2      H           0.05672355     0.02829866     0.03338126
     49      1      O           0.06979324     0.06473563    -0.03426756
     50      2      H           0.02216398     0.01069069     0.06582197
     51      2      H          -0.06885450    -0.03412864    -0.00420339
     52      1      O           0.12531568     0.01548983    -0.06654130
     53      2      H          -0.03741065    -0.00048310    -0.01145967
     54      2      H          -0.02304210     0.04588555     0.03706376
     55      1      O           0.02828086    -0.06240789    -0.13308771
     56      2      H           0.05477933    -0.03574276     0.07159291
     57      2      H           0.01908785     0.05341498     0.02663070
     58      1      O          -0.04148486     0.10130513     0.00641502
     59      2      H           0.05512898    -0.06590053    -0.06521682
     60      2      H          -0.01514517     0.00812069     0.09685229
     61      1      O          -0.06233960    -0.01258309     0.12709328
     62      2      H           0.00277808     0.04591153     0.01366822
     63      2      H          -0.00066848    -0.00419667    -0.09952425
     64      1      O          -0.01531920    -0.00061067    -0.03958503
     65      2      H           0.03750994     0.02780675     0.05784098
     66      2      H          -0.05031697    -0.01523277    -0.02564328
     67      1      O           0.10585108     0.00600631     0.05829644
     68      2      H          -0.00612395     0.08173402     0.00209324
     69      2      H          -0.05686709    -0.03021542     0.01180771
     70      1      O           0.01700417     0.06123916     0.10120683
     71      2      H           0.05695169    -0.07777656    -0.05336926
     72      2      H          -0.02392971     0.03368173    -0.05139243
     73      1      O           0.06115934     0.09632693     0.01264934
     74      2      H           0.03882098    -0.02881451    -0.01174652
     75      2      H          -0.07717084    -0.02711775     0.01635273
     76      1      O          -0.02896151    -0.01661946     0.05995759
     77      2      H           0.04550915    -0.00887853    -0.06099769
     78      2      H          -0.07655466     0.03205589    -0.00753296
     79      1      O           0.01700541     0.08436205     0.04735711
     80      2      H           0.02743598    -0.04724190     0.03213794
     81      2      H          -0.04320670    -0.00332705    -0.04100478
     82      1      O          -0.04021682    -0.00388033     0.10735910
     83      2      H          -0.04402937     0.03954638    -0.01806320
     84      2      H           0.03486867     0.00165970    -0.04357728
     85      1      O          -0.06992905    -0.05228866    -0.04388585
     86      2      H           0.03067924    -0.07840924     0.01742340
     87      2      H          -0.01254740     0.08301140     0.03746182
     88      1      O           0.01439208    -0.13060511    -0.07268965
     89      2      H           0.06016073     0.03610427     0.08109396
     90      2      H          -0.08500342     0.04431803    -0.03250255
     91      1      O          -0.02770148    -0.06006975    -0.02277521
     92      2      H          -0.05839511     0.05623418    -0.02293546
     93      2      H          -0.00499671    -0.03281646     0.04384217
     94      1      O          -0.05586438     0.00406293     0.05215451
     95      2      H           0.02558828     0.02250310    -0.01546443
     96      2      H          -0.04821579    -0.02938636    -0.04776275
     97      1      O           0.03511499    -0.06323433     0.04028602
     98      2      H           0.03510448     0.08649973     0.07439206
     99      2      H          -0.04446233     0.04400502    -0.07063569
    100      1      O           0.05175550     0.05406337     0.06719102
    101      2      H          -0.06478273    -0.06759546    -0.05902835
    102      2      H           0.03008363     0.02811672    -0.05164516
    103      1      O          -0.06408955     0.03616998    -0.01218296
    104      2      H          -0.04417651    -0.03516963     0.04492282
    105      2      H           0.07239776     0.04592608    -0.01386732
    106      1      O           0.03680392     0.05640410    -0.10098743
    107      2      H          -0.08795026     0.02549071    -0.00850214
    108      2      H           0.01959364     0.00249789     0.06185731
    109      1      O           0.06209279    -0.05364614    -0.04951507
    110      2      H          -0.03840243     0.04635810     0.08280384
    111      2      H           0.00562760     0.02260541    -0.04719718
    112      1      O          -0.04337882    -0.09790633    -0.09174781
    113      2      H           0.07139485     0.00892464     0.01084236
    114      2      H          -0.03781462     0.02532683     0.01237803
    115      1      O           0.02540506    -0.03164005    -0.06339090
    116      2      H          -0.04383993     0.09977129    -0.01820590
    117      2      H           0.00763888    -0.04613746     0.04985685
    118      1      O          -0.01687214    -0.08410784     0.00420379
    119      2      H          -0.05030752     0.01974150    -0.04955279
    120      2      H           0.03094846     0.01485395     0.04198942
    121      1      O          -0.07494207     0.12674832    -0.00738679
    122      2      H           0.00775091    -0.09056324    -0.01547276
    123      2      H           0.01155685    -0.00962669     0.05487945
    124      1      O           0.06704268     0.03534167    -0.04026333
    125      2      H           0.00089111    -0.02524724    -0.06116567
    126      2      H          -0.00146570     0.06656416     0.05160807
    127      1      O           0.08810492     0.07068963    -0.11233655
    128      2      H          -0.03988013    -0.03631914     0.01295897
    129      2      H           0.00015533     0.00819136     0.07461681
    130      1      O           0.10165585     0.04146840     0.07834915
    131      2      H          -0.05953916    -0.01615261     0.00302748
    132      2      H           0.01056282     0.01901245    -0.09156289
    133      1      O          -0.00951879     0.06553939     0.08350724
    134      2      H           0.01995691    -0.03061328     0.03048760
    135      2      H          -0.01039742     0.01151280    -0.03065739
    136      1      O          -0.05029523    -0.07162675     0.08195314
    137      2      H           0.02321593     0.10822209     0.03052671
    138      2      H          -0.02827774    -0.01814354    -0.08319944
    139      1      O          -0.00285572    -0.02460284     0.11587530
    140      2      H          -0.03147485    -0.01793076    -0.04621865
    141      2      H           0.00042656     0.04826908    -0.01263079
    142      1      O           0.05168787    -0.09794377    -0.00080066
    143      2      H          -0.02167594     0.02719737     0.07890094
    144      2      H          -0.04089177     0.00888990    -0.01659999
    145      1      O           0.02593699    -0.09045615     0.01121629
    146      2      H          -0.02089786     0.07611888    -0.00000099
    147      2      H           0.03477001    -0.00627133    -0.07541324
    148      1      O           0.00482631     0.03049499     0.06970920
    149      2      H           0.04739042    -0.06974080     0.00122509
    150      2      H          -0.04078804     0.03321383    -0.06019525
    151      1      O          -0.09506515     0.05765533     0.10193792
    152      2      H           0.00410922     0.02835766    -0.06452312
    153      2      H           0.03493119    -0.08461779     0.00484793
    154      1      O          -0.06879880    -0.01410725    -0.07473787
    155      2      H           0.01948422     0.05865276     0.00021354
    156      2      H          -0.03509175     0.01109165     0.07685648
    157      1      O          -0.05894558     0.00028966    -0.05040465
    158      2      H          -0.06811320    -0.02971805     0.05074624
    159      2      H           0.08903212    -0.01882025     0.02445496
    160      1      O          -0.04096453     0.03485790     0.02960808
    161      2      H          -0.03295696    -0.05692550    -0.04301789
    162      2      H           0.00720394     0.04065878    -0.04610921
    163      1      O           0.04692770     0.04196355    -0.03886934
    164      2      H          -0.05393774     0.10515608    -0.00525158
    165      2      H          -0.02472872    -0.10316326     0.03274720
    166      1      O          -0.06065425    -0.04978000     0.09276581
    167      2      H           0.00569222     0.03232759     0.00383211
    168      2      H          -0.01745737     0.02340004    -0.05794035
    169      1      O           0.02209248     0.09324389     0.07358336
    170      2      H          -0.04184617     0.04005733    -0.06646953
    171      2      H          -0.02791256    -0.06607455     0.05384805
    172      1      O          -0.06719676     0.00469766    -0.00972843
    173      2      H          -0.02907234     0.01457602     0.09616794
    174      2      H           0.06021835     0.05696923    -0.02232121
    175      1      O           0.09579396    -0.06990191     0.06973795
    176      2      H           0.00050799     0.05727957    -0.04477697
    177      2      H          -0.04534020    -0.01293184     0.04285441
    178      1      O           0.00754115     0.04114338     0.06293733
    179      2      H          -0.06426307    -0.02764964    -0.00527441
    180      2      H          -0.01663388     0.01302434    -0.08200719
    181      1      O           0.00028222    -0.08526939     0.03523119
    182      2      H          -0.04981088    -0.04001804     0.03273185
    183      2      H           0.01966798     0.09176381     0.02867906
    184      1      O          -0.13763294     0.05404608     0.00822940
    185      2      H           0.06725427     0.02565760    -0.02507588
    186      2      H           0.04103233     0.00397680     0.04855090
    187      1      O           0.00790908    -0.04087910    -0.05004777
    188      2      H          -0.04596020    -0.03221317    -0.03054187
    189      2      H           0.00686460     0.04978001     0.00285216
    190      1      O          -0.00696588    -0.05439054     0.03947814
    191      2      H          -0.04280285     0.05904398     0.03032421
    192      2      H           0.01691865     0.04973251    -0.04164513
 SUM OF ATOMIC FORCES          -0.63916228     0.85851683     0.32776630     1.11937944

 -------------------------------------------------------------------------------
 -                                                                             -
 -                                DBCSR STATISTICS                             -
 -                                                                             -
 -------------------------------------------------------------------------------
 COUNTER                                    TOTAL       BLAS       SMM       ACC
 flops     5 x     5 x   256           1867008000       0.0%    100.0%      0.0%
 flops    13 x     5 x   256           2214784000       0.0%    100.0%      0.0%
 flops     5 x    13 x   256           2244070400       0.0%    100.0%      0.0%
 flops    13 x    13 x   256           2969640960       0.0%    100.0%      0.0%
 flops inhomo. stacks                           0       0.0%      0.0%      0.0%
 flops total                         9.295503E+09       0.0%    100.0%      0.0%
 flops max/rank                      9.295503E+09       0.0%    100.0%      0.0%
 matmuls inhomo. stacks                         0       0.0%      0.0%      0.0%
 matmuls total                             314160       0.0%    100.0%      0.0%
 number of processed stacks                 15400       0.0%    100.0%      0.0%
 average stack size                                     0.0      20.4       0.0
 marketing flops                   122.033275E+09
 -------------------------------------------------------------------------------
 # multiplications                            110
 max memory usage/rank               4.993139E+09
 # max total images/rank                        1
 # max 3D layers                                1
 # MPI messages exchanged                       0
 MPI messages size (bytes):
  total size                         0.000000E+00
  min size                           0.000000E+00
  max size                           0.000000E+00
  average size                       0.000000E+00
 MPI breakdown and total messages size (bytes):
             size <=      128                   0                        0
       128 < size <=     8192                   0                        0
      8192 < size <=    32768                   0                        0
     32768 < size <=   131072                   0                        0
    131072 < size <=  4194304                   0                        0
   4194304 < size <= 16777216                   0                        0
  16777216 < size                               0                        0
 -------------------------------------------------------------------------------

 MEMORY| Estimated peak process memory [MiB]                                4756

 -------------------------------------------------------------------------------
 -                                                                             -
 -                           R E F E R E N C E S                               -
 -                                                                             -
 -------------------------------------------------------------------------------
 
 CP2K version 7.1, the CP2K developers group (2019).
 CP2K is freely available from https://www.cp2k.org/ .

 Schuett, Ole; Messmer, Peter; Hutter, Juerg; VandeVondele, Joost. 
 Electronic Structure Calculations on Graphics Processing Units, John
 Wiley & Sons, Ltd, 173-190 (2016). 
 GPU-Accelerated Sparse Matrix-Matrix Multiplication for
 Linear Scaling Density Functional Theory.
 https://dx.doi.org/10.1002/9781118670712.ch8

 Borstnik, U; VandeVondele, J; Weber, V; Hutter, J. 
 PARALLEL COMPUTING, 40 (5-6), 47-58 (2014). 
 Sparse matrix multiplication: The distributed block-compressed sparse
 row library.
 https://dx.doi.org/10.1016/j.parco.2014.03.012

 Hutter, J; Iannuzzi, M; Schiffmann, F; VandeVondele, J. 
 WIREs Comput Mol Sci., 4 (1), 15-25 (2014). 
 CP2K: atomistic simulations of condensed matter systems.
 https://dx.doi.org/10.1002/wcms.1159

 Krack, M. 
 THEORETICAL CHEMISTRY ACCOUNTS, 114 (1-3), 145-152 (2005). 
 Pseudopotentials for H to Kr optimized for gradient-corrected
 exchange-correlation functionals.
 https://dx.doi.org/10.1007/s00214-005-0655-y

 VandeVondele, J; Krack, M; Mohamed, F; Parrinello, M; Chassaing, T;
 Hutter, J. COMPUTER PHYSICS COMMUNICATIONS, 167 (2), 103-128 (2005). 
 QUICKSTEP: Fast and accurate density functional calculations using a
 mixed Gaussian and plane waves approach.
 https://dx.doi.org/10.1016/j.cpc.2004.12.014

 Frigo, M; Johnson, SG. 
 PROCEEDINGS OF THE IEEE, 93 (2), 216-231 (2005). 
 The design and implementation of FFTW3.
 https://dx.doi.org/10.1109/JPROC.2004.840301

 Hartwigsen, C; Goedecker, S; Hutter, J. 
 PHYSICAL REVIEW B, 58 (7), 3641-3662 (1998). 
 Relativistic separable dual-space Gaussian pseudopotentials from H to Rn.
 https://dx.doi.org/10.1103/PhysRevB.58.3641

 Lippert, G; Hutter, J; Parrinello, M. 
 MOLECULAR PHYSICS, 92 (3), 477-487 (1997). 
 A hybrid Gaussian and plane wave density functional scheme.
 https://dx.doi.org/10.1080/002689797170220

 Goedecker, S; Teter, M; Hutter, J. 
 PHYSICAL REVIEW B, 54 (3), 1703-1710 (1996). 
 Separable dual-space Gaussian pseudopotentials.
 https://dx.doi.org/10.1103/PhysRevB.54.1703


 -------------------------------------------------------------------------------
 -                                                                             -
 -                                T I M I N G                                  -
 -                                                                             -
 -------------------------------------------------------------------------------
 SUBROUTINE                       CALLS  ASD         SELF TIME        TOTAL TIME
                                MAXIMUM       AVERAGE  MAXIMUM  AVERAGE  MAXIMUM
 CP2K                                 1  1.0    0.190    0.190 1014.535 1014.535
 qs_forces                            1  2.0    0.000    0.000 1012.595 1012.595
 qs_energies                          1  3.0    0.000    0.000 1011.821 1011.821
 scf_env_do_scf                       1  4.0    0.000    0.000 1009.374 1009.374
 scf_env_do_scf_inner_loop          109  5.0    0.024    0.024 1009.373 1009.373
 qs_scf_new_mos                     109  6.0    0.003    0.003  721.634  721.634
 eigensolver                        109  7.0    0.015    0.015  709.583  709.583
 cp_fm_syevd                        109  8.0  462.055  462.055  462.632  462.632
 cp_fm_cholesky_restore             327  8.0  246.536  246.536  246.536  246.536
 gspace_mixing                      108  6.0    2.447    2.447  157.949  157.949
 broyden_mixing                     108  7.0  142.232  142.232  142.233  142.233
 rebuild_ks_matrix                  110  7.0    0.000    0.000   66.437   66.437
 qs_ks_build_kohn_sham_matrix       110  8.0    0.023    0.023   66.437   66.437
 qs_ks_update_qs_env                109  6.0    0.001    0.001   65.881   65.881
 qs_rho_update_rho                  110  6.0    0.001    0.001   63.898   63.898
 calculate_rho_elec                 110  7.0   31.826   31.826   63.897   63.897
 pw_transfer                       1429  9.9    0.117    0.117   63.566   63.566
 fft_wrap_pw1pw2                   1209 10.9    0.016    0.016   61.851   61.851
 fft_wrap_pw1pw2_70                 549 11.2    6.357    6.357   57.703   57.703
 density_rs2pw                      110  8.0    0.011    0.011   31.264   31.264
 fft3d_s                           1210 12.9   28.670   28.670   28.682   28.682
 pw_scatter_s                       658 13.2   21.615   21.615   21.615   21.615
 pw_poisson_solve                   110  9.0   19.335   19.335   21.001   21.001
 -------------------------------------------------------------------------------

 The number of warnings for this run is : 0
 
 -------------------------------------------------------------------------------
  **** **** ******  **  PROGRAM ENDED AT                 2021-02-23 17:20:20.445
 ***** ** ***  *** **   PROGRAM RAN ON                                   gnode68
 **    ****   ******    PROGRAM RAN BY                               mayank.modi
 ***** **    ** ** **   PROGRAM PROCESS ID                                 37388
  **** **  *******  **  PROGRAM STOPPED IN /home/mayank.modi/ab-initio-thermodyn
                                           amics-of-water/mayank/cp2k_energy_cal
                                           culations
