 DBCSR| CPU Multiplication driver                                           XSMM
 DBCSR| Multrec recursion limit                                              512
 DBCSR| Multiplication stack size                                           1000
 DBCSR| Maximum elements for images                                    UNLIMITED
 DBCSR| Multiplicative factor virtual images                                   1
 DBCSR| Use multiplication densification                                       T
 DBCSR| Multiplication size stacks                                             3


  **** **** ******  **  PROGRAM STARTED AT               2021-02-20 19:36:45.875
 ***** ** ***  *** **   PROGRAM STARTED ON                               gnode68
 **    ****   ******    PROGRAM STARTED BY                           mayank.modi
 ***** **    ** ** **   PROGRAM PROCESS ID                                 36354
  **** **  *******  **  PROGRAM STARTED IN /home/mayank.modi/ab-initio-thermodyn
                                           amics-of-water/mayank/cp2k_energy_cal
                                           culations

 CP2K| version string:                                          CP2K version 7.1
 CP2K| source code revision number:                                  git:e635599
 CP2K| cp2kflags: omp libint fftw3 libxc xsmm spglib                            
 CP2K| is freely available from                            https://www.cp2k.org/
 CP2K| Program compiled at                          Mon Dec 23 19:23:12 CET 2019
 CP2K| Program compiled on                                                pc9404
 CP2K| Program compiled for                                Linux-x86-64-gfortran
 CP2K| Data directory path                                        /opt/cp2k/data
 CP2K| Input file name                  input_training_correct_cell/input1072.in

 GLOBAL| Force Environment number                                              1
 GLOBAL| Basis set file name                                           BASIS_SET
 GLOBAL| Potential file name                                      GTH_POTENTIALS
 GLOBAL| MM Potential file name                                     MM_POTENTIAL
 GLOBAL| Coordinate file name                                      __STD_INPUT__
 GLOBAL| Method name                                                        CP2K
 GLOBAL| Project name                                                   H2O_bulk
 GLOBAL| Preferred FFT library                                             FFTW3
 GLOBAL| Preferred diagonalization lib.                                       SL
 GLOBAL| Run type                                                   ENERGY_FORCE
 GLOBAL| All-to-all communication in single precision                          F
 GLOBAL| FFTs using library dependent lengths                                  F
 GLOBAL| Global print level                                                  LOW
 GLOBAL| MPI I/O enabled                                                       T
 GLOBAL| Total number of message passing processes                             1
 GLOBAL| Number of threads for this process                                   36
 GLOBAL| This output is from process                                           0
 GLOBAL| CPU model name                Intel(R) Xeon(R) CPU E5-2640 v4 @ 2.40GHz
 GLOBAL| CPUID                                                              1002
 GLOBAL| Compiled for CPUID                                                    0

 MEMORY| system memory details [Kb]
 MEMORY|                        rank 0           min           max       average
 MEMORY| MemTotal            131893512     131893512     131893512     131893512
 MEMORY| MemFree             119721292     119721292     119721292     119721292
 MEMORY| Buffers               1024004       1024004       1024004       1024004
 MEMORY| Cached                9694744       9694744       9694744       9694744
 MEMORY| Slab                  1008832       1008832       1008832       1008832
 MEMORY| SReclaimable           619936        619936        619936        619936
 MEMORY| MemLikelyFree       131059976     131059976     131059976     131059976


 GENERATE|  Preliminary Number of Bonds generated:                             0
 GENERATE|  Achieved consistency in connectivity generation.

 *******************************************************************************
 *******************************************************************************
 **                                                                           **
 **     #####                         ##              ##                      **
 **    ##   ##            ##          ##              ##                      **
 **   ##     ##                       ##            ######                    **
 **   ##     ##  ##   ##  ##   #####  ##  ##   ####   ##    #####    #####    **
 **   ##     ##  ##   ##  ##  ##      ## ##   ##      ##   ##   ##  ##   ##   **
 **   ##  ## ##  ##   ##  ##  ##      ####     ###    ##   ######   ######    **
 **    ##  ###   ##   ##  ##  ##      ## ##      ##   ##   ##       ##        **
 **     #######   #####   ##   #####  ##  ##  ####    ##    #####   ##        **
 **           ##                                                    ##        **
 **                                                                           **
 **                                                ... make the atoms dance   **
 **                                                                           **
 **            Copyright (C) by CP2K developers group (2000 - 2019)           **
 **                                                                           **
 *******************************************************************************


 TOTAL NUMBERS AND MAXIMUM NUMBERS

  Total number of            - Atomic kinds:                                   2
                             - Atoms:                                        192
                             - Shell sets:                                   384
                             - Shells:                                       704
                             - Primitive Cartesian functions:                960
                             - Cartesian basis functions:                   1536
                             - Spherical basis functions:                   1472

  Maximum angular momentum of- Orbital basis functions:                        2
                             - Local part of the GTH pseudopotential:          2
                             - Non-local part of the GTH pseudopotential:      0


 SCF PARAMETERS         Density guess:                                    ATOMIC
                        --------------------------------------------------------
                        max_scf:                                             300
                        max_scf_history:                                       0
                        max_diis:                                              4
                        --------------------------------------------------------
                        eps_scf:                                        1.00E-07
                        eps_scf_history:                                0.00E+00
                        eps_diis:                                       1.00E-01
                        eps_eigval:                                     1.00E-05
                        --------------------------------------------------------
                        level_shift [a.u.]:                                 0.00
                        --------------------------------------------------------
                        Mixing method:                            BROYDEN_MIXING
                                                charge density mixing in g-space
                        --------------------------------------------------------
                        No outer SCF

 Number of electrons:                                                        512
 Number of occupied orbitals:                                                256
 Number of molecular orbitals:                                               256

 Number of orbital functions:                                               1472
 Number of independent orbital functions:                                   1472

 Extrapolation method: initial_guess


 SCF WAVEFUNCTION OPTIMIZATION

  Step     Update method      Time    Convergence         Total energy    Change
  ------------------------------------------------------------------------------
     1 NoMix/Diag. 0.40E+00    7.1     0.62341338     -1064.0748082184 -1.06E+03
     2 Broy./Diag. 0.40E+00    7.8     1.84562688      -994.2269951077  6.98E+01
     3 Broy./Diag. 0.40E+00    7.9     1.92722946     -1270.0777375963 -2.76E+02
     4 Broy./Diag. 0.40E+00    8.1     1.80600007     -1123.7496465622  1.46E+02
     5 Broy./Diag. 0.40E+00    8.4     1.42019859     -1092.8912457611  3.09E+01
     6 Broy./Diag. 0.40E+00    9.0     1.64044715     -1097.1006950960 -4.21E+00
     7 Broy./Diag. 0.40E+00    8.9     1.69418599     -1097.1734901128 -7.28E-02
     8 Broy./Diag. 0.40E+00    9.3     1.93343993     -1085.2283286720  1.19E+01
     9 Broy./Diag. 0.40E+00    9.4     0.66582309     -1076.6994234276  8.53E+00
    10 Broy./Diag. 0.40E+00   10.0     0.56273644     -1070.9045238868  5.79E+00
    11 Broy./Diag. 0.40E+00   10.2     0.25862212     -1072.3542443453 -1.45E+00
    12 Broy./Diag. 0.40E+00   10.1     0.19418836     -1072.5671922022 -2.13E-01
    13 Broy./Diag. 0.40E+00    9.7     0.17091469     -1071.5511737115  1.02E+00
    14 Broy./Diag. 0.40E+00    9.4     0.10360923     -1077.7467427442 -6.20E+00
    15 Broy./Diag. 0.40E+00    9.1     0.10720077     -1074.8602552134  2.89E+00
    16 Broy./Diag. 0.40E+00    9.4     0.09413410     -1075.8764227507 -1.02E+00
    17 Broy./Diag. 0.40E+00    9.5     0.05643349     -1076.8054766831 -9.29E-01
    18 Broy./Diag. 0.40E+00    9.7     0.02703059     -1075.9368052544  8.69E-01
    19 Broy./Diag. 0.40E+00    9.4     0.98174405     -1075.7844491105  1.52E-01
    20 Broy./Diag. 0.40E+00    9.4     0.99145780     -1077.7081098424 -1.92E+00
    21 Broy./Diag. 0.40E+00    9.3     0.99481666     -1076.0827983619  1.63E+00
    22 Broy./Diag. 0.40E+00    9.0     0.99106622     -1077.1005977694 -1.02E+00
    23 Broy./Diag. 0.40E+00    9.5     0.06057151     -1076.1604151576  9.40E-01
    24 Broy./Diag. 0.40E+00    9.4     0.04377407     -1075.6255081157  5.35E-01
    25 Broy./Diag. 0.40E+00    9.5     0.01045681     -1075.8172193468 -1.92E-01
    26 Broy./Diag. 0.40E+00    9.5     0.00625950     -1075.9382939199 -1.21E-01
    27 Broy./Diag. 0.40E+00    9.5     0.00411044     -1075.8938269907  4.45E-02
    28 Broy./Diag. 0.40E+00    9.3     0.00464978     -1075.8931687172  6.58E-04
    29 Broy./Diag. 0.40E+00    9.1     0.00577887     -1075.8479091167  4.53E-02
    30 Broy./Diag. 0.40E+00    9.5     0.00430290     -1075.8947165926 -4.68E-02
    31 Broy./Diag. 0.40E+00    9.5     0.99203467     -1075.9203973675 -2.57E-02
    32 Broy./Diag. 0.40E+00    9.2     1.00081685     -1077.5666327974 -1.65E+00
    33 Broy./Diag. 0.40E+00    8.9     0.02232054     -1075.7993335147  1.77E+00
    34 Broy./Diag. 0.40E+00    9.5     0.01537397     -1076.0568831350 -2.58E-01
    35 Broy./Diag. 0.40E+00    9.2     0.00460931     -1075.9230543362  1.34E-01
    36 Broy./Diag. 0.40E+00    9.3     0.00260423     -1075.8418468502  8.12E-02
    37 Broy./Diag. 0.40E+00    9.7     0.00187448     -1075.8827203427 -4.09E-02
    38 Broy./Diag. 0.40E+00    9.3     0.00228575     -1075.8778296217  4.89E-03
    39 Broy./Diag. 0.40E+00    9.5     0.00231305     -1075.8770866442  7.43E-04
    40 Broy./Diag. 0.40E+00    9.4     0.00151345     -1075.8646123074  1.25E-02
    41 Broy./Diag. 0.40E+00    9.6     0.99118598     -1075.8847399782 -2.01E-02
    42 Broy./Diag. 0.40E+00    9.4     0.99657752     -1077.4435337645 -1.56E+00
    43 Broy./Diag. 0.40E+00    9.3     0.03236973     -1075.8560219120  1.59E+00
    44 Broy./Diag. 0.40E+00    9.8     0.02483378     -1075.9400202208 -8.40E-02
    45 Broy./Diag. 0.40E+00    9.3     0.00412236     -1075.8801020659  5.99E-02
    46 Broy./Diag. 0.40E+00    8.9     0.00509651     -1075.8662779855  1.38E-02
    47 Broy./Diag. 0.40E+00    9.3     0.00401975     -1075.8852635400 -1.90E-02
    48 Broy./Diag. 0.40E+00    9.0     1.69059235     -1075.8908818436 -5.62E-03
    49 Broy./Diag. 0.40E+00    8.9     1.69728326     -1077.4819211165 -1.59E+00
    50 Broy./Diag. 0.40E+00    8.9     0.02545132     -1075.8434580127  1.64E+00
    51 Broy./Diag. 0.40E+00    9.0     0.99111763     -1075.8980763626 -5.46E-02
    52 Broy./Diag. 0.40E+00    9.4     0.99902885     -1077.5187792047 -1.62E+00
    53 Broy./Diag. 0.40E+00    9.5     0.02287597     -1075.8878483792  1.63E+00
    54 Broy./Diag. 0.40E+00    9.5     0.01817865     -1075.9217930276 -3.39E-02
    55 Broy./Diag. 0.40E+00    9.4     0.01307586     -1075.8088083403  1.13E-01
    56 Broy./Diag. 0.40E+00    9.3     0.00606151     -1075.8564965606 -4.77E-02
    57 Broy./Diag. 0.40E+00    9.0     0.00273249     -1075.8864109941 -2.99E-02
    58 Broy./Diag. 0.40E+00    8.7     0.00331538     -1075.8591909913  2.72E-02
    59 Broy./Diag. 0.40E+00    8.8     0.00170727     -1075.8716928892 -1.25E-02
    60 Broy./Diag. 0.40E+00    9.4     0.00082864     -1075.8715569238  1.36E-04
    61 Broy./Diag. 0.40E+00    9.2     0.99604146     -1075.8708288632  7.28E-04
    62 Broy./Diag. 0.40E+00    9.2     1.00170081     -1077.4720857062 -1.60E+00
    63 Broy./Diag. 0.40E+00    9.5     0.02113707     -1075.8846575945  1.59E+00
    64 Broy./Diag. 0.40E+00    9.4     0.01963408     -1075.8070568580  7.76E-02
    65 Broy./Diag. 0.40E+00    9.3     0.01027654     -1075.8559944362 -4.89E-02
    66 Broy./Diag. 0.40E+00    9.1     0.01190213     -1075.8931313801 -3.71E-02
    67 Broy./Diag. 0.40E+00    9.0     0.00584805     -1075.8888646973  4.27E-03
    68 Broy./Diag. 0.40E+00    9.4     0.00384732     -1075.8364681189  5.24E-02
    69 Broy./Diag. 0.40E+00    9.6     1.67785765     -1075.8740890169 -3.76E-02
    70 Broy./Diag. 0.40E+00    9.3     1.68423948     -1077.4785190504 -1.60E+00
    71 Broy./Diag. 0.40E+00    9.2     0.99734137     -1075.8629989476  1.62E+00
    72 Broy./Diag. 0.40E+00    8.8     1.00689625     -1077.6364419080 -1.77E+00
    73 Broy./Diag. 0.40E+00    8.9     0.03086447     -1075.7725970551  1.86E+00
    74 Broy./Diag. 0.40E+00    9.5     0.02720431     -1075.8750662360 -1.02E-01
    75 Broy./Diag. 0.40E+00    9.5     0.01376856     -1075.9271336163 -5.21E-02
    76 Broy./Diag. 0.40E+00    9.4     0.00279571     -1075.8432655483  8.39E-02
    77 Broy./Diag. 0.40E+00    9.5     0.00220078     -1075.8440591671 -7.94E-04
    78 Broy./Diag. 0.40E+00    9.5     0.00221918     -1075.8574265418 -1.34E-02
    79 Broy./Diag. 0.40E+00    9.5     0.00349053     -1075.8667433342 -9.32E-03
    80 Broy./Diag. 0.40E+00    9.4     0.00166201     -1075.8698168495 -3.07E-03
    81 Broy./Diag. 0.40E+00    9.5     0.99612891     -1075.8488755803  2.09E-02
    82 Broy./Diag. 0.40E+00    9.4     1.00836407     -1077.4256273328 -1.58E+00
    83 Broy./Diag. 0.40E+00    9.3     0.04135233     -1075.8683493651  1.56E+00
    84 Broy./Diag. 0.40E+00    9.2     0.02852862     -1075.8011387845  6.72E-02
    85 Broy./Diag. 0.40E+00    9.4     0.00689112     -1075.8757980715 -7.47E-02
    86 Broy./Diag. 0.40E+00    9.5     0.00780357     -1075.8388183352  3.70E-02
    87 Broy./Diag. 0.40E+00    9.2     0.00440282     -1075.8709802796 -3.22E-02
    88 Broy./Diag. 0.40E+00    9.0     1.69074115     -1075.8545625678  1.64E-02
    89 Broy./Diag. 0.40E+00    9.7     1.69674317     -1077.4669653821 -1.61E+00
    90 Broy./Diag. 0.40E+00    9.3     0.02104823     -1075.8364008088  1.63E+00
    91 Broy./Diag. 0.40E+00    9.5     0.99697887     -1075.8795429142 -4.31E-02
    92 Broy./Diag. 0.40E+00    9.2     1.00535976     -1077.5603446786 -1.68E+00
    93 Broy./Diag. 0.40E+00    9.6     0.03126881     -1075.8198852601  1.74E+00
    94 Broy./Diag. 0.40E+00    9.2     0.02544319     -1075.9028612504 -8.30E-02
    95 Broy./Diag. 0.40E+00    9.3     0.00657453     -1075.8765564599  2.63E-02
    96 Broy./Diag. 0.40E+00    9.4     0.00548122     -1075.8327262025  4.38E-02
    97 Broy./Diag. 0.40E+00    9.5     0.00386547     -1075.8467018075 -1.40E-02
    98 Broy./Diag. 0.40E+00    9.5     0.00288738     -1075.8757486923 -2.90E-02
    99 Broy./Diag. 0.40E+00    9.3     0.00220087     -1075.8596082284  1.61E-02
   100 Broy./Diag. 0.40E+00    9.5     0.00124595     -1075.8606780493 -1.07E-03
   101 Broy./Diag. 0.40E+00    9.5     0.99475350     -1075.8650004188 -4.32E-03
   102 Broy./Diag. 0.40E+00    9.3     1.00498630     -1077.4436208645 -1.58E+00
   103 Broy./Diag. 0.40E+00    9.1     0.04952309     -1075.8234749660  1.62E+00
   104 Broy./Diag. 0.40E+00    8.8     0.03325727     -1075.8647960063 -4.13E-02
   105 Broy./Diag. 0.40E+00    9.1     0.01130772     -1075.8497217015  1.51E-02
   106 Broy./Diag. 0.40E+00    9.6     0.00863088     -1075.8710689279 -2.13E-02
   107 Broy./Diag. 0.40E+00    9.5     0.00338219     -1075.8342781790  3.68E-02
   108 Broy./Diag. 0.40E+00    9.3     0.00249931     -1075.8792030850 -4.49E-02
   109 Broy./Diag. 0.40E+00    9.8     0.00475959     -1075.8619552169  1.72E-02
   110 Broy./Diag. 0.40E+00    9.5     1.69056548     -1075.8531474712  8.81E-03
   111 Broy./Diag. 0.40E+00    9.5     1.69525959     -1077.4556122226 -1.60E+00
   112 Broy./Diag. 0.40E+00    9.2     1.03835814     -1077.4603452246 -4.73E-03
   113 Broy./Diag. 0.40E+00    9.2     0.06049687     -1075.7819254487  1.68E+00
   114 Broy./Diag. 0.40E+00    9.4     0.05529684     -1075.6223598764  1.60E-01
   115 Broy./Diag. 0.40E+00    9.4     0.02017879     -1075.8382467593 -2.16E-01
   116 Broy./Diag. 0.40E+00    9.5     0.00982290     -1075.8600610697 -2.18E-02
   117 Broy./Diag. 0.40E+00    9.4     0.00706779     -1075.8274873958  3.26E-02
   118 Broy./Diag. 0.40E+00    9.6     0.00584608     -1075.8168648390  1.06E-02
   119 Broy./Diag. 0.40E+00    9.5     0.00583252     -1075.8715116273 -5.46E-02
   120 Broy./Diag. 0.40E+00    9.4     0.00441546     -1075.8498249178  2.17E-02
   121 Broy./Diag. 0.40E+00    9.5     1.69161329     -1075.8418016680  8.02E-03
   122 Broy./Diag. 0.40E+00    9.4     1.69586436     -1077.4206168240 -1.58E+00
   123 Broy./Diag. 0.40E+00    9.7     0.01014993     -1075.8529378892  1.57E+00
   124 Broy./Diag. 0.40E+00    9.5     0.00763826     -1075.9795031912 -1.27E-01
   125 Broy./Diag. 0.40E+00    9.6     0.98253532     -1075.8775369702  1.02E-01
   126 Broy./Diag. 0.40E+00    9.5     1.01821887     -1077.4805760031 -1.60E+00
   127 Broy./Diag. 0.40E+00    9.4     0.03938175     -1075.8121864954  1.67E+00
   128 Broy./Diag. 0.40E+00    9.3     0.05021877     -1075.6652369061  1.47E-01
   129 Broy./Diag. 0.40E+00    9.1     0.02266274     -1075.9490406850 -2.84E-01
   130 Broy./Diag. 0.40E+00    9.7     0.01168097     -1075.7912007369  1.58E-01
   131 Broy./Diag. 0.40E+00    9.5     0.00642107     -1075.8163086564 -2.51E-02
   132 Broy./Diag. 0.40E+00    9.4     0.00313886     -1075.8273565285 -1.10E-02
   133 Broy./Diag. 0.40E+00    9.6     0.00278588     -1075.8473365360 -2.00E-02
   134 Broy./Diag. 0.40E+00    9.4     0.00288997     -1075.8059926104  4.13E-02
   135 Broy./Diag. 0.40E+00    9.6     1.69079511     -1075.8404362258 -3.44E-02
   136 Broy./Diag. 0.40E+00    9.5     0.00981866     -1077.4656015190 -1.63E+00
   137 Broy./Diag. 0.40E+00    9.4     1.69331578     -1077.4592084836  6.39E-03
   138 Broy./Diag. 0.40E+00    9.3     1.03682609     -1077.4207846069  3.84E-02
   139 Broy./Diag. 0.40E+00    9.5     0.08964511     -1075.7468508265  1.67E+00
   140 Broy./Diag. 0.40E+00    9.2     0.08361231     -1075.5042491880  2.43E-01
   141 Broy./Diag. 0.40E+00    9.3     0.03417982     -1075.9452155017 -4.41E-01
   142 Broy./Diag. 0.40E+00    9.6     0.01788421     -1075.7178058484  2.27E-01
   143 Broy./Diag. 0.40E+00    9.6     0.01003134     -1075.8120286977 -9.42E-02
   144 Broy./Diag. 0.40E+00    9.5     0.00701003     -1075.8974685663 -8.54E-02
   145 Broy./Diag. 0.40E+00    9.5     0.00738432     -1075.8100760554  8.74E-02
   146 Broy./Diag. 0.40E+00    9.3     0.03492246     -1075.8561851665 -4.61E-02
   147 Broy./Diag. 0.40E+00    9.3     0.99799520     -1075.9519151165 -9.57E-02
   148 Broy./Diag. 0.40E+00    9.4     1.00594734     -1077.5285821444 -1.58E+00
   149 Broy./Diag. 0.40E+00    9.5     0.02671436     -1075.8468736572  1.68E+00
   150 Broy./Diag. 0.40E+00   10.0     0.02551925     -1075.8727273522 -2.59E-02
   151 Broy./Diag. 0.40E+00    9.7     0.01424128     -1075.9271998249 -5.45E-02
   152 Broy./Diag. 0.40E+00    9.4     0.01443337     -1075.8260053619  1.01E-01
   153 Broy./Diag. 0.40E+00    9.6     0.00722379     -1075.8949958595 -6.90E-02
   154 Broy./Diag. 0.40E+00    9.5     0.00461720     -1075.8845060033  1.05E-02
   155 Broy./Diag. 0.40E+00    9.5     0.00467875     -1075.8453671070  3.91E-02
   156 Broy./Diag. 0.40E+00    9.4     0.00262745     -1075.8750276558 -2.97E-02
   157 Broy./Diag. 0.40E+00    9.4     0.99378180     -1075.8750890117 -6.14E-05
   158 Broy./Diag. 0.40E+00    9.5     1.00096923     -1077.4282614571 -1.55E+00
   159 Broy./Diag. 0.40E+00    9.6     0.03098354     -1075.7939248692  1.63E+00
   160 Broy./Diag. 0.40E+00    9.5     0.02570157     -1075.9744335273 -1.81E-01
   161 Broy./Diag. 0.40E+00    9.3     0.00737432     -1075.8853261730  8.91E-02
   162 Broy./Diag. 0.40E+00    9.6     0.00332427     -1075.8310209904  5.43E-02
   163 Broy./Diag. 0.40E+00    9.3     0.00284518     -1075.8724658417 -4.14E-02
   164 Broy./Diag. 0.40E+00    9.5     0.00312740     -1075.8652674180  7.20E-03
   165 Broy./Diag. 0.40E+00    9.4     0.00300235     -1075.8651183656  1.49E-04
   166 Broy./Diag. 0.40E+00    9.4     1.69042010     -1075.8649013867  2.17E-04
   167 Broy./Diag. 0.40E+00    9.5     1.69374234     -1077.4685063620 -1.60E+00
   168 Broy./Diag. 0.40E+00    9.5     1.04221462     -1077.4678881061  6.18E-04
   169 Broy./Diag. 0.40E+00    9.3     0.05841202     -1075.6881212746  1.78E+00
   170 Broy./Diag. 0.40E+00    9.5     0.04655217     -1075.8346219937 -1.47E-01
   171 Broy./Diag. 0.40E+00    9.4     0.02128643     -1075.7893613703  4.53E-02
   172 Broy./Diag. 0.40E+00    9.7     0.01671366     -1075.7665646375  2.28E-02
   173 Broy./Diag. 0.40E+00    9.5     0.00952206     -1075.8023558281 -3.58E-02
   174 Broy./Diag. 0.40E+00    9.4     0.01190604     -1075.7970332119  5.32E-03
   175 Broy./Diag. 0.40E+00    9.3     0.01195831     -1075.7881704788  8.86E-03
   176 Broy./Diag. 0.40E+00    9.1     0.00740211     -1075.8277951837 -3.96E-02
   177 Broy./Diag. 0.40E+00    8.8     1.68981185     -1075.8522162849 -2.44E-02
   178 Broy./Diag. 0.40E+00    9.2     0.00809427     -1077.4273732883 -1.58E+00
   179 Broy./Diag. 0.40E+00    9.4     0.02330505     -1077.4189769780  8.40E-03
   180 Broy./Diag. 0.40E+00    9.1     1.69877289     -1077.3984925223  2.05E-02
   181 Broy./Diag. 0.40E+00    9.1     1.02369094     -1077.3473086376  5.12E-02
   182 Broy./Diag. 0.40E+00    9.6     0.08389238     -1075.6812689744  1.67E+00
   183 Broy./Diag. 0.40E+00    9.5     0.07014698     -1075.9834366525 -3.02E-01
   184 Broy./Diag. 0.40E+00    9.4     0.02297023     -1075.8236456413  1.60E-01
   185 Broy./Diag. 0.40E+00    9.5     0.03415315     -1075.8284862868 -4.84E-03
   186 Broy./Diag. 0.40E+00    9.5     0.01892092     -1075.7946633216  3.38E-02
   187 Broy./Diag. 0.40E+00    9.9     0.00664109     -1075.8433593640 -4.87E-02
   188 Broy./Diag. 0.40E+00    9.6     0.00410339     -1075.8652730480 -2.19E-02
   189 Broy./Diag. 0.40E+00    9.4     0.00400410     -1075.8576851808  7.59E-03
   190 Broy./Diag. 0.40E+00    9.3     1.69140002     -1075.8469259017  1.08E-02
   191 Broy./Diag. 0.40E+00    9.1     0.00734964     -1077.5030948808 -1.66E+00
   192 Broy./Diag. 0.40E+00    9.3     1.69223149     -1077.4904837691  1.26E-02
   193 Broy./Diag. 0.40E+00    9.5     1.03462077     -1077.5118375134 -2.14E-02
   194 Broy./Diag. 0.40E+00    9.5     0.05550811     -1075.7659663128  1.75E+00
   195 Broy./Diag. 0.40E+00    9.3     0.05775509     -1075.6303961728  1.36E-01
   196 Broy./Diag. 0.40E+00    9.0     0.03516846     -1075.8198059908 -1.89E-01
   197 Broy./Diag. 0.40E+00    9.5     0.02776636     -1075.7380190107  8.18E-02
   198 Broy./Diag. 0.40E+00    9.4     0.01204823     -1075.7515479625 -1.35E-02
   199 Broy./Diag. 0.40E+00    9.5     0.00646829     -1075.7936413755 -4.21E-02
   200 Broy./Diag. 0.40E+00    9.5     0.00505806     -1075.8029780849 -9.34E-03
   201 Broy./Diag. 0.40E+00    9.3     0.01760828     -1075.8089758518 -6.00E-03
   202 Broy./Diag. 0.40E+00    9.2     0.99845074     -1075.8241317165 -1.52E-02
   203 Broy./Diag. 0.40E+00    9.3     1.00294864     -1077.4139224544 -1.59E+00
   204 Broy./Diag. 0.40E+00    9.4     0.04018113     -1075.8422117103  1.57E+00
   205 Broy./Diag. 0.40E+00    9.4     0.02731915     -1075.7982934397  4.39E-02
   206 Broy./Diag. 0.40E+00    9.3     0.00784803     -1075.8712382527 -7.29E-02
   207 Broy./Diag. 0.40E+00    9.5     0.00637609     -1075.8574728617  1.38E-02
   208 Broy./Diag. 0.40E+00    9.4     0.00768755     -1075.8448542261  1.26E-02
   209 Broy./Diag. 0.40E+00    9.2     0.00650106     -1075.8913153484 -4.65E-02
   210 Broy./Diag. 0.40E+00    8.9     0.00189480     -1075.8776934365  1.36E-02
   211 Broy./Diag. 0.40E+00    9.3     0.00160804     -1075.8606984978  1.70E-02
   212 Broy./Diag. 0.40E+00    9.5     0.99379230     -1075.8691773452 -8.48E-03
   213 Broy./Diag. 0.40E+00    9.7     1.00447814     -1077.5267443882 -1.66E+00
   214 Broy./Diag. 0.40E+00    9.5     0.02728287     -1075.8701669081  1.66E+00
   215 Broy./Diag. 0.40E+00    9.3     0.01876303     -1075.7781300722  9.20E-02
   216 Broy./Diag. 0.40E+00    8.9     0.00974044     -1075.8473915734 -6.93E-02
   217 Broy./Diag. 0.40E+00    9.3     0.00522570     -1075.8786117945 -3.12E-02
   218 Broy./Diag. 0.40E+00    9.5     0.00297430     -1075.8543777620  2.42E-02
   219 Broy./Diag. 0.40E+00    9.6     0.00333900     -1075.8595911980 -5.21E-03
   220 Broy./Diag. 0.40E+00    9.4     0.00244148     -1075.8630947360 -3.50E-03
   221 Broy./Diag. 0.40E+00    9.5     0.00156152     -1075.8674089040 -4.31E-03
   222 Broy./Diag. 0.40E+00    9.5     1.69109952     -1075.8601808997  7.23E-03
   223 Broy./Diag. 0.40E+00    9.6     1.70418024     -1079.0174688809 -3.16E+00
   224 Broy./Diag. 0.40E+00    9.0     0.04575521     -1075.8047172606  3.21E+00
   225 Broy./Diag. 0.40E+00    9.3     0.02062310     -1075.8997422000 -9.50E-02
   226 Broy./Diag. 0.40E+00    9.3     0.00799940     -1075.8627305276  3.70E-02
   227 Broy./Diag. 0.40E+00    9.7     0.00594856     -1075.8776831087 -1.50E-02
   228 Broy./Diag. 0.40E+00    9.5     0.00307944     -1075.8490029265  2.87E-02
   229 Broy./Diag. 0.40E+00    9.7     0.00269921     -1075.8628186326 -1.38E-02
   230 Broy./Diag. 0.40E+00    9.3     0.00331325     -1075.8631696772 -3.51E-04
   231 Broy./Diag. 0.40E+00    9.6     0.00213646     -1075.8744458632 -1.13E-02
   232 Broy./Diag. 0.40E+00    9.6     0.98860338     -1075.8702211382  4.22E-03
   233 Broy./Diag. 0.40E+00    9.6     1.00251436     -1077.5461160261 -1.68E+00
   234 Broy./Diag. 0.40E+00    9.4     0.02958558     -1075.8333306598  1.71E+00
   235 Broy./Diag. 0.40E+00    9.4     0.02425337     -1075.9473451064 -1.14E-01
   236 Broy./Diag. 0.40E+00    9.5     0.00571248     -1075.8778203427  6.95E-02
   237 Broy./Diag. 0.40E+00    9.6     0.00466595     -1075.8519598908  2.59E-02
   238 Broy./Diag. 0.40E+00    9.6     0.00460509     -1075.8515153203  4.45E-04
   239 Broy./Diag. 0.40E+00    9.5     0.00131281     -1075.8648600552 -1.33E-02
   240 Broy./Diag. 0.40E+00    9.5     0.00266902     -1075.8615110011  3.35E-03
   241 Broy./Diag. 0.40E+00    9.6     0.00260138     -1075.8695567779 -8.05E-03
   242 Broy./Diag. 0.40E+00    9.3     1.69114212     -1075.8664740376  3.08E-03
   243 Broy./Diag. 0.40E+00    9.3     1.70816354     -1079.0781119799 -3.21E+00
   244 Broy./Diag. 0.40E+00    9.4     0.02144500     -1075.7042690281  3.37E+00
   245 Broy./Diag. 0.40E+00    9.7     0.01423758     -1076.0841108897 -3.80E-01
   246 Broy./Diag. 0.40E+00    9.4     0.01636818     -1075.8018596682  2.82E-01
   247 Broy./Diag. 0.40E+00    9.6     0.00801663     -1075.8050434954 -3.18E-03
   248 Broy./Diag. 0.40E+00    9.5     0.00281385     -1075.8224735900 -1.74E-02
   249 Broy./Diag. 0.40E+00    9.5     0.00186297     -1075.8489654716 -2.65E-02
   250 Broy./Diag. 0.40E+00    9.3     0.00180168     -1075.8327357158  1.62E-02
   251 Broy./Diag. 0.40E+00    9.1     0.00170368     -1075.8352898023 -2.55E-03
   252 Broy./Diag. 0.40E+00    9.1     0.99132474     -1075.8395813054 -4.29E-03
   253 Broy./Diag. 0.40E+00    9.3     1.00174702     -1077.5587288535 -1.72E+00
   254 Broy./Diag. 0.40E+00    9.6     0.02602709     -1075.8612031607  1.70E+00
   255 Broy./Diag. 0.40E+00    9.4     0.02503226     -1075.8136896108  4.75E-02
   256 Broy./Diag. 0.40E+00    9.4     0.00594951     -1075.8178748156 -4.19E-03
   257 Broy./Diag. 0.40E+00    9.6     0.00457906     -1075.9046923246 -8.68E-02
   258 Broy./Diag. 0.40E+00    9.7     0.00293365     -1075.8596216767  4.51E-02
   259 Broy./Diag. 0.40E+00    9.6     0.00170127     -1075.8567496148  2.87E-03
   260 Broy./Diag. 0.40E+00    9.3     0.00228551     -1075.8640924030 -7.34E-03
   261 Broy./Diag. 0.40E+00    9.2     0.00154267     -1075.8685664072 -4.47E-03
   262 Broy./Diag. 0.40E+00    9.8     1.69100647     -1075.8655823735  2.98E-03
   263 Broy./Diag. 0.40E+00    9.7     1.69652225     -1077.4383552297 -1.57E+00
   264 Broy./Diag. 0.40E+00    9.3     1.02025360     -1077.4204421177  1.79E-02
   265 Broy./Diag. 0.40E+00    9.4     0.07206596     -1075.8818115799  1.54E+00
   266 Broy./Diag. 0.40E+00    9.6     0.04788581     -1075.5083648571  3.73E-01
   267 Broy./Diag. 0.40E+00    9.3     0.01670283     -1075.9003714564 -3.92E-01
   268 Broy./Diag. 0.40E+00    9.5     0.01458921     -1075.8274093362  7.30E-02
   269 Broy./Diag. 0.40E+00    9.3     0.00657306     -1075.8389806633 -1.16E-02
   270 Broy./Diag. 0.40E+00    9.5     0.00363315     -1075.8660771507 -2.71E-02
   271 Broy./Diag. 0.40E+00    9.3     0.00204967     -1075.8669078822 -8.31E-04
   272 Broy./Diag. 0.40E+00    9.0     0.00177232     -1075.8563718636  1.05E-02
   273 Broy./Diag. 0.40E+00    9.0     1.69069122     -1075.8663941755 -1.00E-02
   274 Broy./Diag. 0.40E+00    9.1     1.69723507     -1077.5079647043 -1.64E+00
   275 Broy./Diag. 0.40E+00    9.5     1.02249491     -1077.4677578743  4.02E-02
   276 Broy./Diag. 0.40E+00    9.6     0.04269263     -1075.7531465313  1.71E+00
   277 Broy./Diag. 0.40E+00    9.4     0.03516613     -1075.7973896527 -4.42E-02
   278 Broy./Diag. 0.40E+00    9.3     0.01727141     -1075.8873954348 -9.00E-02
   279 Broy./Diag. 0.40E+00    9.5     0.01841463     -1075.7785484206  1.09E-01
   280 Broy./Diag. 0.40E+00    9.3     0.01254953     -1075.8327490742 -5.42E-02
   281 Broy./Diag. 0.40E+00    9.1     0.00563969     -1075.8451115997 -1.24E-02
   282 Broy./Diag. 0.40E+00    8.9     0.00334705     -1075.8509080457 -5.80E-03
   283 Broy./Diag. 0.40E+00    9.0     0.00260639     -1075.8600531618 -9.15E-03
   284 Broy./Diag. 0.40E+00    9.0     1.69165423     -1075.8413150070  1.87E-02
   285 Broy./Diag. 0.40E+00    9.3     0.02565462     -1077.4557481410 -1.61E+00
   286 Broy./Diag. 0.40E+00    9.3     1.69617938     -1077.4581106143 -2.36E-03
   287 Broy./Diag. 0.40E+00    9.3     1.03387569     -1077.4012963101  5.68E-02
   288 Broy./Diag. 0.40E+00    9.5     0.07164599     -1075.7246185287  1.68E+00
   289 Broy./Diag. 0.40E+00    9.5     0.05749297     -1075.6518585998  7.28E-02
   290 Broy./Diag. 0.40E+00    9.6     0.03170305     -1075.8432563940 -1.91E-01
   291 Broy./Diag. 0.40E+00    9.5     0.02940648     -1075.8161374430  2.71E-02
   292 Broy./Diag. 0.40E+00   10.1     0.00999124     -1075.7515583177  6.46E-02
   293 Broy./Diag. 0.40E+00    9.3     0.00786339     -1075.7703677524 -1.88E-02
   294 Broy./Diag. 0.40E+00    9.1     0.00558754     -1075.8684961255 -9.81E-02
   295 Broy./Diag. 0.40E+00    9.5     0.02104276     -1075.7992947924  6.92E-02
   296 Broy./Diag. 0.40E+00    9.3     1.17817741     -1075.8473779901 -4.81E-02
   297 Broy./Diag. 0.40E+00    9.0     1.18899820     -1077.4898566422 -1.64E+00
   298 Broy./Diag. 0.40E+00    9.6     0.98434101     -1075.8732310538  1.62E+00
   299 Broy./Diag. 0.40E+00    9.5     1.00532893     -1077.6695470202 -1.80E+00
   300 Broy./Diag. 0.40E+00    9.3     0.06371252     -1075.9702451291  1.70E+00

  Leaving inner SCF loop after reaching   300 steps.


  Electronic density on regular grids:       -512.0001835246       -0.0001835246
  Core density on regular grids:              511.9999962130       -0.0000037870
  Total charge density on r-space grids:       -0.0001873116
  Total charge density g-space grids:          -0.0001873116

  Overlap energy of the core charge distribution:               0.00000000000000
  Self energy of the core charge distribution:              -2838.21791979120962
  Core Hamiltonian energy:                                    759.72783591369421
  Hartree energy:                                            1241.03578152876776
  Exchange-correlation energy:                               -238.51594278030598

  Total energy:                                             -1075.97024512905386

 *** WARNING in qs_scf.F:542 :: SCF run NOT converged ***


 ENERGY| Total FORCE_EVAL ( QS ) energy (a.u.):            -1075.891569921290511


 ATOMIC FORCES in [a.u.]

 # Atom   Kind   Element          X              Y              Z
      1      1      O          -0.00975185     0.05298168    -0.02339087
      2      2      H          -0.00752738    -0.04956266    -0.07874831
      3      2      H           0.03585830     0.02167925     0.04408601
      4      1      O           0.04810274     0.00081331    -0.05299184
      5      2      H          -0.06319362    -0.01913525    -0.04263059
      6      2      H          -0.01814016     0.03747369     0.07479598
      7      1      O          -0.00163288    -0.06086354     0.01227523
      8      2      H          -0.07784306    -0.03491955    -0.03920251
      9      2      H           0.03884892     0.07750080     0.00965953
     10      1      O          -0.01572009    -0.02793779    -0.08039351
     11      2      H          -0.04036505     0.02640378     0.03769885
     12      2      H           0.00742502    -0.01608981    -0.00440489
     13      1      O          -0.00791901    -0.00966022    -0.07449086
     14      2      H          -0.01131213    -0.03340506    -0.05471642
     15      2      H          -0.08235396    -0.00376464     0.07484955
     16      1      O           0.03143914    -0.02735836    -0.08079522
     17      2      H           0.00877631     0.06880129     0.02699678
     18      2      H          -0.00765847    -0.02798260    -0.01664936
     19      1      O           0.01552734    -0.01030802    -0.05744949
     20      2      H          -0.06668043    -0.02437950    -0.02422437
     21      2      H          -0.01792557     0.04800199     0.01872504
     22      1      O           0.00180374     0.04542215    -0.08880622
     23      2      H          -0.03380931     0.03923219     0.02994127
     24      2      H          -0.05809690    -0.08836536     0.07630794
     25      1      O           0.07712801    -0.01118271     0.00615873
     26      2      H          -0.03361380    -0.05402375    -0.00883174
     27      2      H          -0.01617111     0.03658894    -0.02892824
     28      1      O           0.07854892     0.00196654     0.05611583
     29      2      H          -0.07629241    -0.01270274     0.02052924
     30      2      H           0.03999285     0.03330597    -0.04855669
     31      1      O          -0.03448977    -0.05611517    -0.06476314
     32      2      H           0.03859749     0.05939444     0.06041957
     33      2      H          -0.02994147    -0.05727553     0.07567633
     34      1      O          -0.05344410    -0.01358640    -0.07934320
     35      2      H          -0.02194903     0.05967776     0.05945943
     36      2      H          -0.03303615    -0.08405583     0.02000272
     37      1      O          -0.09227936    -0.14268459    -0.01581148
     38      2      H           0.00438733     0.08035774     0.01125707
     39      2      H           0.06702617     0.04750971    -0.02005159
     40      1      O           0.10039934    -0.07466580     0.00528140
     41      2      H           0.01343582     0.04514007     0.09939486
     42      2      H          -0.06210215     0.02396238    -0.05870100
     43      1      O           0.02645648    -0.06476544     0.04234069
     44      2      H          -0.07739326    -0.03476667    -0.01970390
     45      2      H          -0.00919001     0.09838132     0.03000812
     46      1      O          -0.05437337    -0.02936891    -0.07590903
     47      2      H          -0.05829967    -0.00905239     0.06423800
     48      2      H           0.08114248    -0.02350571     0.02751542
     49      1      O           0.07050373    -0.00625514    -0.03652825
     50      2      H           0.04580363    -0.00739318     0.02363386
     51      2      H          -0.07417729    -0.06588020    -0.01316601
     52      1      O          -0.07263820    -0.11630294     0.03419265
     53      2      H          -0.02748190     0.00662163    -0.07056648
     54      2      H           0.03554165     0.09772032     0.00543089
     55      1      O           0.05258232    -0.02078037    -0.08755165
     56      2      H          -0.05199555    -0.01034505     0.00188076
     57      2      H           0.05352071    -0.01312116     0.03692201
     58      1      O          -0.02516740    -0.07281344     0.00823341
     59      2      H           0.06794154    -0.00630986    -0.03430496
     60      2      H           0.01851333    -0.02801088     0.05228649
     61      1      O          -0.04676221    -0.08312187     0.07447443
     62      2      H           0.02682416     0.08125609    -0.02634546
     63      2      H          -0.02159485    -0.02303919    -0.09684810
     64      1      O           0.08733630     0.09803358    -0.11062423
     65      2      H           0.01191970    -0.00718291     0.05765370
     66      2      H          -0.08920632     0.01285933     0.01487727
     67      1      O           0.04012288     0.00534828    -0.14759049
     68      2      H           0.01490204     0.09524028     0.04658912
     69      2      H          -0.01270150    -0.02638781     0.09739446
     70      1      O           0.00123560     0.02181142     0.06652416
     71      2      H           0.03543410     0.00824301    -0.09517837
     72      2      H          -0.03790755     0.04188822    -0.02215119
     73      1      O           0.07381920     0.04415341    -0.04016461
     74      2      H           0.02619124    -0.01702866     0.04734496
     75      2      H          -0.09687137     0.01691658    -0.05437136
     76      1      O           0.04022764     0.02586909     0.12833821
     77      2      H           0.08424549     0.04538143    -0.03172281
     78      2      H          -0.04641662     0.00036518    -0.01087781
     79      1      O           0.02075407     0.10666621     0.00368238
     80      2      H           0.05494619    -0.02056011     0.02715046
     81      2      H          -0.02373142    -0.03653908    -0.08634760
     82      1      O          -0.04311371    -0.11860238     0.02571694
     83      2      H          -0.05408388     0.00113147    -0.03083743
     84      2      H           0.10989339     0.07468653     0.00089339
     85      1      O          -0.02374233    -0.00854590    -0.02824934
     86      2      H          -0.03197961    -0.04556562     0.06652611
     87      2      H          -0.05063306     0.05946118     0.04052274
     88      1      O           0.05331874    -0.13525526     0.01528689
     89      2      H           0.07126349     0.04740552     0.03543044
     90      2      H          -0.01927072     0.03935440    -0.03780235
     91      1      O           0.03594272    -0.10498065    -0.00093424
     92      2      H          -0.02633217     0.08331096    -0.04970256
     93      2      H           0.02156600    -0.01657215     0.05521004
     94      1      O          -0.10237037     0.00037885     0.02037809
     95      2      H           0.03018331     0.04077631    -0.02617328
     96      2      H           0.03503488    -0.04117988    -0.06281519
     97      1      O           0.07392361    -0.03207567     0.02323021
     98      2      H          -0.03376035     0.03046388     0.08079119
     99      2      H          -0.03836401     0.03043767    -0.02259929
    100      1      O           0.00930882    -0.09628225    -0.00063969
    101      2      H           0.00359830     0.02167312    -0.05404378
    102      2      H           0.03070827     0.04949820     0.03009367
    103      1      O          -0.07596117    -0.04778389    -0.07338607
    104      2      H          -0.04402579     0.03312803     0.07136725
    105      2      H           0.05698857     0.01950696    -0.01678935
    106      1      O           0.00822390     0.01519101    -0.08126169
    107      2      H          -0.03515927     0.00424288    -0.03084633
    108      2      H           0.02371300    -0.03368074     0.06100288
    109      1      O          -0.05438925    -0.01244997    -0.04843577
    110      2      H          -0.04306741     0.08500533     0.02166090
    111      2      H           0.04950261    -0.05994086     0.00608968
    112      1      O           0.01795690     0.02454861     0.12573619
    113      2      H           0.02157236     0.04745897    -0.07849535
    114      2      H          -0.09900888    -0.04326955    -0.02439197
    115      1      O          -0.03553386    -0.04311336    -0.00979843
    116      2      H           0.01544289     0.06196855    -0.00453526
    117      2      H           0.04610201    -0.02146790     0.05002205
    118      1      O           0.07198349     0.02213119    -0.12521607
    119      2      H          -0.05368045     0.04692055     0.01869369
    120      2      H           0.04643780     0.02683402     0.07770360
    121      1      O          -0.04967360     0.04667976     0.01423806
    122      2      H           0.05435263    -0.04306021    -0.03003516
    123      2      H          -0.00190947     0.04205510     0.06426661
    124      1      O           0.01401315    -0.07848666    -0.05234146
    125      2      H           0.00624289    -0.01578482     0.10261003
    126      2      H           0.01155660     0.02842613    -0.06180402
    127      1      O           0.10393115    -0.06832086    -0.01388887
    128      2      H          -0.10099724     0.02388946    -0.03258264
    129      2      H           0.00973779    -0.02508445     0.08761953
    130      1      O           0.00990131    -0.13047809    -0.00910883
    131      2      H          -0.05830634     0.05184554    -0.02057283
    132      2      H           0.07033865     0.01304068    -0.03623860
    133      1      O          -0.11778060     0.08526297     0.03990668
    134      2      H           0.03253972    -0.06941751     0.01141747
    135      2      H           0.06678725     0.05509417    -0.06730203
    136      1      O           0.08707867     0.00577181    -0.01705939
    137      2      H          -0.02609501     0.02128081     0.03746024
    138      2      H          -0.00555703    -0.01009372    -0.08029611
    139      1      O           0.07081032     0.02231843     0.09368801
    140      2      H           0.01760279    -0.02921926    -0.07411904
    141      2      H          -0.01692172     0.05181044     0.03687934
    142      1      O          -0.00373471     0.05265248    -0.07906214
    143      2      H           0.01324082    -0.07404991     0.00739600
    144      2      H          -0.00328911     0.05854592     0.06147022
    145      1      O           0.06305080    -0.01536779     0.11556948
    146      2      H          -0.09223138     0.07145795     0.00904177
    147      2      H           0.06372310    -0.00874907    -0.04751861
    148      1      O           0.03045332    -0.08681007    -0.08046600
    149      2      H           0.03935105     0.03454964    -0.01905714
    150      2      H          -0.02977644     0.03498787     0.00289950
    151      1      O           0.01347870     0.02904841     0.01784189
    152      2      H          -0.02093136    -0.05290303     0.02483381
    153      2      H           0.08528585    -0.02433222     0.00338016
    154      1      O           0.10545092    -0.01893565     0.00416421
    155      2      H          -0.05574160     0.05651627    -0.01850278
    156      2      H           0.02560827     0.01474900     0.08080862
    157      1      O          -0.00437752    -0.04655763    -0.03608429
    158      2      H           0.10056897     0.00629043     0.04203235
    159      2      H          -0.02495035    -0.00096987     0.05626522
    160      1      O          -0.06849226    -0.01247252     0.10090384
    161      2      H          -0.03340631    -0.02276136    -0.04237418
    162      2      H           0.08025671     0.02989592    -0.02752556
    163      1      O          -0.11209042    -0.09404015    -0.08138351
    164      2      H           0.01123367     0.05586897    -0.01125406
    165      2      H           0.02340989     0.00327771     0.07466059
    166      1      O           0.07455258    -0.00881178     0.04623984
    167      2      H           0.01146594     0.04861697    -0.01970742
    168      2      H          -0.02987781    -0.02268847    -0.05823483
    169      1      O          -0.00466423     0.03195836     0.08827762
    170      2      H           0.00809434     0.05506145    -0.06573407
    171      2      H          -0.06666893    -0.07360604     0.03679410
    172      1      O          -0.07419665    -0.00555872     0.02900086
    173      2      H          -0.03960424     0.05594730    -0.04235955
    174      2      H           0.02349338    -0.09408580     0.04600915
    175      1      O           0.03261109    -0.06313155    -0.04229817
    176      2      H          -0.00927028     0.09497000     0.02606164
    177      2      H          -0.04476060    -0.05042659     0.08189747
    178      1      O           0.06132522    -0.06276827     0.03227061
    179      2      H           0.00655187    -0.06027850    -0.07604412
    180      2      H          -0.01863704     0.06146147     0.03230233
    181      1      O           0.05880203     0.02067879    -0.10931479
    182      2      H          -0.03901226    -0.09576302     0.04821274
    183      2      H           0.03409188     0.05547167     0.03941516
    184      1      O          -0.11362025    -0.11652896    -0.00048773
    185      2      H           0.04359469     0.04630187    -0.05365647
    186      2      H           0.01814934     0.02092660     0.03732563
    187      1      O           0.01052171    -0.04986639    -0.01310451
    188      2      H          -0.09007530    -0.01959717     0.00707507
    189      2      H           0.00993905     0.05394562    -0.01820688
    190      1      O           0.06064186    -0.09251266     0.00560321
    191      2      H          -0.02394109     0.01524275     0.05759408
    192      2      H          -0.00129085    -0.00428975    -0.06981031
 SUM OF ATOMIC FORCES           0.02825098    -0.33674839    -0.17819146     0.38203375

 -------------------------------------------------------------------------------
 -                                                                             -
 -                                DBCSR STATISTICS                             -
 -                                                                             -
 -------------------------------------------------------------------------------
 COUNTER                                    TOTAL       BLAS       SMM       ACC
 flops     5 x     5 x   256           5085696000       0.0%    100.0%      0.0%
 flops     5 x    13 x   256           6040419840       0.0%    100.0%      0.0%
 flops    13 x     5 x   256           6130575360       0.0%    100.0%      0.0%
 flops    13 x    13 x   256           7709298688       0.0%    100.0%      0.0%
 flops inhomo. stacks                           0       0.0%      0.0%      0.0%
 flops total                        24.965990E+09       0.0%    100.0%      0.0%
 flops max/rank                     24.965990E+09       0.0%    100.0%      0.0%
 matmuls inhomo. stacks                         0       0.0%      0.0%      0.0%
 matmuls total                             852131       0.0%    100.0%      0.0%
 number of processed stacks                 42140       0.0%    100.0%      0.0%
 average stack size                                     0.0      20.2       0.0
 marketing flops                   333.927416E+09
 -------------------------------------------------------------------------------
 # multiplications                            301
 max memory usage/rank               4.992885E+09
 # max total images/rank                        1
 # max 3D layers                                1
 # MPI messages exchanged                       0
 MPI messages size (bytes):
  total size                         0.000000E+00
  min size                           0.000000E+00
  max size                           0.000000E+00
  average size                       0.000000E+00
 MPI breakdown and total messages size (bytes):
             size <=      128                   0                        0
       128 < size <=     8192                   0                        0
      8192 < size <=    32768                   0                        0
     32768 < size <=   131072                   0                        0
    131072 < size <=  4194304                   0                        0
   4194304 < size <= 16777216                   0                        0
  16777216 < size                               0                        0
 -------------------------------------------------------------------------------

 MEMORY| Estimated peak process memory [MiB]                                4756

 -------------------------------------------------------------------------------
 -                                                                             -
 -                           R E F E R E N C E S                               -
 -                                                                             -
 -------------------------------------------------------------------------------
 
 CP2K version 7.1, the CP2K developers group (2019).
 CP2K is freely available from https://www.cp2k.org/ .

 Schuett, Ole; Messmer, Peter; Hutter, Juerg; VandeVondele, Joost. 
 Electronic Structure Calculations on Graphics Processing Units, John
 Wiley & Sons, Ltd, 173-190 (2016). 
 GPU-Accelerated Sparse Matrix-Matrix Multiplication for
 Linear Scaling Density Functional Theory.
 https://dx.doi.org/10.1002/9781118670712.ch8

 Borstnik, U; VandeVondele, J; Weber, V; Hutter, J. 
 PARALLEL COMPUTING, 40 (5-6), 47-58 (2014). 
 Sparse matrix multiplication: The distributed block-compressed sparse
 row library.
 https://dx.doi.org/10.1016/j.parco.2014.03.012

 Hutter, J; Iannuzzi, M; Schiffmann, F; VandeVondele, J. 
 WIREs Comput Mol Sci., 4 (1), 15-25 (2014). 
 CP2K: atomistic simulations of condensed matter systems.
 https://dx.doi.org/10.1002/wcms.1159

 Krack, M. 
 THEORETICAL CHEMISTRY ACCOUNTS, 114 (1-3), 145-152 (2005). 
 Pseudopotentials for H to Kr optimized for gradient-corrected
 exchange-correlation functionals.
 https://dx.doi.org/10.1007/s00214-005-0655-y

 VandeVondele, J; Krack, M; Mohamed, F; Parrinello, M; Chassaing, T;
 Hutter, J. COMPUTER PHYSICS COMMUNICATIONS, 167 (2), 103-128 (2005). 
 QUICKSTEP: Fast and accurate density functional calculations using a
 mixed Gaussian and plane waves approach.
 https://dx.doi.org/10.1016/j.cpc.2004.12.014

 Frigo, M; Johnson, SG. 
 PROCEEDINGS OF THE IEEE, 93 (2), 216-231 (2005). 
 The design and implementation of FFTW3.
 https://dx.doi.org/10.1109/JPROC.2004.840301

 Hartwigsen, C; Goedecker, S; Hutter, J. 
 PHYSICAL REVIEW B, 58 (7), 3641-3662 (1998). 
 Relativistic separable dual-space Gaussian pseudopotentials from H to Rn.
 https://dx.doi.org/10.1103/PhysRevB.58.3641

 Lippert, G; Hutter, J; Parrinello, M. 
 MOLECULAR PHYSICS, 92 (3), 477-487 (1997). 
 A hybrid Gaussian and plane wave density functional scheme.
 https://dx.doi.org/10.1080/002689797170220

 Goedecker, S; Teter, M; Hutter, J. 
 PHYSICAL REVIEW B, 54 (3), 1703-1710 (1996). 
 Separable dual-space Gaussian pseudopotentials.
 https://dx.doi.org/10.1103/PhysRevB.54.1703


 -------------------------------------------------------------------------------
 -                                                                             -
 -                                T I M I N G                                  -
 -                                                                             -
 -------------------------------------------------------------------------------
 SUBROUTINE                       CALLS  ASD         SELF TIME        TOTAL TIME
                                MAXIMUM       AVERAGE  MAXIMUM  AVERAGE  MAXIMUM
 CP2K                                 1  1.0    0.179    0.179 2815.162 2815.162
 qs_forces                            1  2.0    0.000    0.000 2813.080 2813.080
 qs_energies                          1  3.0    0.000    0.000 2812.392 2812.392
 scf_env_do_scf                       1  4.0    0.000    0.000 2810.014 2810.014
 scf_env_do_scf_inner_loop          300  5.0    0.067    0.067 2810.014 2810.014
 qs_scf_new_mos                     300  6.0    0.010    0.010 1980.356 1980.356
 eigensolver                        300  7.0    0.057    0.057 1947.457 1947.457
 cp_fm_syevd                        300  8.0 1268.896 1268.896 1270.627 1270.627
 cp_fm_cholesky_restore             900  8.0  675.722  675.722  675.722  675.722
 gspace_mixing                      299  6.0    6.758    6.758  461.048  461.048
 broyden_mixing                     299  7.0  417.157  417.157  417.159  417.159
 rebuild_ks_matrix                  301  7.0    0.001    0.001  186.906  186.906
 qs_ks_build_kohn_sham_matrix       301  8.0    0.072    0.072  186.905  186.905
 qs_ks_update_qs_env                300  6.0    0.003    0.003  186.681  186.681
 qs_rho_update_rho                  301  6.0    0.003    0.003  180.932  180.932
 calculate_rho_elec                 301  7.0   89.832   89.832  180.929  180.929
 pw_transfer                       3912  9.9    0.320    0.320  179.142  179.142
 fft_wrap_pw1pw2                   3310 10.9    0.035    0.035  174.036  174.036
 fft_wrap_pw1pw2_70                1504 11.2   18.392   18.392  161.457  161.457
 density_rs2pw                      301  8.0    0.026    0.026   88.495   88.495
 fft3d_s                           3311 12.9   80.621   80.621   80.646   80.646
 pw_scatter_s                      1804 13.2   59.881   59.881   59.881   59.881
 pw_poisson_solve                   301  9.0   53.859   53.859   58.752   58.752
 -------------------------------------------------------------------------------

 The number of warnings for this run is : 1
 
 -------------------------------------------------------------------------------
  **** **** ******  **  PROGRAM ENDED AT                 2021-02-20 20:23:41.350
 ***** ** ***  *** **   PROGRAM RAN ON                                   gnode68
 **    ****   ******    PROGRAM RAN BY                               mayank.modi
 ***** **    ** ** **   PROGRAM PROCESS ID                                 36354
  **** **  *******  **  PROGRAM STOPPED IN /home/mayank.modi/ab-initio-thermodyn
                                           amics-of-water/mayank/cp2k_energy_cal
                                           culations
