 DBCSR| CPU Multiplication driver                                           XSMM
 DBCSR| Multrec recursion limit                                              512
 DBCSR| Multiplication stack size                                           1000
 DBCSR| Maximum elements for images                                    UNLIMITED
 DBCSR| Multiplicative factor virtual images                                   1
 DBCSR| Use multiplication densification                                       T
 DBCSR| Multiplication size stacks                                             3


  **** **** ******  **  PROGRAM STARTED AT               2021-02-26 16:01:37.092
 ***** ** ***  *** **   PROGRAM STARTED ON                               gnode75
 **    ****   ******    PROGRAM STARTED BY                           mayank.modi
 ***** **    ** ** **   PROGRAM PROCESS ID                                  1914
  **** **  *******  **  PROGRAM STARTED IN /home/mayank.modi/ab-initio-thermodyn
                                           amics-of-water/mayank/cp2k_energy_cal
                                           culations

 CP2K| version string:                                          CP2K version 7.1
 CP2K| source code revision number:                                  git:e635599
 CP2K| cp2kflags: omp libint fftw3 libxc xsmm spglib                            
 CP2K| is freely available from                            https://www.cp2k.org/
 CP2K| Program compiled at                          Mon Dec 23 19:23:12 CET 2019
 CP2K| Program compiled on                                                pc9404
 CP2K| Program compiled for                                Linux-x86-64-gfortran
 CP2K| Data directory path                                        /opt/cp2k/data
 CP2K| Input file name                   input_training_correct_cell/input361.in

 GLOBAL| Force Environment number                                              1
 GLOBAL| Basis set file name                                           BASIS_SET
 GLOBAL| Potential file name                                      GTH_POTENTIALS
 GLOBAL| MM Potential file name                                     MM_POTENTIAL
 GLOBAL| Coordinate file name                                      __STD_INPUT__
 GLOBAL| Method name                                                        CP2K
 GLOBAL| Project name                                                   H2O_bulk
 GLOBAL| Preferred FFT library                                             FFTW3
 GLOBAL| Preferred diagonalization lib.                                       SL
 GLOBAL| Run type                                                   ENERGY_FORCE
 GLOBAL| All-to-all communication in single precision                          F
 GLOBAL| FFTs using library dependent lengths                                  F
 GLOBAL| Global print level                                                  LOW
 GLOBAL| MPI I/O enabled                                                       T
 GLOBAL| Total number of message passing processes                             1
 GLOBAL| Number of threads for this process                                   36
 GLOBAL| This output is from process                                           0
 GLOBAL| CPU model name                Intel(R) Xeon(R) CPU E5-2640 v4 @ 2.40GHz
 GLOBAL| CPUID                                                              1002
 GLOBAL| Compiled for CPUID                                                    0

 MEMORY| system memory details [Kb]
 MEMORY|                        rank 0           min           max       average
 MEMORY| MemTotal            131893432     131893432     131893432     131893432
 MEMORY| MemFree             123191924     123191924     123191924     123191924
 MEMORY| Buffers               1045156       1045156       1045156       1045156
 MEMORY| Cached                6255908       6255908       6255908       6255908
 MEMORY| Slab                   959680        959680        959680        959680
 MEMORY| SReclaimable           704736        704736        704736        704736
 MEMORY| MemLikelyFree       131197724     131197724     131197724     131197724


 GENERATE|  Preliminary Number of Bonds generated:                             0
 GENERATE|  Achieved consistency in connectivity generation.

 *******************************************************************************
 *******************************************************************************
 **                                                                           **
 **     #####                         ##              ##                      **
 **    ##   ##            ##          ##              ##                      **
 **   ##     ##                       ##            ######                    **
 **   ##     ##  ##   ##  ##   #####  ##  ##   ####   ##    #####    #####    **
 **   ##     ##  ##   ##  ##  ##      ## ##   ##      ##   ##   ##  ##   ##   **
 **   ##  ## ##  ##   ##  ##  ##      ####     ###    ##   ######   ######    **
 **    ##  ###   ##   ##  ##  ##      ## ##      ##   ##   ##       ##        **
 **     #######   #####   ##   #####  ##  ##  ####    ##    #####   ##        **
 **           ##                                                    ##        **
 **                                                                           **
 **                                                ... make the atoms dance   **
 **                                                                           **
 **            Copyright (C) by CP2K developers group (2000 - 2019)           **
 **                                                                           **
 *******************************************************************************


 TOTAL NUMBERS AND MAXIMUM NUMBERS

  Total number of            - Atomic kinds:                                   2
                             - Atoms:                                        192
                             - Shell sets:                                   384
                             - Shells:                                       704
                             - Primitive Cartesian functions:                960
                             - Cartesian basis functions:                   1536
                             - Spherical basis functions:                   1472

  Maximum angular momentum of- Orbital basis functions:                        2
                             - Local part of the GTH pseudopotential:          2
                             - Non-local part of the GTH pseudopotential:      0


 SCF PARAMETERS         Density guess:                                    ATOMIC
                        --------------------------------------------------------
                        max_scf:                                             300
                        max_scf_history:                                       0
                        max_diis:                                              4
                        --------------------------------------------------------
                        eps_scf:                                        1.00E-07
                        eps_scf_history:                                0.00E+00
                        eps_diis:                                       1.00E-01
                        eps_eigval:                                     1.00E-05
                        --------------------------------------------------------
                        level_shift [a.u.]:                                 0.00
                        --------------------------------------------------------
                        Mixing method:                            BROYDEN_MIXING
                                                charge density mixing in g-space
                        --------------------------------------------------------
                        No outer SCF

 Number of electrons:                                                        512
 Number of occupied orbitals:                                                256
 Number of molecular orbitals:                                               256

 Number of orbital functions:                                               1472
 Number of independent orbital functions:                                   1472

 Extrapolation method: initial_guess


 SCF WAVEFUNCTION OPTIMIZATION

  Step     Update method      Time    Convergence         Total energy    Change
  ------------------------------------------------------------------------------
     1 NoMix/Diag. 0.40E+00    7.1     0.65865699     -1064.2785710655 -1.06E+03
     2 Broy./Diag. 0.40E+00    7.7     1.95153216      -997.5114911687  6.68E+01
     3 Broy./Diag. 0.40E+00    7.9     1.97707157     -1258.0773908982 -2.61E+02
     4 Broy./Diag. 0.40E+00    8.1     1.87751146     -1112.0027661087  1.46E+02
     5 Broy./Diag. 0.40E+00    8.1     1.70860529     -1097.1751329782  1.48E+01
     6 Broy./Diag. 0.40E+00    8.7     1.91035803     -1094.6373841079  2.54E+00
     7 Broy./Diag. 0.40E+00    8.9     1.93021693     -1091.4732994692  3.16E+00
     8 Broy./Diag. 0.40E+00    9.1     1.79595248     -1086.1868154598  5.29E+00
     9 Broy./Diag. 0.40E+00    9.1     1.81835333     -1082.4014894358  3.79E+00
    10 Broy./Diag. 0.40E+00    9.4     1.41031726     -1075.5722312456  6.83E+00
    11 Broy./Diag. 0.40E+00    9.6     1.49424271     -1077.0516764296 -1.48E+00
    12 Broy./Diag. 0.40E+00    9.7     1.42030789     -1075.6590839178  1.39E+00
    13 Broy./Diag. 0.40E+00    9.3     0.85755059     -1069.2885120289  6.37E+00
    14 Broy./Diag. 0.40E+00    9.5     0.83859271     -1071.7044369188 -2.42E+00
    15 Broy./Diag. 0.40E+00    9.5     1.77073619     -1075.3552408736 -3.65E+00
    16 Broy./Diag. 0.40E+00    9.5     1.79125386     -1078.5962839893 -3.24E+00
    17 Broy./Diag. 0.40E+00    9.4     1.82369261     -1081.5071898364 -2.91E+00
    18 Broy./Diag. 0.40E+00    9.5     1.07274417     -1074.8980504919  6.61E+00
    19 Broy./Diag. 0.40E+00    9.4     1.39422583     -1077.5954415372 -2.70E+00
    20 Broy./Diag. 0.40E+00    9.7     1.39554028     -1078.1478102508 -5.52E-01
    21 Broy./Diag. 0.40E+00    9.3     0.99290671     -1078.4359667433 -2.88E-01
    22 Broy./Diag. 0.40E+00    9.3     1.05486886     -1076.5130689039  1.92E+00
    23 Broy./Diag. 0.40E+00    9.4     0.93874164     -1075.5861179636  9.27E-01
    24 Broy./Diag. 0.40E+00    9.2     1.60154704     -1076.1376230358 -5.52E-01
    25 Broy./Diag. 0.40E+00    9.2     1.63683714     -1077.9636271175 -1.83E+00
    26 Broy./Diag. 0.40E+00    9.4     1.48902632     -1078.3066945873 -3.43E-01
    27 Broy./Diag. 0.40E+00    9.4     1.78165856     -1074.6547691747  3.65E+00
    28 Broy./Diag. 0.40E+00    9.4     1.80234912     -1079.0660864725 -4.41E+00
    29 Broy./Diag. 0.40E+00    9.2     1.83171822     -1078.5336808693  5.32E-01
    30 Broy./Diag. 0.40E+00    9.5     1.83154804     -1073.9560660389  4.58E+00
    31 Broy./Diag. 0.40E+00    9.4     1.83097719     -1078.9068271170 -4.95E+00
    32 Broy./Diag. 0.40E+00    9.6     1.04995835     -1076.2090335999  2.70E+00
    33 Broy./Diag. 0.40E+00    9.5     1.34600958     -1076.0608125683  1.48E-01
    34 Broy./Diag. 0.40E+00    9.2     1.57944561     -1076.6706334740 -6.10E-01
    35 Broy./Diag. 0.40E+00    9.5     1.62828340     -1076.5360206401  1.35E-01
    36 Broy./Diag. 0.40E+00    9.6     1.41393842     -1074.7059564872  1.83E+00
    37 Broy./Diag. 0.40E+00    9.3     1.16647912     -1075.5881028848 -8.82E-01
    38 Broy./Diag. 0.40E+00    9.4     1.77140853     -1076.4289929401 -8.41E-01
    39 Broy./Diag. 0.40E+00    9.3     1.71858536     -1077.1058382296 -6.77E-01
    40 Broy./Diag. 0.40E+00    9.2     1.43731790     -1077.2240508391 -1.18E-01
    41 Broy./Diag. 0.40E+00    9.1     1.33488611     -1076.4639621417  7.60E-01
    42 Broy./Diag. 0.40E+00    9.4     1.41993727     -1074.8691704419  1.59E+00
    43 Broy./Diag. 0.40E+00    9.5     1.46300986     -1078.5092995834 -3.64E+00
    44 Broy./Diag. 0.40E+00    9.4     1.83203794     -1078.0014056478  5.08E-01
    45 Broy./Diag. 0.40E+00    9.7     1.61678176     -1078.8429108524 -8.42E-01
    46 Broy./Diag. 0.40E+00    9.5     1.80945409     -1078.3854356682  4.57E-01
    47 Broy./Diag. 0.40E+00    9.2     1.02674415     -1074.3338622993  4.05E+00
    48 Broy./Diag. 0.40E+00    9.2     1.40969588     -1077.0368901299 -2.70E+00
    49 Broy./Diag. 0.40E+00    9.5     1.27826055     -1076.8374168472  1.99E-01
    50 Broy./Diag. 0.40E+00    9.4     1.23100039     -1076.6458493441  1.92E-01
    51 Broy./Diag. 0.40E+00    9.4     1.15982022     -1076.8289281662 -1.83E-01
    52 Broy./Diag. 0.40E+00    9.3     1.20236319     -1075.8481109887  9.81E-01
    53 Broy./Diag. 0.40E+00    9.3     1.10119060     -1074.0494774867  1.80E+00
    54 Broy./Diag. 0.40E+00    9.2     1.60077541     -1077.3982516816 -3.35E+00
    55 Broy./Diag. 0.40E+00    9.0     1.78529476     -1077.3250118353  7.32E-02
    56 Broy./Diag. 0.40E+00    9.4     1.82577697     -1077.9839119580 -6.59E-01
    57 Broy./Diag. 0.40E+00    9.4     1.85607924     -1078.7359974644 -7.52E-01
    58 Broy./Diag. 0.40E+00    9.4     1.21410283     -1076.8776705676  1.86E+00
    59 Broy./Diag. 0.40E+00    9.4     1.38919709     -1075.8686188825  1.01E+00
    60 Broy./Diag. 0.40E+00    9.3     0.93973100     -1075.8107017962  5.79E-02
    61 Broy./Diag. 0.40E+00    9.2     1.15268571     -1076.3349148576 -5.24E-01
    62 Broy./Diag. 0.40E+00    9.0     0.69498792     -1076.0995924716  2.35E-01
    63 Broy./Diag. 0.40E+00    8.9     1.78869639     -1074.2828405950  1.82E+00
    64 Broy./Diag. 0.40E+00    9.5     1.80095795     -1078.7932111943 -4.51E+00
    65 Broy./Diag. 0.40E+00    9.2     1.60572889     -1076.0596410567  2.73E+00
    66 Broy./Diag. 0.40E+00    8.8     1.82230934     -1076.7153545455 -6.56E-01
    67 Broy./Diag. 0.40E+00    8.7     1.32557298     -1077.6337992459 -9.18E-01
    68 Broy./Diag. 0.40E+00    8.7     1.25948901     -1076.1574469332  1.48E+00
    69 Broy./Diag. 0.40E+00    8.9     1.25210449     -1076.0351061371  1.22E-01
    70 Broy./Diag. 0.40E+00    9.4     1.66616934     -1076.2943318987 -2.59E-01
    71 Broy./Diag. 0.40E+00    9.3     1.74462507     -1076.5637536545 -2.69E-01
    72 Broy./Diag. 0.40E+00    9.3     1.68361392     -1076.2571599207  3.07E-01
    73 Broy./Diag. 0.40E+00    9.4     1.72188294     -1076.2747425115 -1.76E-02
    74 Broy./Diag. 0.40E+00    9.2     0.87607991     -1076.6314832541 -3.57E-01
    75 Broy./Diag. 0.40E+00    9.0     1.83143239     -1074.5039783967  2.13E+00
    76 Broy./Diag. 0.40E+00    9.3     1.83529705     -1079.2227302656 -4.72E+00
    77 Broy./Diag. 0.40E+00    9.2     1.78883364     -1075.0421561117  4.18E+00
    78 Broy./Diag. 0.40E+00    9.5     1.80054898     -1077.6863310704 -2.64E+00
    79 Broy./Diag. 0.40E+00    9.3     1.44317104     -1077.8776710883 -1.91E-01
    80 Broy./Diag. 0.40E+00    9.5     1.33629809     -1076.0241883412  1.85E+00
    81 Broy./Diag. 0.40E+00    9.5     1.51933187     -1075.9149826093  1.09E-01
    82 Broy./Diag. 0.40E+00    9.4     1.07801064     -1077.2546102125 -1.34E+00
    83 Broy./Diag. 0.40E+00    9.5     1.34998935     -1076.9320778009  3.23E-01
    84 Broy./Diag. 0.40E+00    9.2     1.39027211     -1077.2716456754 -3.40E-01
    85 Broy./Diag. 0.40E+00    8.9     1.43428134     -1075.6912780446  1.58E+00
    86 Broy./Diag. 0.40E+00    8.8     1.82428367     -1074.2689650946  1.42E+00
    87 Broy./Diag. 0.40E+00    8.6     1.82853782     -1078.6689894880 -4.40E+00
    88 Broy./Diag. 0.40E+00    9.1     1.44247404     -1076.1611502053  2.51E+00
    89 Broy./Diag. 0.40E+00    9.5     1.45589920     -1076.8571249088 -6.96E-01
    90 Broy./Diag. 0.40E+00    9.5     1.44699917     -1077.1572662338 -3.00E-01
    91 Broy./Diag. 0.40E+00    9.3     1.76271716     -1076.3741722767  7.83E-01
    92 Broy./Diag. 0.40E+00    9.2     1.76032502     -1078.2051153621 -1.83E+00
    93 Broy./Diag. 0.40E+00    9.1     1.78531447     -1073.9881156848  4.22E+00
    94 Broy./Diag. 0.40E+00    9.5     1.79766361     -1078.7825753355 -4.79E+00
    95 Broy./Diag. 0.40E+00    9.6     1.81935769     -1076.6765035373  2.11E+00
    96 Broy./Diag. 0.40E+00    9.4     1.84258196     -1078.4149730006 -1.74E+00
    97 Broy./Diag. 0.40E+00    9.5     1.15739902     -1077.2286243617  1.19E+00
    98 Broy./Diag. 0.40E+00    9.5     1.79566855     -1077.9576668498 -7.29E-01
    99 Broy./Diag. 0.40E+00    9.4     1.46833442     -1076.3849156795  1.57E+00
   100 Broy./Diag. 0.40E+00    9.4     1.81852644     -1074.6003250502  1.78E+00
   101 Broy./Diag. 0.40E+00    9.3     1.79310050     -1076.4667302955 -1.87E+00
   102 Broy./Diag. 0.40E+00    9.3     1.45143133     -1076.6164719838 -1.50E-01
   103 Broy./Diag. 0.40E+00    9.3     1.15419585     -1076.1594328739  4.57E-01
   104 Broy./Diag. 0.40E+00    9.4     1.60837423     -1076.3974174349 -2.38E-01
   105 Broy./Diag. 0.40E+00    9.3     1.66052253     -1076.0549857366  3.42E-01
   106 Broy./Diag. 0.40E+00    9.3     1.24709204     -1076.1423426410 -8.74E-02
   107 Broy./Diag. 0.40E+00    9.5     1.40424246     -1076.3480000890 -2.06E-01
   108 Broy./Diag. 0.40E+00    9.3     1.32099487     -1076.7256098283 -3.78E-01
   109 Broy./Diag. 0.40E+00    9.4     1.36658125     -1076.1466406400  5.79E-01
   110 Broy./Diag. 0.40E+00    9.3     0.90975013     -1076.0456955158  1.01E-01
   111 Broy./Diag. 0.40E+00    9.4     1.78823698     -1074.6930786966  1.35E+00
   112 Broy./Diag. 0.40E+00    9.2     1.80030164     -1078.9376923945 -4.24E+00
   113 Broy./Diag. 0.40E+00    9.4     1.45151742     -1076.1393441564  2.80E+00
   114 Broy./Diag. 0.40E+00    9.2     1.61089188     -1076.6465694676 -5.07E-01
   115 Broy./Diag. 0.40E+00    9.1     1.66858707     -1076.3764677505  2.70E-01
   116 Broy./Diag. 0.40E+00    8.7     1.82361056     -1074.2277635148  2.15E+00
   117 Broy./Diag. 0.40E+00    8.7     1.45328072     -1076.2400933436 -2.01E+00
   118 Broy./Diag. 0.40E+00    8.7     1.83131809     -1078.4553284376 -2.22E+00
   119 Broy./Diag. 0.40E+00    8.7     1.25721417     -1076.3457215953  2.11E+00
   120 Broy./Diag. 0.40E+00    8.7     1.41282877     -1076.2858879326  5.98E-02
   121 Broy./Diag. 0.40E+00    9.2     1.82291505     -1074.5138032819  1.77E+00
   122 Broy./Diag. 0.40E+00    8.6     1.82432837     -1076.8513714647 -2.34E+00
   123 Broy./Diag. 0.40E+00    8.6     1.46610224     -1076.3167401077  5.35E-01
   124 Broy./Diag. 0.40E+00    9.0     1.63937341     -1076.1856617383  1.31E-01
   125 Broy./Diag. 0.40E+00    9.5     1.67852276     -1076.5092383184 -3.24E-01
   126 Broy./Diag. 0.40E+00    9.4     1.78304690     -1075.8954806856  6.14E-01
   127 Broy./Diag. 0.40E+00    9.4     1.82268248     -1078.4587262382 -2.56E+00
   128 Broy./Diag. 0.40E+00    9.4     1.84230902     -1078.1624645308  2.96E-01
   129 Broy./Diag. 0.40E+00    9.3     1.66815785     -1074.7554682285  3.41E+00
   130 Broy./Diag. 0.40E+00    9.4     1.57932118     -1077.8314967841 -3.08E+00
   131 Broy./Diag. 0.40E+00    9.2     1.64377906     -1078.0318102495 -2.00E-01
   132 Broy./Diag. 0.40E+00    9.0     1.73029849     -1076.0409859978  1.99E+00
   133 Broy./Diag. 0.40E+00    9.4     1.25221307     -1077.0895795966 -1.05E+00
   134 Broy./Diag. 0.40E+00    9.5     1.60926055     -1075.0188006485  2.07E+00
   135 Broy./Diag. 0.40E+00    9.4     1.64401566     -1076.4078634738 -1.39E+00
   136 Broy./Diag. 0.40E+00    9.3     1.56329015     -1076.1642450439  2.44E-01
   137 Broy./Diag. 0.40E+00    9.0     1.82147462     -1078.3271330258 -2.16E+00
   138 Broy./Diag. 0.40E+00    8.7     1.84135011     -1078.0455146262  2.82E-01
   139 Broy./Diag. 0.40E+00    8.9     1.35852543     -1075.7581764836  2.29E+00
   140 Broy./Diag. 0.40E+00    9.4     1.01036830     -1074.2277916647  1.53E+00
   141 Broy./Diag. 0.40E+00    9.4     1.02519822     -1077.3897685147 -3.16E+00
   142 Broy./Diag. 0.40E+00    9.3     1.81776694     -1075.6993001246  1.69E+00
   143 Broy./Diag. 0.40E+00    9.3     1.83401091     -1077.9072182008 -2.21E+00
   144 Broy./Diag. 0.40E+00    9.0     1.79860198     -1077.9687314737 -6.15E-02
   145 Broy./Diag. 0.40E+00    8.9     1.65849001     -1076.7732890333  1.20E+00
   146 Broy./Diag. 0.40E+00    8.8     1.12534512     -1075.7539993534  1.02E+00
   147 Broy./Diag. 0.40E+00    8.9     1.64526096     -1073.7959328766  1.96E+00
   148 Broy./Diag. 0.40E+00    9.2     1.47372958     -1077.0633444552 -3.27E+00
   149 Broy./Diag. 0.40E+00    9.1     1.31675006     -1076.9228675368  1.40E-01
   150 Broy./Diag. 0.40E+00    9.4     1.07741372     -1077.2873140212 -3.64E-01
   151 Broy./Diag. 0.40E+00    9.5     0.79767845     -1076.7246627513  5.63E-01
   152 Broy./Diag. 0.40E+00    9.4     1.82390836     -1074.2390408209  2.49E+00
   153 Broy./Diag. 0.40E+00    9.3     1.84679236     -1078.4143381321 -4.18E+00
   154 Broy./Diag. 0.40E+00    9.4     1.79673952     -1078.3662830651  4.81E-02
   155 Broy./Diag. 0.40E+00    9.3     1.64544026     -1076.6997348593  1.67E+00
   156 Broy./Diag. 0.40E+00    9.5     0.93726782     -1076.2138800509  4.86E-01
   157 Broy./Diag. 0.40E+00    9.5     1.63180217     -1073.9204763855  2.29E+00
   158 Broy./Diag. 0.40E+00    9.4     1.44646016     -1076.5074838024 -2.59E+00
   159 Broy./Diag. 0.40E+00    9.4     1.31363314     -1076.9497219830 -4.42E-01
   160 Broy./Diag. 0.40E+00    9.4     1.41177414     -1076.2492283485  7.00E-01
   161 Broy./Diag. 0.40E+00    9.2     1.46167002     -1076.5647496242 -3.16E-01
   162 Broy./Diag. 0.40E+00    9.2     1.11373354     -1076.3010573866  2.64E-01
   163 Broy./Diag. 0.40E+00    9.5     1.11861577     -1076.0672385781  2.34E-01
   164 Broy./Diag. 0.40E+00    9.3     1.62894688     -1077.2072593289 -1.14E+00
   165 Broy./Diag. 0.40E+00    9.4     1.67646275     -1076.9434334942  2.64E-01
   166 Broy./Diag. 0.40E+00    9.2     1.78053611     -1076.2485810066  6.95E-01
   167 Broy./Diag. 0.40E+00    9.3     1.79194666     -1076.8250852677 -5.77E-01
   168 Broy./Diag. 0.40E+00    9.5     1.82296135     -1074.8957245599  1.93E+00
   169 Broy./Diag. 0.40E+00    9.5     1.84585493     -1079.1334078271 -4.24E+00
   170 Broy./Diag. 0.40E+00    9.3     1.79619505     -1078.3088761017  8.25E-01
   171 Broy./Diag. 0.40E+00    9.2     1.76289173     -1075.9225617644  2.39E+00
   172 Broy./Diag. 0.40E+00    9.1     1.71591435     -1075.8305558071  9.20E-02
   173 Broy./Diag. 0.40E+00    9.5     1.42857601     -1076.0166384820 -1.86E-01
   174 Broy./Diag. 0.40E+00    9.4     1.63718904     -1077.0058571694 -9.89E-01
   175 Broy./Diag. 0.40E+00    9.3     1.68283460     -1076.8752754093  1.31E-01
   176 Broy./Diag. 0.40E+00    9.2     1.40774310     -1076.5170430205  3.58E-01
   177 Broy./Diag. 0.40E+00    9.5     1.66648765     -1076.2303709765  2.87E-01
   178 Broy./Diag. 0.40E+00    9.4     1.38254638     -1076.4998442831 -2.69E-01
   179 Broy./Diag. 0.40E+00    9.2     1.28748357     -1076.6861495014 -1.86E-01
   180 Broy./Diag. 0.40E+00    9.3     1.36472020     -1075.8912629002  7.95E-01
   181 Broy./Diag. 0.40E+00    9.4     1.79165003     -1074.4545264936  1.44E+00
   182 Broy./Diag. 0.40E+00    9.6     1.79388418     -1078.7379116202 -4.28E+00
   183 Broy./Diag. 0.40E+00    9.3     1.39014244     -1076.2677830034  2.47E+00
   184 Broy./Diag. 0.40E+00    9.4     1.63923636     -1076.8096070761 -5.42E-01
   185 Broy./Diag. 0.40E+00    9.3     1.68018149     -1076.5665643676  2.43E-01
   186 Broy./Diag. 0.40E+00    9.3     1.38928436     -1076.2462049953  3.20E-01
   187 Broy./Diag. 0.40E+00    9.4     1.82139067     -1076.4718162161 -2.26E-01
   188 Broy./Diag. 0.40E+00    9.6     1.85404098     -1078.4155234576 -1.94E+00
   189 Broy./Diag. 0.40E+00    9.3     1.34986826     -1076.2659502550  2.15E+00
   190 Broy./Diag. 0.40E+00    9.2     1.35794422     -1076.2570281925  8.92E-03
   191 Broy./Diag. 0.40E+00    9.4     1.75195458     -1074.7179887609  1.54E+00
   192 Broy./Diag. 0.40E+00    9.4     1.74457045     -1078.4485829547 -3.73E+00
   193 Broy./Diag. 0.40E+00    9.6     1.43721934     -1076.2736740033  2.17E+00
   194 Broy./Diag. 0.40E+00    9.2     1.61817429     -1076.6589264655 -3.85E-01
   195 Broy./Diag. 0.40E+00    8.9     1.78849166     -1076.6049777221  5.39E-02
   196 Broy./Diag. 0.40E+00    8.8     1.81551906     -1077.9812758833 -1.38E+00
   197 Broy./Diag. 0.40E+00    8.6     0.59408732     -1076.0080147754  1.97E+00
   198 Broy./Diag. 0.40E+00    8.8     1.72210411     -1076.6100011960 -6.02E-01
   199 Broy./Diag. 0.40E+00    8.8     1.44915080     -1074.6105079044  2.00E+00
   200 Broy./Diag. 0.40E+00    8.7     1.43759990     -1076.7510813053 -2.14E+00
   201 Broy./Diag. 0.40E+00    8.6     1.78036403     -1076.6410898871  1.10E-01
   202 Broy./Diag. 0.40E+00    8.6     1.79436539     -1078.1608466599 -1.52E+00
   203 Broy./Diag. 0.40E+00    8.6     1.41167944     -1074.7978698044  3.36E+00
   204 Broy./Diag. 0.40E+00    8.8     1.63824097     -1077.8807890460 -3.08E+00
   205 Broy./Diag. 0.40E+00    9.7     1.82911169     -1076.1027725617  1.78E+00
   206 Broy./Diag. 0.40E+00    9.4     1.84796605     -1077.7378676095 -1.64E+00
   207 Broy./Diag. 0.40E+00    9.6     1.17948843     -1076.3052755760  1.43E+00
   208 Broy./Diag. 0.40E+00    9.2     0.99787943     -1076.3824305483 -7.72E-02
   209 Broy./Diag. 0.40E+00    9.3     1.43264346     -1076.9300926786 -5.48E-01
   210 Broy./Diag. 0.40E+00    9.3     1.45071504     -1076.6399683520  2.90E-01
   211 Broy./Diag. 0.40E+00    9.5     1.24293549     -1076.0579801533  5.82E-01
   212 Broy./Diag. 0.40E+00    9.4     1.31141712     -1075.8643342445  1.94E-01
   213 Broy./Diag. 0.40E+00    9.3     1.08788754     -1075.8139101564  5.04E-02
   214 Broy./Diag. 0.40E+00    9.3     1.78594176     -1074.6838687925  1.13E+00
   215 Broy./Diag. 0.40E+00    9.5     1.82121745     -1078.6054992552 -3.92E+00
   216 Broy./Diag. 0.40E+00    9.5     1.51083008     -1077.3311800224  1.27E+00
   217 Broy./Diag. 0.40E+00    9.4     1.75977082     -1077.9685379052 -6.37E-01
   218 Broy./Diag. 0.40E+00    9.2     1.82524747     -1074.3082286371  3.66E+00
   219 Broy./Diag. 0.40E+00    9.1     1.85793952     -1079.4395809135 -5.13E+00
   220 Broy./Diag. 0.40E+00    8.9     1.81135617     -1078.1011495029  1.34E+00
   221 Broy./Diag. 0.40E+00    8.8     1.30676426     -1074.8338210654  3.27E+00
   222 Broy./Diag. 0.40E+00    9.1     1.43891283     -1075.8671043320 -1.03E+00
   223 Broy./Diag. 0.40E+00    9.4     1.78062429     -1075.8819932071 -1.49E-02
   224 Broy./Diag. 0.40E+00    9.5     1.83767944     -1076.4434786506 -5.61E-01
   225 Broy./Diag. 0.40E+00    9.5     0.79118351     -1076.0687864333  3.75E-01
   226 Broy./Diag. 0.40E+00    9.7     0.96029927     -1075.0393731601  1.03E+00
   227 Broy./Diag. 0.40E+00    9.4     0.95582713     -1076.4110948830 -1.37E+00
   228 Broy./Diag. 0.40E+00    9.3     1.78248938     -1074.7511675147  1.66E+00
   229 Broy./Diag. 0.40E+00    9.6     1.79468610     -1078.9273290175 -4.18E+00
   230 Broy./Diag. 0.40E+00    9.4     1.28621820     -1076.5671346113  2.36E+00
   231 Broy./Diag. 0.40E+00    9.2     1.35601379     -1076.9096037206 -3.42E-01
   232 Broy./Diag. 0.40E+00    9.6     1.82219022     -1074.6821356345  2.23E+00
   233 Broy./Diag. 0.40E+00    9.4     1.83583355     -1078.3654916860 -3.68E+00
   234 Broy./Diag. 0.40E+00    9.5     1.61167166     -1076.1421877996  2.22E+00
   235 Broy./Diag. 0.40E+00    9.4     1.65421070     -1076.0180520624  1.24E-01
   236 Broy./Diag. 0.40E+00    9.3     1.34549273     -1075.6505069022  3.68E-01
   237 Broy./Diag. 0.40E+00    9.5     1.28787692     -1076.6421185103 -9.92E-01
   238 Broy./Diag. 0.40E+00    9.3     1.09091131     -1077.2143513202 -5.72E-01
   239 Broy./Diag. 0.40E+00    9.6     1.82832008     -1074.1238396410  3.09E+00
   240 Broy./Diag. 0.40E+00    9.4     1.83136531     -1079.2488817282 -5.13E+00
   241 Broy./Diag. 0.40E+00    9.4     1.79805743     -1078.3308470773  9.18E-01
   242 Broy./Diag. 0.40E+00    9.5     1.16004966     -1075.0679671348  3.26E+00
   243 Broy./Diag. 0.40E+00    9.3     1.20912364     -1075.4285469735 -3.61E-01
   244 Broy./Diag. 0.40E+00    9.3     1.61331711     -1073.8175366660  1.61E+00
   245 Broy./Diag. 0.40E+00    9.4     1.64696572     -1076.7609104435 -2.94E+00
   246 Broy./Diag. 0.40E+00    9.2     1.12938175     -1076.3514921606  4.09E-01
   247 Broy./Diag. 0.40E+00    9.6     1.78561679     -1074.6041981683  1.75E+00
   248 Broy./Diag. 0.40E+00    9.5     1.78970572     -1078.2826547953 -3.68E+00
   249 Broy./Diag. 0.40E+00    9.2     1.61715873     -1078.3727296704 -9.01E-02
   250 Broy./Diag. 0.40E+00    9.0     1.84123838     -1078.1293495163  2.43E-01
   251 Broy./Diag. 0.40E+00    9.4     1.48548026     -1076.2939547331  1.84E+00
   252 Broy./Diag. 0.40E+00    9.5     0.64336597     -1074.4751699405  1.82E+00
   253 Broy./Diag. 0.40E+00    9.2     0.64272473     -1076.7066508205 -2.23E+00
   254 Broy./Diag. 0.40E+00    8.9     1.60350432     -1074.6470370043  2.06E+00
   255 Broy./Diag. 0.40E+00    8.9     1.62938749     -1078.7080631795 -4.06E+00
   256 Broy./Diag. 0.40E+00    8.6     1.83471205     -1078.4817244676  2.26E-01
   257 Broy./Diag. 0.40E+00    9.4     1.09209795     -1076.2657800455  2.22E+00
   258 Broy./Diag. 0.40E+00    9.5     1.30598816     -1074.6378492379  1.63E+00
   259 Broy./Diag. 0.40E+00    9.3     1.30812455     -1076.0075961215 -1.37E+00
   260 Broy./Diag. 0.40E+00    9.4     1.39012879     -1075.9772214671  3.04E-02
   261 Broy./Diag. 0.40E+00    9.5     1.43251947     -1076.0593423443 -8.21E-02
   262 Broy./Diag. 0.40E+00    9.4     1.79003838     -1074.5070685697  1.55E+00
   263 Broy./Diag. 0.40E+00    9.4     1.78948158     -1079.0175911147 -4.51E+00
   264 Broy./Diag. 0.40E+00    9.3     1.61025908     -1076.5542775810  2.46E+00
   265 Broy./Diag. 0.40E+00    9.5     1.82335668     -1078.6832946827 -2.13E+00
   266 Broy./Diag. 0.40E+00    9.5     1.85317468     -1078.4541917823  2.29E-01
   267 Broy./Diag. 0.40E+00    9.5     1.81481110     -1078.1527090780  3.01E-01
   268 Broy./Diag. 0.40E+00    9.5     1.25973798     -1075.2998983370  2.85E+00
   269 Broy./Diag. 0.40E+00    9.4     1.25660118     -1075.8272747934 -5.27E-01
   270 Broy./Diag. 0.40E+00    9.4     1.22223481     -1076.1263817733 -2.99E-01
   271 Broy./Diag. 0.40E+00    9.5     1.82521275     -1074.1542020472  1.97E+00
   272 Broy./Diag. 0.40E+00    9.3     1.84253080     -1079.1362978256 -4.98E+00
   273 Broy./Diag. 0.40E+00    9.4     0.99373764     -1074.6879344922  4.45E+00
   274 Broy./Diag. 0.40E+00    9.5     1.62110070     -1076.1201470987 -1.43E+00
   275 Broy./Diag. 0.40E+00    9.4     1.62346089     -1076.2063007014 -8.62E-02
   276 Broy./Diag. 0.40E+00    9.5     1.79207184     -1074.7536465672  1.45E+00
   277 Broy./Diag. 0.40E+00    9.3     0.41630950     -1078.5278457039 -3.77E+00
   278 Broy./Diag. 0.40E+00    9.2     1.80226551     -1078.2368923713  2.91E-01
   279 Broy./Diag. 0.40E+00    9.3     1.35195065     -1076.1720978772  2.06E+00
   280 Broy./Diag. 0.40E+00    9.3     1.79805465     -1074.4620069867  1.71E+00
   281 Broy./Diag. 0.40E+00    9.5     1.84317204     -1078.7235075964 -4.26E+00
   282 Broy./Diag. 0.40E+00    9.3     0.47758880     -1077.9964310810  7.27E-01
   283 Broy./Diag. 0.40E+00    9.5     1.84800980     -1078.3681241365 -3.72E-01
   284 Broy./Diag. 0.40E+00    9.2     1.59255048     -1074.4965720587  3.87E+00
   285 Broy./Diag. 0.40E+00    9.2     1.63398042     -1076.6147197719 -2.12E+00
   286 Broy./Diag. 0.40E+00    9.4     1.65909820     -1076.4181003871  1.97E-01
   287 Broy./Diag. 0.40E+00    9.4     1.50473966     -1076.3608206132  5.73E-02
   288 Broy./Diag. 0.40E+00    9.3     1.34176383     -1076.8341631760 -4.73E-01
   289 Broy./Diag. 0.40E+00    9.1     1.39913475     -1076.1236699865  7.10E-01
   290 Broy./Diag. 0.40E+00    9.0     1.19392506     -1076.5286051811 -4.05E-01
   291 Broy./Diag. 0.40E+00    9.0     1.34007577     -1074.8311746009  1.70E+00
   292 Broy./Diag. 0.40E+00    8.9     1.67370331     -1078.0489100485 -3.22E+00
   293 Broy./Diag. 0.40E+00    9.3     1.83581391     -1078.1207254892 -7.18E-02
   294 Broy./Diag. 0.40E+00    9.0     1.60320458     -1074.9933753300  3.13E+00
   295 Broy./Diag. 0.40E+00    8.7     1.63949605     -1078.4247124197 -3.43E+00
   296 Broy./Diag. 0.40E+00    9.0     1.23982762     -1076.2741299829  2.15E+00
   297 Broy./Diag. 0.40E+00    8.8     1.41257624     -1076.5092928264 -2.35E-01
   298 Broy./Diag. 0.40E+00    9.3     1.45838087     -1076.4697050586  3.96E-02
   299 Broy./Diag. 0.40E+00    9.2     1.46935544     -1076.4885707175 -1.89E-02
   300 Broy./Diag. 0.40E+00    9.2     1.54309652     -1075.9214509099  5.67E-01

  Leaving inner SCF loop after reaching   300 steps.


  Electronic density on regular grids:       -512.0001183556       -0.0001183556
  Core density on regular grids:              512.0000575024        0.0000575024
  Total charge density on r-space grids:       -0.0000608533
  Total charge density g-space grids:          -0.0000608533

  Overlap energy of the core charge distribution:               0.00000000000000
  Self energy of the core charge distribution:              -2838.21791979120962
  Core Hamiltonian energy:                                    760.34206067762341
  Hartree energy:                                            1240.71025432883334
  Exchange-correlation energy:                               -238.75584612518179

  Total energy:                                             -1075.92145090993449

 *** WARNING in qs_scf.F:542 :: SCF run NOT converged ***


 ENERGY| Total FORCE_EVAL ( QS ) energy (a.u.):            -1075.691584826375674


 ATOMIC FORCES in [a.u.]

 # Atom   Kind   Element          X              Y              Z
      1      1      O          -0.05369697    -0.16697287     0.10690455
      2      2      H          -0.05006920     0.05110744    -0.03978282
      3      2      H           0.06279567     0.02726961     0.02558572
      4      1      O          -0.14598176     0.03138148    -0.02662936
      5      2      H          -0.00057374     0.08362376     0.04294704
      6      2      H           0.07419450    -0.02098726    -0.04419547
      7      1      O           0.15496510    -0.01212397    -0.01134583
      8      2      H          -0.05804005     0.09436820    -0.02129580
      9      2      H          -0.05536124    -0.03363081    -0.02422034
     10      1      O          -0.11007570     0.08127647     0.14941154
     11      2      H           0.05390335     0.04080876    -0.02281641
     12      2      H          -0.00817402    -0.04201760    -0.02369870
     13      1      O           0.06716267    -0.09549089    -0.00629681
     14      2      H           0.01837147     0.06927309     0.04236979
     15      2      H          -0.09884567    -0.00035484    -0.02467765
     16      1      O           0.09585696    -0.15571237    -0.11201549
     17      2      H           0.07427187    -0.01110840     0.09112395
     18      2      H          -0.06941728     0.00406854     0.00046022
     19      1      O          -0.01665400    -0.01253917     0.12520646
     20      2      H          -0.02706752     0.01315410     0.05810827
     21      2      H          -0.01183997     0.03750720     0.01382013
     22      1      O           0.04477884     0.08184975    -0.01235437
     23      2      H          -0.05534002     0.07809865    -0.01039317
     24      2      H          -0.06977199    -0.07180965     0.02233662
     25      1      O           0.05822772    -0.01368468     0.07757496
     26      2      H           0.02643500     0.03846341    -0.03389619
     27      2      H          -0.08667646     0.04144499     0.01567147
     28      1      O          -0.02169036    -0.06885278     0.00843306
     29      2      H          -0.04244304    -0.02498315     0.08095313
     30      2      H           0.03303870     0.04564133    -0.02512092
     31      1      O           0.05034111    -0.03779594     0.07570185
     32      2      H          -0.01901847     0.10107078     0.03046585
     33      2      H           0.08033455    -0.01339762    -0.08126135
     34      1      O           0.14880956    -0.10280488    -0.13639104
     35      2      H          -0.07081781    -0.08149591     0.02203318
     36      2      H          -0.04907697     0.03652224     0.06829084
     37      1      O          -0.05630525     0.00036756    -0.06419135
     38      2      H           0.08164779    -0.02318605     0.08295565
     39      2      H          -0.08805056    -0.00463581    -0.04795830
     40      1      O           0.10758270     0.10996273    -0.01773432
     41      2      H           0.04395318     0.01183743    -0.08761111
     42      2      H          -0.11360075     0.02984453     0.00087246
     43      1      O          -0.04210993    -0.10146941    -0.08602137
     44      2      H          -0.03436329     0.03040568     0.02092462
     45      2      H           0.10004590     0.04561382    -0.04709588
     46      1      O           0.01578680    -0.03450678     0.00685172
     47      2      H          -0.08846722     0.03745090     0.03323608
     48      2      H           0.05013049     0.02444086    -0.05956782
     49      1      O          -0.00658660    -0.02477006     0.12860279
     50      2      H           0.03911987    -0.04255839     0.04273007
     51      2      H           0.03778512     0.06350116    -0.06826225
     52      1      O          -0.12308258    -0.00444814     0.11472856
     53      2      H           0.01632415     0.05725322     0.02104081
     54      2      H           0.04702186    -0.07366995    -0.00587371
     55      1      O          -0.14187559     0.12569733     0.08325748
     56      2      H          -0.02164302    -0.08293403    -0.02827313
     57      2      H           0.10334587     0.00099755     0.03346476
     58      1      O           0.05790579    -0.15049922    -0.01137056
     59      2      H          -0.09310035     0.04037910     0.01189122
     60      2      H           0.03144432     0.01144598     0.03684359
     61      1      O          -0.05309685    -0.10361145     0.04795696
     62      2      H           0.05108522     0.07057461    -0.01669065
     63      2      H          -0.03388755    -0.02630973    -0.06166889
     64      1      O          -0.16259731     0.06594322     0.09967356
     65      2      H           0.06644831     0.07633995    -0.01751175
     66      2      H           0.04539247    -0.06779174     0.00366992
     67      1      O          -0.13614227     0.06215776     0.01853367
     68      2      H           0.08081480    -0.03875930     0.00137069
     69      2      H          -0.05594894     0.01780246    -0.06528444
     70      1      O           0.03436683     0.04479337    -0.03324055
     71      2      H          -0.08370129     0.03674965    -0.03720915
     72      2      H           0.03999875     0.04641741    -0.00485468
     73      1      O           0.01891448    -0.13737813    -0.13023138
     74      2      H          -0.08558529     0.08548258    -0.02586623
     75      2      H           0.01358899     0.01108412     0.04199457
     76      1      O           0.00192603     0.12537664    -0.09190796
     77      2      H           0.04417750    -0.03528395    -0.08371231
     78      2      H           0.02090450    -0.01975396     0.02541602
     79      1      O          -0.05850091    -0.16199032     0.04783785
     80      2      H          -0.00501410     0.08883580     0.01950777
     81      2      H           0.05216720     0.03689908    -0.03285591
     82      1      O          -0.07840541    -0.08528378     0.03286428
     83      2      H           0.06819779     0.03565081     0.05932835
     84      2      H           0.01192019     0.02019369    -0.04245310
     85      1      O          -0.10047961    -0.15306206    -0.02856760
     86      2      H          -0.00124419     0.03374277     0.03265551
     87      2      H          -0.03115613     0.01066616    -0.11006665
     88      1      O           0.04725981    -0.06272075    -0.09139033
     89      2      H          -0.09054612    -0.05516627    -0.00055790
     90      2      H          -0.06395457     0.12897520     0.03667054
     91      1      O          -0.05139917     0.08551972     0.03542687
     92      2      H          -0.10089176    -0.05032143    -0.03266111
     93      2      H           0.02463864    -0.07659925    -0.05460485
     94      1      O           0.05496016     0.13884751     0.02427500
     95      2      H           0.09536964    -0.03040898     0.00603688
     96      2      H          -0.02773258    -0.02727135     0.05211199
     97      1      O          -0.02508715    -0.00696966    -0.04123172
     98      2      H          -0.08595515    -0.05286673    -0.00389511
     99      2      H           0.07390223    -0.08515141     0.00075032
    100      1      O           0.04469386    -0.06530530     0.02593938
    101      2      H          -0.03720754     0.06935501     0.00253701
    102      2      H           0.10354231     0.01979956     0.00089794
    103      1      O           0.09738836     0.04854134    -0.15257915
    104      2      H           0.04571097     0.04586151     0.02244448
    105      2      H          -0.05164187    -0.04117134    -0.02150880
    106      1      O          -0.02437785     0.04247180     0.15055359
    107      2      H          -0.11420271     0.00671877    -0.00189234
    108      2      H           0.06099853    -0.07586938    -0.07947342
    109      1      O           0.04525441    -0.04690145     0.05174625
    110      2      H           0.08889333     0.04246160    -0.05759707
    111      2      H           0.00627077     0.01908169     0.02136008
    112      1      O           0.14348931    -0.01653692     0.01407572
    113      2      H           0.02837692    -0.01127241     0.09875743
    114      2      H          -0.09935255    -0.03083921    -0.06366612
    115      1      O           0.00677556     0.07076743     0.01494297
    116      2      H          -0.06539921    -0.08293466     0.02778925
    117      2      H          -0.05693684     0.06523385    -0.03225327
    118      1      O           0.05967097     0.13486910     0.02558425
    119      2      H           0.08130825    -0.06044935    -0.00023611
    120      2      H          -0.02169024     0.01157405     0.10255682
    121      1      O           0.14300697     0.07597489    -0.01998682
    122      2      H           0.01525689     0.03129697    -0.07155218
    123      2      H          -0.10379254     0.00694144     0.00512324
    124      1      O           0.05341219     0.15564553    -0.02472124
    125      2      H          -0.07221812    -0.05004561     0.06641648
    126      2      H           0.10046861    -0.07176432     0.02032974
    127      1      O          -0.01647945    -0.07313179     0.02431228
    128      2      H          -0.05540117     0.04291853    -0.01916773
    129      2      H           0.04352597    -0.02135571    -0.07842413
    130      1      O           0.08236577    -0.09648556    -0.04919570
    131      2      H          -0.01263646    -0.04578814    -0.04005885
    132      2      H          -0.01258105     0.06915064     0.04366061
    133      1      O          -0.05965683    -0.03837953     0.09027189
    134      2      H          -0.11397398    -0.00249915    -0.02774305
    135      2      H           0.06380046     0.04929945     0.02568311
    136      1      O          -0.03521466     0.17001076    -0.03391816
    137      2      H          -0.01307392    -0.03753257     0.04176730
    138      2      H          -0.06692705    -0.04055205    -0.07390957
    139      1      O           0.16637329    -0.04159863     0.02749386
    140      2      H           0.00336849    -0.07940710     0.02451642
    141      2      H          -0.05730918     0.05336939     0.07786070
    142      1      O          -0.02933335     0.02223257    -0.09848032
    143      2      H           0.09291063    -0.03549030    -0.07879778
    144      2      H           0.03498198    -0.04915094     0.10261487
    145      1      O          -0.07844521    -0.02128676    -0.15441386
    146      2      H           0.03998409     0.00325961    -0.00018877
    147      2      H          -0.08624652     0.00245138     0.08966069
    148      1      O          -0.14683797     0.02985618    -0.03256255
    149      2      H           0.01811005     0.07135931     0.04213568
    150      2      H           0.10205749     0.02946501    -0.05445466
    151      1      O           0.08552824    -0.03777450    -0.03104301
    152      2      H          -0.04652979    -0.04756880     0.09897982
    153      2      H          -0.01900087    -0.03142484    -0.06781677
    154      1      O          -0.01925828     0.14358922     0.10429990
    155      2      H           0.00274981     0.04681711    -0.09224682
    156      2      H          -0.04103210    -0.07365135     0.02318152
    157      1      O          -0.09258889     0.03935841     0.05874331
    158      2      H           0.01771152     0.04700647     0.09116727
    159      2      H           0.07748600    -0.01591194    -0.07487201
    160      1      O          -0.01414085    -0.09257307     0.16071035
    161      2      H           0.09966420    -0.00376913    -0.07465115
    162      2      H          -0.05645736     0.04176197    -0.03768711
    163      1      O           0.14438110     0.02966847    -0.07290520
    164      2      H          -0.07086295    -0.06913679     0.02363698
    165      2      H           0.01964982     0.06278206     0.08870542
    166      1      O          -0.12237057    -0.01313382     0.03202832
    167      2      H           0.05977671     0.02895451     0.06337149
    168      2      H          -0.00235626     0.03961499    -0.10895336
    169      1      O          -0.06076064     0.05468035    -0.04629217
    170      2      H          -0.09873711    -0.01806397     0.00183561
    171      2      H           0.06023831     0.06902554     0.08668935
    172      1      O           0.00336042     0.01028428     0.12185808
    173      2      H           0.04600364    -0.03376237    -0.08295996
    174      2      H          -0.05583965     0.04405357    -0.05385221
    175      1      O           0.10671330     0.00948816     0.00052152
    176      2      H          -0.05005010     0.05205473     0.08593546
    177      2      H          -0.03173340    -0.00225508    -0.03702285
    178      1      O           0.14095620    -0.02440389     0.02514539
    179      2      H          -0.04576190     0.11852690    -0.01224252
    180      2      H          -0.01237373    -0.08200416     0.09689327
    181      1      O          -0.01635695    -0.14726153     0.07118707
    182      2      H          -0.05189241     0.06149066     0.05381830
    183      2      H           0.01416225     0.01400331    -0.03513023
    184      1      O          -0.03739805     0.04103908     0.06832574
    185      2      H           0.00780433     0.06673381    -0.08435583
    186      2      H           0.03956529     0.00424267     0.05262341
    187      1      O           0.14646314    -0.06223928    -0.07974529
    188      2      H          -0.04622159     0.10303638     0.01024071
    189      2      H          -0.07967329    -0.02711290     0.05474405
    190      1      O           0.11938889     0.08299695    -0.15155729
    191      2      H           0.04629363    -0.05671136     0.09350642
    192      2      H          -0.01890415     0.07726617     0.04294490
 SUM OF ATOMIC FORCES          -0.15087316     0.68697546     0.51607560     0.87237149

 -------------------------------------------------------------------------------
 -                                                                             -
 -                                DBCSR STATISTICS                             -
 -                                                                             -
 -------------------------------------------------------------------------------
 COUNTER                                    TOTAL       BLAS       SMM       ACC
 flops     5 x     5 x   256           4611801600       0.0%    100.0%      0.0%
 flops     5 x    13 x   256           5529538560       0.0%    100.0%      0.0%
 flops    13 x     5 x   256           5749918720       0.0%    100.0%      0.0%
 flops    13 x    13 x   256           7474894336       0.0%    100.0%      0.0%
 flops inhomo. stacks                           0       0.0%      0.0%      0.0%
 flops total                        23.366153E+09       0.0%    100.0%      0.0%
 flops max/rank                     23.366153E+09       0.0%    100.0%      0.0%
 matmuls inhomo. stacks                         0       0.0%      0.0%      0.0%
 matmuls total                             785610       0.0%    100.0%      0.0%
 number of processed stacks                 42140       0.0%    100.0%      0.0%
 average stack size                                     0.0      18.6       0.0
 marketing flops                   333.927416E+09
 -------------------------------------------------------------------------------
 # multiplications                            301
 max memory usage/rank               5.025456E+09
 # max total images/rank                        1
 # max 3D layers                                1
 # MPI messages exchanged                       0
 MPI messages size (bytes):
  total size                         0.000000E+00
  min size                           0.000000E+00
  max size                           0.000000E+00
  average size                       0.000000E+00
 MPI breakdown and total messages size (bytes):
             size <=      128                   0                        0
       128 < size <=     8192                   0                        0
      8192 < size <=    32768                   0                        0
     32768 < size <=   131072                   0                        0
    131072 < size <=  4194304                   0                        0
   4194304 < size <= 16777216                   0                        0
  16777216 < size                               0                        0
 -------------------------------------------------------------------------------

 MEMORY| Estimated peak process memory [MiB]                                4787

 -------------------------------------------------------------------------------
 -                                                                             -
 -                           R E F E R E N C E S                               -
 -                                                                             -
 -------------------------------------------------------------------------------
 
 CP2K version 7.1, the CP2K developers group (2019).
 CP2K is freely available from https://www.cp2k.org/ .

 Schuett, Ole; Messmer, Peter; Hutter, Juerg; VandeVondele, Joost. 
 Electronic Structure Calculations on Graphics Processing Units, John
 Wiley & Sons, Ltd, 173-190 (2016). 
 GPU-Accelerated Sparse Matrix-Matrix Multiplication for
 Linear Scaling Density Functional Theory.
 https://dx.doi.org/10.1002/9781118670712.ch8

 Borstnik, U; VandeVondele, J; Weber, V; Hutter, J. 
 PARALLEL COMPUTING, 40 (5-6), 47-58 (2014). 
 Sparse matrix multiplication: The distributed block-compressed sparse
 row library.
 https://dx.doi.org/10.1016/j.parco.2014.03.012

 Hutter, J; Iannuzzi, M; Schiffmann, F; VandeVondele, J. 
 WIREs Comput Mol Sci., 4 (1), 15-25 (2014). 
 CP2K: atomistic simulations of condensed matter systems.
 https://dx.doi.org/10.1002/wcms.1159

 Krack, M. 
 THEORETICAL CHEMISTRY ACCOUNTS, 114 (1-3), 145-152 (2005). 
 Pseudopotentials for H to Kr optimized for gradient-corrected
 exchange-correlation functionals.
 https://dx.doi.org/10.1007/s00214-005-0655-y

 VandeVondele, J; Krack, M; Mohamed, F; Parrinello, M; Chassaing, T;
 Hutter, J. COMPUTER PHYSICS COMMUNICATIONS, 167 (2), 103-128 (2005). 
 QUICKSTEP: Fast and accurate density functional calculations using a
 mixed Gaussian and plane waves approach.
 https://dx.doi.org/10.1016/j.cpc.2004.12.014

 Frigo, M; Johnson, SG. 
 PROCEEDINGS OF THE IEEE, 93 (2), 216-231 (2005). 
 The design and implementation of FFTW3.
 https://dx.doi.org/10.1109/JPROC.2004.840301

 Hartwigsen, C; Goedecker, S; Hutter, J. 
 PHYSICAL REVIEW B, 58 (7), 3641-3662 (1998). 
 Relativistic separable dual-space Gaussian pseudopotentials from H to Rn.
 https://dx.doi.org/10.1103/PhysRevB.58.3641

 Lippert, G; Hutter, J; Parrinello, M. 
 MOLECULAR PHYSICS, 92 (3), 477-487 (1997). 
 A hybrid Gaussian and plane wave density functional scheme.
 https://dx.doi.org/10.1080/002689797170220

 Goedecker, S; Teter, M; Hutter, J. 
 PHYSICAL REVIEW B, 54 (3), 1703-1710 (1996). 
 Separable dual-space Gaussian pseudopotentials.
 https://dx.doi.org/10.1103/PhysRevB.54.1703


 -------------------------------------------------------------------------------
 -                                                                             -
 -                                T I M I N G                                  -
 -                                                                             -
 -------------------------------------------------------------------------------
 SUBROUTINE                       CALLS  ASD         SELF TIME        TOTAL TIME
                                MAXIMUM       AVERAGE  MAXIMUM  AVERAGE  MAXIMUM
 CP2K                                 1  1.0    0.177    0.177 2781.362 2781.362
 qs_forces                            1  2.0    0.000    0.000 2779.266 2779.266
 qs_energies                          1  3.0    0.000    0.000 2778.545 2778.545
 scf_env_do_scf                       1  4.0    0.001    0.001 2776.085 2776.085
 scf_env_do_scf_inner_loop          300  5.0    0.059    0.059 2776.084 2776.084
 qs_scf_new_mos                     300  6.0    0.009    0.009 1958.263 1958.263
 eigensolver                        300  7.0    0.044    0.044 1927.903 1927.903
 cp_fm_syevd                        300  8.0 1267.017 1267.017 1268.742 1268.742
 cp_fm_cholesky_restore             900  8.0  658.052  658.052  658.052  658.052
 gspace_mixing                      299  6.0    6.805    6.805  456.936  456.936
 broyden_mixing                     299  7.0  412.718  412.718  412.720  412.720
 rebuild_ks_matrix                  301  7.0    0.001    0.001  186.011  186.011
 qs_ks_build_kohn_sham_matrix       301  8.0    0.067    0.067  186.010  186.010
 qs_ks_update_qs_env                300  6.0    0.003    0.003  185.721  185.721
 pw_transfer                       3912  9.9    0.334    0.334  181.080  181.080
 fft_wrap_pw1pw2                   3310 10.9    0.034    0.034  176.227  176.227
 qs_rho_update_rho                  301  6.0    0.002    0.002  174.265  174.265
 calculate_rho_elec                 301  7.0   82.536   82.536  174.262  174.262
 fft_wrap_pw1pw2_70                1504 11.2   18.287   18.287  161.807  161.807
 density_rs2pw                      301  8.0    0.024    0.024   89.222   89.222
 fft3d_s                           3311 12.9   81.435   81.435   81.460   81.460
 pw_scatter_s                      1804 13.2   60.743   60.743   60.743   60.743
 pw_poisson_solve                   301  9.0   53.413   53.413   58.035   58.035
 -------------------------------------------------------------------------------

 The number of warnings for this run is : 1
 
 -------------------------------------------------------------------------------
  **** **** ******  **  PROGRAM ENDED AT                 2021-02-26 16:47:58.714
 ***** ** ***  *** **   PROGRAM RAN ON                                   gnode75
 **    ****   ******    PROGRAM RAN BY                               mayank.modi
 ***** **    ** ** **   PROGRAM PROCESS ID                                  1914
  **** **  *******  **  PROGRAM STOPPED IN /home/mayank.modi/ab-initio-thermodyn
                                           amics-of-water/mayank/cp2k_energy_cal
                                           culations
