 DBCSR| CPU Multiplication driver                                           XSMM
 DBCSR| Multrec recursion limit                                              512
 DBCSR| Multiplication stack size                                           1000
 DBCSR| Maximum elements for images                                    UNLIMITED
 DBCSR| Multiplicative factor virtual images                                   1
 DBCSR| Use multiplication densification                                       T
 DBCSR| Multiplication size stacks                                             3


  **** **** ******  **  PROGRAM STARTED AT               2021-02-25 11:18:38.955
 ***** ** ***  *** **   PROGRAM STARTED ON                               gnode75
 **    ****   ******    PROGRAM STARTED BY                           mayank.modi
 ***** **    ** ** **   PROGRAM PROCESS ID                                 24356
  **** **  *******  **  PROGRAM STARTED IN /home/mayank.modi/ab-initio-thermodyn
                                           amics-of-water/mayank/cp2k_energy_cal
                                           culations

 CP2K| version string:                                          CP2K version 7.1
 CP2K| source code revision number:                                  git:e635599
 CP2K| cp2kflags: omp libint fftw3 libxc xsmm spglib                            
 CP2K| is freely available from                            https://www.cp2k.org/
 CP2K| Program compiled at                          Mon Dec 23 19:23:12 CET 2019
 CP2K| Program compiled on                                                pc9404
 CP2K| Program compiled for                                Linux-x86-64-gfortran
 CP2K| Data directory path                                        /opt/cp2k/data
 CP2K| Input file name                   input_training_correct_cell/input209.in

 GLOBAL| Force Environment number                                              1
 GLOBAL| Basis set file name                                           BASIS_SET
 GLOBAL| Potential file name                                      GTH_POTENTIALS
 GLOBAL| MM Potential file name                                     MM_POTENTIAL
 GLOBAL| Coordinate file name                                      __STD_INPUT__
 GLOBAL| Method name                                                        CP2K
 GLOBAL| Project name                                                   H2O_bulk
 GLOBAL| Preferred FFT library                                             FFTW3
 GLOBAL| Preferred diagonalization lib.                                       SL
 GLOBAL| Run type                                                   ENERGY_FORCE
 GLOBAL| All-to-all communication in single precision                          F
 GLOBAL| FFTs using library dependent lengths                                  F
 GLOBAL| Global print level                                                  LOW
 GLOBAL| MPI I/O enabled                                                       T
 GLOBAL| Total number of message passing processes                             1
 GLOBAL| Number of threads for this process                                   36
 GLOBAL| This output is from process                                           0
 GLOBAL| CPU model name                Intel(R) Xeon(R) CPU E5-2640 v4 @ 2.40GHz
 GLOBAL| CPUID                                                              1002
 GLOBAL| Compiled for CPUID                                                    0

 MEMORY| system memory details [Kb]
 MEMORY|                        rank 0           min           max       average
 MEMORY| MemTotal            131893432     131893432     131893432     131893432
 MEMORY| MemFree             123199288     123199288     123199288     123199288
 MEMORY| Buffers               1045064       1045064       1045064       1045064
 MEMORY| Cached                6253248       6253248       6253248       6253248
 MEMORY| Slab                   959244        959244        959244        959244
 MEMORY| SReclaimable           704452        704452        704452        704452
 MEMORY| MemLikelyFree       131202052     131202052     131202052     131202052


 GENERATE| WARNING:: No connections detected for Hydrogen - Atom Nr:       117 !
 GENERATE| WARNING:: No connections detected for Hydrogen - Atom Nr:       165 !
 GENERATE|  Preliminary Number of Bonds generated:                             0
 GENERATE|  Achieved consistency in connectivity generation.

 *******************************************************************************
 *******************************************************************************
 **                                                                           **
 **     #####                         ##              ##                      **
 **    ##   ##            ##          ##              ##                      **
 **   ##     ##                       ##            ######                    **
 **   ##     ##  ##   ##  ##   #####  ##  ##   ####   ##    #####    #####    **
 **   ##     ##  ##   ##  ##  ##      ## ##   ##      ##   ##   ##  ##   ##   **
 **   ##  ## ##  ##   ##  ##  ##      ####     ###    ##   ######   ######    **
 **    ##  ###   ##   ##  ##  ##      ## ##      ##   ##   ##       ##        **
 **     #######   #####   ##   #####  ##  ##  ####    ##    #####   ##        **
 **           ##                                                    ##        **
 **                                                                           **
 **                                                ... make the atoms dance   **
 **                                                                           **
 **            Copyright (C) by CP2K developers group (2000 - 2019)           **
 **                                                                           **
 *******************************************************************************


 TOTAL NUMBERS AND MAXIMUM NUMBERS

  Total number of            - Atomic kinds:                                   2
                             - Atoms:                                        192
                             - Shell sets:                                   384
                             - Shells:                                       704
                             - Primitive Cartesian functions:                960
                             - Cartesian basis functions:                   1536
                             - Spherical basis functions:                   1472

  Maximum angular momentum of- Orbital basis functions:                        2
                             - Local part of the GTH pseudopotential:          2
                             - Non-local part of the GTH pseudopotential:      0


 SCF PARAMETERS         Density guess:                                    ATOMIC
                        --------------------------------------------------------
                        max_scf:                                             300
                        max_scf_history:                                       0
                        max_diis:                                              4
                        --------------------------------------------------------
                        eps_scf:                                        1.00E-07
                        eps_scf_history:                                0.00E+00
                        eps_diis:                                       1.00E-01
                        eps_eigval:                                     1.00E-05
                        --------------------------------------------------------
                        level_shift [a.u.]:                                 0.00
                        --------------------------------------------------------
                        Mixing method:                            BROYDEN_MIXING
                                                charge density mixing in g-space
                        --------------------------------------------------------
                        No outer SCF

 Number of electrons:                                                        512
 Number of occupied orbitals:                                                256
 Number of molecular orbitals:                                               256

 Number of orbital functions:                                               1472
 Number of independent orbital functions:                                   1472

 Extrapolation method: initial_guess


 SCF WAVEFUNCTION OPTIMIZATION

  Step     Update method      Time    Convergence         Total energy    Change
  ------------------------------------------------------------------------------
     1 NoMix/Diag. 0.40E+00    7.1     0.68792618     -1064.0797760907 -1.06E+03
     2 Broy./Diag. 0.40E+00    7.9     1.94449930      -991.2177374400  7.29E+01
     3 Broy./Diag. 0.40E+00    8.0     1.93487021     -1273.9898384397 -2.83E+02
     4 Broy./Diag. 0.40E+00    8.2     1.81561375     -1147.5266383032  1.26E+02
     5 Broy./Diag. 0.40E+00    8.4     1.94655934     -1091.2450464945  5.63E+01
     6 Broy./Diag. 0.40E+00    8.9     1.94708124     -1101.6552106633 -1.04E+01
     7 Broy./Diag. 0.40E+00    9.0     1.88513010     -1096.5820252515  5.07E+00
     8 Broy./Diag. 0.40E+00    9.1     1.68202682     -1093.0640011417  3.52E+00
     9 Broy./Diag. 0.40E+00    9.3     1.91648281     -1084.8122395694  8.25E+00
    10 Broy./Diag. 0.40E+00    9.5     1.92584477     -1086.9671975590 -2.15E+00
    11 Broy./Diag. 0.40E+00    9.6     1.86646174     -1089.4538140147 -2.49E+00
    12 Broy./Diag. 0.40E+00    9.5     1.91578061     -1080.4724283529  8.98E+00
    13 Broy./Diag. 0.40E+00    9.3     1.76079521     -1049.7706389702  3.07E+01
    14 Broy./Diag. 0.40E+00    9.4     1.82694768     -1092.9513636975 -4.32E+01
    15 Broy./Diag. 0.40E+00    9.3     1.87338103     -1090.4612082260  2.49E+00
    16 Broy./Diag. 0.40E+00    9.6     1.86927439     -1084.7761977944  5.69E+00
    17 Broy./Diag. 0.40E+00    9.5     1.89557771     -1069.3985641958  1.54E+01
    18 Broy./Diag. 0.40E+00    9.6     1.90204361     -1075.1184345810 -5.72E+00
    19 Broy./Diag. 0.40E+00    9.5     1.90520871     -1074.5737240437  5.45E-01
    20 Broy./Diag. 0.40E+00    9.5     1.75223833     -1076.8328534853 -2.26E+00
    21 Broy./Diag. 0.40E+00    9.4     1.80832904     -1068.8976648743  7.94E+00
    22 Broy./Diag. 0.40E+00    9.3     1.88509317     -1078.4628212433 -9.57E+00
    23 Broy./Diag. 0.40E+00    9.0     1.88519466     -1078.3652385518  9.76E-02
    24 Broy./Diag. 0.40E+00    9.3     1.83976948     -1079.9009601504 -1.54E+00
    25 Broy./Diag. 0.40E+00    9.9     1.77374797     -1076.5714506545  3.33E+00
    26 Broy./Diag. 0.40E+00    9.5     1.82263138     -1077.5608312927 -9.89E-01
    27 Broy./Diag. 0.40E+00    9.5     1.83951130     -1073.9137244049  3.65E+00
    28 Broy./Diag. 0.40E+00    9.7     1.86446590     -1074.8765294361 -9.63E-01
    29 Broy./Diag. 0.40E+00    9.7     1.80605518     -1072.1451756211  2.73E+00
    30 Broy./Diag. 0.40E+00    9.5     1.87428726     -1082.4961338627 -1.04E+01
    31 Broy./Diag. 0.40E+00    9.5     1.85898912     -1071.0940355173  1.14E+01
    32 Broy./Diag. 0.40E+00    9.3     1.88799282     -1076.7260325871 -5.63E+00
    33 Broy./Diag. 0.40E+00    9.3     1.81901655     -1086.1015649043 -9.38E+00
    34 Broy./Diag. 0.40E+00    9.4     1.88093246     -1070.3100796528  1.58E+01
    35 Broy./Diag. 0.40E+00    9.6     1.88271010     -1074.6758422662 -4.37E+00
    36 Broy./Diag. 0.40E+00    9.5     1.84320448     -1074.0764330787  5.99E-01
    37 Broy./Diag. 0.40E+00    9.5     1.82859565     -1081.6825621709 -7.61E+00
    38 Broy./Diag. 0.40E+00    9.5     1.59537693     -1076.4142025582  5.27E+00
    39 Broy./Diag. 0.40E+00    9.3     1.68250994     -1076.4374710658 -2.33E-02
    40 Broy./Diag. 0.40E+00    9.5     1.82188543     -1078.6397276931 -2.20E+00
    41 Broy./Diag. 0.40E+00    9.4     1.87366089     -1073.1338410443  5.51E+00
    42 Broy./Diag. 0.40E+00    9.4     1.82101833     -1069.3986274015  3.74E+00
    43 Broy./Diag. 0.40E+00    9.5     1.63475285     -1076.2151599613 -6.82E+00
    44 Broy./Diag. 0.40E+00    9.3     1.79198882     -1088.9175697592 -1.27E+01
    45 Broy./Diag. 0.40E+00    9.5     1.86734269     -1080.5663271781  8.35E+00
    46 Broy./Diag. 0.40E+00    9.5     1.86741934     -1069.3600552773  1.12E+01
    47 Broy./Diag. 0.40E+00    9.5     1.95266820     -1075.5645288672 -6.20E+00
    48 Broy./Diag. 0.40E+00    9.3     1.61532666     -1076.5560125873 -9.91E-01
    49 Broy./Diag. 0.40E+00    9.4     1.51492798     -1073.7497588576  2.81E+00
    50 Broy./Diag. 0.40E+00    9.3     1.83017746     -1073.9646081777 -2.15E-01
    51 Broy./Diag. 0.40E+00    9.5     1.86949202     -1076.6932281783 -2.73E+00
    52 Broy./Diag. 0.40E+00    9.4     1.79963233     -1072.4343452507  4.26E+00
    53 Broy./Diag. 0.40E+00    9.4     1.85250438     -1072.5845060249 -1.50E-01
    54 Broy./Diag. 0.40E+00    9.5     1.87435099     -1085.0251504292 -1.24E+01
    55 Broy./Diag. 0.40E+00    9.5     1.86815894     -1075.4531093080  9.57E+00
    56 Broy./Diag. 0.40E+00    9.7     1.84683704     -1075.3838689654  6.92E-02
    57 Broy./Diag. 0.40E+00    9.4     1.79993933     -1067.6479995260  7.74E+00
    58 Broy./Diag. 0.40E+00    9.4     1.84262835     -1080.6076002416 -1.30E+01
    59 Broy./Diag. 0.40E+00    9.5     1.83693336     -1075.8111994060  4.80E+00
    60 Broy./Diag. 0.40E+00    9.5     1.79175426     -1077.6372152606 -1.83E+00
    61 Broy./Diag. 0.40E+00    9.3     1.87941638     -1075.8178785866  1.82E+00
    62 Broy./Diag. 0.40E+00    9.5     1.90428484     -1075.1308808575  6.87E-01
    63 Broy./Diag. 0.40E+00    9.5     1.80125451     -1076.1676362902 -1.04E+00
    64 Broy./Diag. 0.40E+00    9.3     1.87319185     -1074.3817070979  1.79E+00
    65 Broy./Diag. 0.40E+00    9.0     1.79933105     -1073.2226712048  1.16E+00
    66 Broy./Diag. 0.40E+00    9.3     1.84396135     -1072.5093821030  7.13E-01
    67 Broy./Diag. 0.40E+00    9.3     1.85154656     -1076.7136653906 -4.20E+00
    68 Broy./Diag. 0.40E+00    9.5     1.85682430     -1077.4572690543 -7.44E-01
    69 Broy./Diag. 0.40E+00    9.5     1.86551370     -1075.9561192108  1.50E+00
    70 Broy./Diag. 0.40E+00    9.5     1.81409235     -1069.4946684236  6.46E+00
    71 Broy./Diag. 0.40E+00    9.4     1.83874434     -1076.7544370541 -7.26E+00
    72 Broy./Diag. 0.40E+00    9.5     1.85521727     -1078.9969744155 -2.24E+00
    73 Broy./Diag. 0.40E+00    9.3     1.83484211     -1078.8272762849  1.70E-01
    74 Broy./Diag. 0.40E+00    9.5     1.94279993     -1075.9579753012  2.87E+00
    75 Broy./Diag. 0.40E+00    9.4     1.82282157     -1071.4882839832  4.47E+00
    76 Broy./Diag. 0.40E+00    9.3     1.86472607     -1070.2903223309  1.20E+00
    77 Broy./Diag. 0.40E+00    9.0     1.83195699     -1078.4482709832 -8.16E+00
    78 Broy./Diag. 0.40E+00    8.8     1.91212803     -1075.9012575623  2.55E+00
    79 Broy./Diag. 0.40E+00    9.0     1.83241637     -1076.7518643321 -8.51E-01
    80 Broy./Diag. 0.40E+00    9.2     1.80083332     -1073.6577947576  3.09E+00
    81 Broy./Diag. 0.40E+00    9.3     1.86539606     -1081.0021239410 -7.34E+00
    82 Broy./Diag. 0.40E+00    9.5     1.80040935     -1069.7045633850  1.13E+01
    83 Broy./Diag. 0.40E+00    9.4     1.88994676     -1074.0456505563 -4.34E+00
    84 Broy./Diag. 0.40E+00    9.4     1.86821882     -1079.1479944658 -5.10E+00
    85 Broy./Diag. 0.40E+00    9.6     1.88470984     -1073.0121835023  6.14E+00
    86 Broy./Diag. 0.40E+00    9.5     1.79635161     -1079.9581503832 -6.95E+00
    87 Broy./Diag. 0.40E+00    9.5     1.81075250     -1073.6380030500  6.32E+00
    88 Broy./Diag. 0.40E+00    9.3     1.86561003     -1076.7422417012 -3.10E+00
    89 Broy./Diag. 0.40E+00    9.2     1.90674926     -1076.8524732395 -1.10E-01
    90 Broy./Diag. 0.40E+00    9.6     1.81679044     -1071.8361900266  5.02E+00
    91 Broy./Diag. 0.40E+00    9.3     1.63676732     -1079.8682372355 -8.03E+00
    92 Broy./Diag. 0.40E+00    8.9     1.79929401     -1072.7661242077  7.10E+00
    93 Broy./Diag. 0.40E+00    9.5     1.83259027     -1078.8776490681 -6.11E+00
    94 Broy./Diag. 0.40E+00    9.6     1.84590190     -1076.2283067719  2.65E+00
    95 Broy./Diag. 0.40E+00    9.3     1.86119150     -1070.0609378951  6.17E+00
    96 Broy./Diag. 0.40E+00    9.4     1.69822320     -1074.9686515099 -4.91E+00
    97 Broy./Diag. 0.40E+00    9.5     1.85225967     -1070.8157491675  4.15E+00
    98 Broy./Diag. 0.40E+00    9.3     1.85610116     -1083.6049122441 -1.28E+01
    99 Broy./Diag. 0.40E+00    9.5     1.88695515     -1081.3716100299  2.23E+00
   100 Broy./Diag. 0.40E+00    9.3     1.86430450     -1076.2833699865  5.09E+00
   101 Broy./Diag. 0.40E+00    9.0     1.91033011     -1074.9817929056  1.30E+00
   102 Broy./Diag. 0.40E+00    9.4     1.67941738     -1076.1961819623 -1.21E+00
   103 Broy./Diag. 0.40E+00    9.5     1.80502242     -1068.4269726216  7.77E+00
   104 Broy./Diag. 0.40E+00    9.7     1.87005137     -1083.5615726213 -1.51E+01
   105 Broy./Diag. 0.40E+00    9.4     1.72755061     -1071.9372340551  1.16E+01
   106 Broy./Diag. 0.40E+00    9.5     1.80722421     -1079.4257794068 -7.49E+00
   107 Broy./Diag. 0.40E+00    9.3     1.81903841     -1071.2973182738  8.13E+00
   108 Broy./Diag. 0.40E+00    9.4     1.87183732     -1072.1544272539 -8.57E-01
   109 Broy./Diag. 0.40E+00    9.3     1.85096430     -1081.2915008495 -9.14E+00
   110 Broy./Diag. 0.40E+00    9.2     1.78954821     -1079.0950097342  2.20E+00
   111 Broy./Diag. 0.40E+00    9.6     1.74750208     -1075.2906574437  3.80E+00
   112 Broy./Diag. 0.40E+00    9.5     1.82366304     -1070.0453092573  5.25E+00
   113 Broy./Diag. 0.40E+00    9.5     1.81152608     -1073.8014307301 -3.76E+00
   114 Broy./Diag. 0.40E+00    9.3     1.87441616     -1079.0987094269 -5.30E+00
   115 Broy./Diag. 0.40E+00    9.6     1.85058937     -1079.4083588637 -3.10E-01
   116 Broy./Diag. 0.40E+00    9.4     1.74295156     -1071.7381633527  7.67E+00
   117 Broy./Diag. 0.40E+00    9.5     1.80359450     -1077.4593072124 -5.72E+00
   118 Broy./Diag. 0.40E+00    9.5     1.90529320     -1072.2297915463  5.23E+00
   119 Broy./Diag. 0.40E+00    9.6     1.86604321     -1075.3893995522 -3.16E+00
   120 Broy./Diag. 0.40E+00    9.7     1.88745443     -1080.6917578136 -5.30E+00
   121 Broy./Diag. 0.40E+00    9.4     1.89619365     -1076.3909665285  4.30E+00
   122 Broy./Diag. 0.40E+00    9.3     1.79092432     -1069.5985503615  6.79E+00
   123 Broy./Diag. 0.40E+00    9.4     1.86255581     -1077.9725718243 -8.37E+00
   124 Broy./Diag. 0.40E+00    9.4     1.85319527     -1080.0323198359 -2.06E+00
   125 Broy./Diag. 0.40E+00    9.3     1.81429435     -1070.0805941485  9.95E+00
   126 Broy./Diag. 0.40E+00    9.3     1.86291690     -1077.8209210922 -7.74E+00
   127 Broy./Diag. 0.40E+00    9.3     1.86004099     -1080.3131529806 -2.49E+00
   128 Broy./Diag. 0.40E+00    9.5     1.85739248     -1073.5538299610  6.76E+00
   129 Broy./Diag. 0.40E+00    9.5     1.48019606     -1072.8995663580  6.54E-01
   130 Broy./Diag. 0.40E+00    9.3     1.80455742     -1070.0138909549  2.89E+00
   131 Broy./Diag. 0.40E+00    9.8     1.84441577     -1084.4241751582 -1.44E+01
   132 Broy./Diag. 0.40E+00    9.4     1.89502081     -1071.5941791627  1.28E+01
   133 Broy./Diag. 0.40E+00    9.3     1.82909473     -1083.8337368159 -1.22E+01
   134 Broy./Diag. 0.40E+00    9.6     1.79680813     -1073.2332449083  1.06E+01
   135 Broy./Diag. 0.40E+00    9.3     1.89032218     -1073.1159745889  1.17E-01
   136 Broy./Diag. 0.40E+00    9.4     1.89918738     -1066.6176471899  6.50E+00
   137 Broy./Diag. 0.40E+00    9.4     1.86452161     -1085.1856722312 -1.86E+01
   138 Broy./Diag. 0.40E+00    9.5     1.88235338     -1082.4298692361  2.76E+00
   139 Broy./Diag. 0.40E+00    9.3     1.77968853     -1074.0505889374  8.38E+00
   140 Broy./Diag. 0.40E+00    9.0     1.82533733     -1073.9105014073  1.40E-01
   141 Broy./Diag. 0.40E+00    8.9     1.83477770     -1065.5075062206  8.40E+00
   142 Broy./Diag. 0.40E+00    8.7     1.91069163     -1086.3902628671 -2.09E+01
   143 Broy./Diag. 0.40E+00    9.4     1.77518021     -1075.6630775612  1.07E+01
   144 Broy./Diag. 0.40E+00    9.6     1.80307730     -1074.3789309174  1.28E+00
   145 Broy./Diag. 0.40E+00    9.3     1.85558633     -1075.2389419409 -8.60E-01
   146 Broy./Diag. 0.40E+00    9.6     1.78573485     -1075.4624945929 -2.24E-01
   147 Broy./Diag. 0.40E+00    9.4     1.80637787     -1081.8993112692 -6.44E+00
   148 Broy./Diag. 0.40E+00    9.5     1.69410080     -1063.9894411553  1.79E+01
   149 Broy./Diag. 0.40E+00    9.5     1.81956048     -1078.1769158072 -1.42E+01
   150 Broy./Diag. 0.40E+00    9.7     1.87399610     -1074.6007996941  3.58E+00
   151 Broy./Diag. 0.40E+00    9.4     1.84136171     -1077.8974251960 -3.30E+00
   152 Broy./Diag. 0.40E+00    9.6     1.84748018     -1077.8942423326  3.18E-03
   153 Broy./Diag. 0.40E+00    9.3     1.78659484     -1079.8566345294 -1.96E+00
   154 Broy./Diag. 0.40E+00    9.3     1.81430092     -1073.7707002461  6.09E+00
   155 Broy./Diag. 0.40E+00    9.3     1.86480054     -1074.6126182195 -8.42E-01
   156 Broy./Diag. 0.40E+00    9.0     1.74681977     -1076.7961933060 -2.18E+00
   157 Broy./Diag. 0.40E+00    9.2     1.79730000     -1071.6155162957  5.18E+00
   158 Broy./Diag. 0.40E+00    9.4     1.87015622     -1080.1746503519 -8.56E+00
   159 Broy./Diag. 0.40E+00    9.2     1.87025258     -1074.0298029727  6.14E+00
   160 Broy./Diag. 0.40E+00    9.1     1.87259650     -1077.7432578883 -3.71E+00
   161 Broy./Diag. 0.40E+00    9.0     1.68831337     -1072.9927702095  4.75E+00
   162 Broy./Diag. 0.40E+00    9.4     1.77026306     -1075.0524574544 -2.06E+00
   163 Broy./Diag. 0.40E+00    9.5     1.78576160     -1074.6431394425  4.09E-01
   164 Broy./Diag. 0.40E+00    9.4     1.84609688     -1074.8345146558 -1.91E-01
   165 Broy./Diag. 0.40E+00    9.4     1.89994871     -1077.0110931921 -2.18E+00
   166 Broy./Diag. 0.40E+00    9.5     1.82566716     -1081.5557824156 -4.54E+00
   167 Broy./Diag. 0.40E+00    9.3     1.82832718     -1067.2393492994  1.43E+01
   168 Broy./Diag. 0.40E+00    9.2     1.73060746     -1075.1277118675 -7.89E+00
   169 Broy./Diag. 0.40E+00    9.4     1.80716946     -1071.9719081575  3.16E+00
   170 Broy./Diag. 0.40E+00    9.4     1.82797092     -1078.0455546575 -6.07E+00
   171 Broy./Diag. 0.40E+00    9.3     1.80635397     -1075.9873804366  2.06E+00
   172 Broy./Diag. 0.40E+00    9.0     1.85263127     -1078.3314576183 -2.34E+00
   173 Broy./Diag. 0.40E+00    8.8     1.78773051     -1079.0213978426 -6.90E-01
   174 Broy./Diag. 0.40E+00    9.0     1.86444677     -1075.3270548652  3.69E+00
   175 Broy./Diag. 0.40E+00    9.0     1.81744595     -1079.9300214490 -4.60E+00
   176 Broy./Diag. 0.40E+00    9.4     1.93218738     -1067.7013397002  1.22E+01
   177 Broy./Diag. 0.40E+00    9.4     1.87002834     -1076.1823119177 -8.48E+00
   178 Broy./Diag. 0.40E+00    9.3     1.86011603     -1074.8263113076  1.36E+00
   179 Broy./Diag. 0.40E+00    9.2     1.79495368     -1073.6742714041  1.15E+00
   180 Broy./Diag. 0.40E+00    9.6     1.83655196     -1074.9284156214 -1.25E+00
   181 Broy./Diag. 0.40E+00    9.6     1.81416414     -1077.4973259688 -2.57E+00
   182 Broy./Diag. 0.40E+00    9.8     1.85943690     -1086.4872421616 -8.99E+00
   183 Broy./Diag. 0.40E+00    9.3     1.89586011     -1067.9781812006  1.85E+01
   184 Broy./Diag. 0.40E+00    9.6     1.81018920     -1072.4561247442 -4.48E+00
   185 Broy./Diag. 0.40E+00    9.2     1.88012527     -1073.9474489626 -1.49E+00
   186 Broy./Diag. 0.40E+00    9.4     1.86715307     -1073.2652923709  6.82E-01
   187 Broy./Diag. 0.40E+00    9.3     1.79831358     -1076.4315093832 -3.17E+00
   188 Broy./Diag. 0.40E+00    9.3     1.85355542     -1078.3707745507 -1.94E+00
   189 Broy./Diag. 0.40E+00    9.5     1.69373647     -1075.9564447614  2.41E+00
   190 Broy./Diag. 0.40E+00    9.5     1.82231126     -1073.1026458500  2.85E+00
   191 Broy./Diag. 0.40E+00    9.3     1.84488505     -1075.3242601541 -2.22E+00
   192 Broy./Diag. 0.40E+00    9.3     1.77573517     -1075.5032583352 -1.79E-01
   193 Broy./Diag. 0.40E+00    9.4     1.79986930     -1075.5917718485 -8.85E-02
   194 Broy./Diag. 0.40E+00    9.5     1.83360979     -1080.4219550172 -4.83E+00
   195 Broy./Diag. 0.40E+00    9.5     1.83830142     -1073.6683817940  6.75E+00
   196 Broy./Diag. 0.40E+00    9.7     1.76083240     -1079.5807166385 -5.91E+00
   197 Broy./Diag. 0.40E+00    9.4     1.77875299     -1072.1073182344  7.47E+00
   198 Broy./Diag. 0.40E+00    9.4     1.85467698     -1074.6952365555 -2.59E+00
   199 Broy./Diag. 0.40E+00    9.3     1.84445701     -1073.9800479620  7.15E-01
   200 Broy./Diag. 0.40E+00    9.4     1.89702796     -1070.9672036221  3.01E+00
   201 Broy./Diag. 0.40E+00    9.5     1.79673176     -1072.4390324301 -1.47E+00
   202 Broy./Diag. 0.40E+00    9.4     1.83674700     -1080.7803274170 -8.34E+00
   203 Broy./Diag. 0.40E+00    9.3     1.86950201     -1077.7033244698  3.08E+00
   204 Broy./Diag. 0.40E+00    9.3     1.90719795     -1073.3582155867  4.35E+00
   205 Broy./Diag. 0.40E+00    9.4     1.78893804     -1069.8871859357  3.47E+00
   206 Broy./Diag. 0.40E+00    9.4     1.88264710     -1074.0276887968 -4.14E+00
   207 Broy./Diag. 0.40E+00    9.4     1.86642289     -1079.2150114665 -5.19E+00
   208 Broy./Diag. 0.40E+00    9.4     1.86471692     -1078.0825549943  1.13E+00
   209 Broy./Diag. 0.40E+00    9.5     1.85347952     -1071.7629568859  6.32E+00
   210 Broy./Diag. 0.40E+00    9.5     1.82583996     -1083.5431387077 -1.18E+01
   211 Broy./Diag. 0.40E+00    9.3     1.88372940     -1074.8397342972  8.70E+00
   212 Broy./Diag. 0.40E+00    9.0     1.83607207     -1072.4863235958  2.35E+00
   213 Broy./Diag. 0.40E+00    9.4     1.87718130     -1076.6074150793 -4.12E+00
   214 Broy./Diag. 0.40E+00    9.4     1.79212766     -1072.5792173782  4.03E+00
   215 Broy./Diag. 0.40E+00    9.2     1.84978605     -1076.1806584906 -3.60E+00
   216 Broy./Diag. 0.40E+00    9.3     1.74530206     -1078.5888932234 -2.41E+00
   217 Broy./Diag. 0.40E+00    9.4     1.83396582     -1074.1024926902  4.49E+00
   218 Broy./Diag. 0.40E+00    9.4     1.89263340     -1071.1248836853  2.98E+00
   219 Broy./Diag. 0.40E+00    9.3     1.83997350     -1081.7483192332 -1.06E+01
   220 Broy./Diag. 0.40E+00    9.4     1.83622599     -1073.3128664530  8.44E+00
   221 Broy./Diag. 0.40E+00    9.8     1.90064745     -1077.0708264419 -3.76E+00
   222 Broy./Diag. 0.40E+00    9.4     1.83758633     -1074.7992582151  2.27E+00
   223 Broy./Diag. 0.40E+00    9.3     1.87116394     -1077.3043028789 -2.51E+00
   224 Broy./Diag. 0.40E+00    9.5     1.79828581     -1076.5627069788  7.42E-01
   225 Broy./Diag. 0.40E+00    9.6     1.91955650     -1067.0904846070  9.47E+00
   226 Broy./Diag. 0.40E+00    9.4     1.82744978     -1089.0855570742 -2.20E+01
   227 Broy./Diag. 0.40E+00    9.4     1.82973143     -1075.2765294559  1.38E+01
   228 Broy./Diag. 0.40E+00    9.3     1.80888950     -1076.3988936739 -1.12E+00
   229 Broy./Diag. 0.40E+00    9.4     1.81195997     -1073.8120391686  2.59E+00
   230 Broy./Diag. 0.40E+00    9.4     1.84403624     -1085.6029679475 -1.18E+01
   231 Broy./Diag. 0.40E+00    9.3     1.88885497     -1067.8690369814  1.77E+01
   232 Broy./Diag. 0.40E+00    9.1     1.89996870     -1083.9480483060 -1.61E+01
   233 Broy./Diag. 0.40E+00    9.5     1.85538188     -1073.8517851439  1.01E+01
   234 Broy./Diag. 0.40E+00    9.3     1.85386492     -1080.0108487413 -6.16E+00
   235 Broy./Diag. 0.40E+00    9.3     1.93610902     -1075.0991190347  4.91E+00
   236 Broy./Diag. 0.40E+00    9.4     1.86360805     -1073.5683377594  1.53E+00
   237 Broy./Diag. 0.40E+00    9.8     1.80892357     -1075.2025053212 -1.63E+00
   238 Broy./Diag. 0.40E+00    9.5     1.86829626     -1075.8949927337 -6.92E-01
   239 Broy./Diag. 0.40E+00    9.3     1.67509221     -1078.4840497027 -2.59E+00
   240 Broy./Diag. 0.40E+00    9.4     1.85326019     -1071.3536059977  7.13E+00
   241 Broy./Diag. 0.40E+00    9.3     1.84854721     -1070.5999488737  7.54E-01
   242 Broy./Diag. 0.40E+00    9.3     1.85750135     -1088.2833326632 -1.77E+01
   243 Broy./Diag. 0.40E+00    9.5     1.81642200     -1075.8926952433  1.24E+01
   244 Broy./Diag. 0.40E+00    9.5     1.85880597     -1069.0392127979  6.85E+00
   245 Broy./Diag. 0.40E+00    9.4     1.89652010     -1074.6671401238 -5.63E+00
   246 Broy./Diag. 0.40E+00    9.3     1.87238052     -1081.3011452665 -6.63E+00
   247 Broy./Diag. 0.40E+00    9.0     1.79306064     -1074.2296097308  7.07E+00
   248 Broy./Diag. 0.40E+00    9.1     1.84382898     -1076.6493124069 -2.42E+00
   249 Broy./Diag. 0.40E+00    9.6     1.72877427     -1072.1622993776  4.49E+00
   250 Broy./Diag. 0.40E+00    9.3     1.79612079     -1075.7570672376 -3.59E+00
   251 Broy./Diag. 0.40E+00    9.7     1.85237191     -1071.7751453635  3.98E+00
   252 Broy./Diag. 0.40E+00    9.6     1.89439810     -1077.3276919569 -5.55E+00
   253 Broy./Diag. 0.40E+00    9.3     1.81079022     -1072.9464538169  4.38E+00
   254 Broy./Diag. 0.40E+00    9.6     1.86888100     -1077.6316451689 -4.69E+00
   255 Broy./Diag. 0.40E+00    9.4     1.80044038     -1076.9284693235  7.03E-01
   256 Broy./Diag. 0.40E+00    9.4     1.85117918     -1079.4054048609 -2.48E+00
   257 Broy./Diag. 0.40E+00    9.6     1.85107493     -1064.8967528217  1.45E+01
   258 Broy./Diag. 0.40E+00    9.4     1.86242528     -1090.6468365622 -2.58E+01
   259 Broy./Diag. 0.40E+00    9.6     1.73547493     -1080.1835645783  1.05E+01
   260 Broy./Diag. 0.40E+00    9.2     1.81922517     -1075.6662387921  4.52E+00
   261 Broy./Diag. 0.40E+00    9.3     1.88686030     -1073.6291343522  2.04E+00
   262 Broy./Diag. 0.40E+00    9.3     1.80105917     -1075.1938121030 -1.56E+00
   263 Broy./Diag. 0.40E+00    9.3     1.87254081     -1071.0999859304  4.09E+00
   264 Broy./Diag. 0.40E+00    9.4     1.77323490     -1069.5307654211  1.57E+00
   265 Broy./Diag. 0.40E+00    9.6     1.81234570     -1083.2439790792 -1.37E+01
   266 Broy./Diag. 0.40E+00    9.3     1.85817600     -1079.1550748757  4.09E+00
   267 Broy./Diag. 0.40E+00    9.1     1.75561988     -1080.1247316044 -9.70E-01
   268 Broy./Diag. 0.40E+00    9.5     1.65744430     -1071.6978398266  8.43E+00
   269 Broy./Diag. 0.40E+00    9.5     1.82712128     -1076.0662386760 -4.37E+00
   270 Broy./Diag. 0.40E+00    9.3     1.89284016     -1074.2742867951  1.79E+00
   271 Broy./Diag. 0.40E+00    9.4     1.79456222     -1071.0401406746  3.23E+00
   272 Broy./Diag. 0.40E+00    9.5     1.87579603     -1077.4611048543 -6.42E+00
   273 Broy./Diag. 0.40E+00    9.4     1.87157148     -1076.8613818877  6.00E-01
   274 Broy./Diag. 0.40E+00    9.6     1.77457918     -1075.6597815322  1.20E+00
   275 Broy./Diag. 0.40E+00    9.5     1.81071284     -1075.4371861614  2.23E-01
   276 Broy./Diag. 0.40E+00    9.3     1.86911425     -1074.0127070721  1.42E+00
   277 Broy./Diag. 0.40E+00    9.3     1.85528928     -1082.6857402664 -8.67E+00
   278 Broy./Diag. 0.40E+00    9.0     1.85014595     -1075.7229823316  6.96E+00
   279 Broy./Diag. 0.40E+00    8.9     1.87497692     -1074.6408292737  1.08E+00
   280 Broy./Diag. 0.40E+00    9.1     1.87127864     -1073.8787107594  7.62E-01
   281 Broy./Diag. 0.40E+00    8.8     1.88947561     -1072.5100301944  1.37E+00
   282 Broy./Diag. 0.40E+00    9.5     1.84005832     -1077.4708566331 -4.96E+00
   283 Broy./Diag. 0.40E+00    9.2     1.79090831     -1082.1978049501 -4.73E+00
   284 Broy./Diag. 0.40E+00    9.1     1.82250239     -1075.7759223255  6.42E+00
   285 Broy./Diag. 0.40E+00    9.6     1.81701331     -1065.7622002378  1.00E+01
   286 Broy./Diag. 0.40E+00    9.5     1.85757579     -1081.5619977477 -1.58E+01
   287 Broy./Diag. 0.40E+00    9.5     1.83389202     -1080.5803099030  9.82E-01
   288 Broy./Diag. 0.40E+00    9.5     1.89220947     -1072.6425493149  7.94E+00
   289 Broy./Diag. 0.40E+00    9.3     1.84609254     -1075.2748071482 -2.63E+00
   290 Broy./Diag. 0.40E+00    9.1     1.89613402     -1073.0240304851  2.25E+00
   291 Broy./Diag. 0.40E+00    9.2     1.83790306     -1075.6554925235 -2.63E+00
   292 Broy./Diag. 0.40E+00    9.7     1.85464454     -1074.1311965827  1.52E+00
   293 Broy./Diag. 0.40E+00    9.5     1.86543011     -1077.6668362974 -3.54E+00
   294 Broy./Diag. 0.40E+00    9.4     1.80517533     -1079.7888300590 -2.12E+00
   295 Broy./Diag. 0.40E+00    9.5     1.71008160     -1069.9559513946  9.83E+00
   296 Broy./Diag. 0.40E+00    9.4     1.79620347     -1074.9924991405 -5.04E+00
   297 Broy./Diag. 0.40E+00    9.4     1.85949270     -1074.2853567480  7.07E-01
   298 Broy./Diag. 0.40E+00    9.4     1.81873418     -1076.0409659913 -1.76E+00
   299 Broy./Diag. 0.40E+00    9.3     1.67370261     -1075.6059370733  4.35E-01
   300 Broy./Diag. 0.40E+00    9.3     1.55859595     -1072.3848880155  3.22E+00

  Leaving inner SCF loop after reaching   300 steps.


  Electronic density on regular grids:       -511.9999461190        0.0000538810
  Core density on regular grids:              511.9995538899       -0.0004461101
  Total charge density on r-space grids:       -0.0003922291
  Total charge density g-space grids:          -0.0003922291

  Overlap energy of the core charge distribution:               0.00000000000000
  Self energy of the core charge distribution:              -2838.21791979120962
  Core Hamiltonian energy:                                    764.83126355556067
  Hartree energy:                                            1239.42008022625987
  Exchange-correlation energy:                               -238.41831200608715

  Total energy:                                             -1072.38488801547601

 *** WARNING in qs_scf.F:542 :: SCF run NOT converged ***


 ENERGY| Total FORCE_EVAL ( QS ) energy (a.u.):            -1068.029995927701066


 ATOMIC FORCES in [a.u.]

 # Atom   Kind   Element          X              Y              Z
      1      1      O          -0.13404220     0.02818897    -0.01690920
      2      2      H           0.04733091     0.01120502     0.03440982
      3      2      H          -0.01385676     0.05879448    -0.03974513
      4      1      O           0.07375593    -0.05371449    -0.01949994
      5      2      H           0.04632419    -0.05146033     0.02239591
      6      2      H          -0.04796202     0.08495991     0.01185107
      7      1      O           0.01672015    -0.13627541     0.13022673
      8      2      H           0.04904916     0.07290036    -0.05718572
      9      2      H          -0.06537522     0.01518769    -0.06895646
     10      1      O           0.04117707    -0.09305241     0.00027946
     11      2      H           0.00462946     0.05267909     0.06144201
     12      2      H          -0.01031309     0.07932218    -0.09460780
     13      1      O           0.06624707     0.02593329     0.09097212
     14      2      H          -0.05360559    -0.02467442    -0.03047020
     15      2      H           0.02318276    -0.00795510    -0.01037371
     16      1      O           0.06904496     0.00794924     0.04660135
     17      2      H           0.01820245     0.05396137     0.10953150
     18      2      H          -0.10274110    -0.02746650    -0.02201376
     19      1      O           0.04034373    -0.05984597    -0.04549784
     20      2      H          -0.03050314     0.06857040    -0.05790377
     21      2      H           0.08856143     0.04207711    -0.01718569
     22      1      O          -0.02798374    -0.11566819     0.13692070
     23      2      H          -0.03722415     0.10324239    -0.03824973
     24      2      H           0.07788355    -0.03125399    -0.02626908
     25      1      O           0.09118434     0.06086825    -0.05938442
     26      2      H          -0.01105451     0.00815686    -0.04172006
     27      2      H          -0.04834160    -0.09734190     0.01553080
     28      1      O          -0.00088874    -0.04037740    -0.00102222
     29      2      H           0.01364775    -0.05063580     0.02354534
     30      2      H           0.02651912     0.02782086    -0.02326775
     31      1      O          -0.09621988    -0.02727498    -0.00821142
     32      2      H           0.02316072     0.02314687    -0.01717450
     33      2      H           0.01653876    -0.00604541    -0.02937774
     34      1      O          -0.18798124     0.06974268     0.16242371
     35      2      H           0.11179722    -0.09005921     0.02957083
     36      2      H           0.03382726     0.11175241    -0.08191212
     37      1      O          -0.11605915    -0.07238409    -0.06517345
     38      2      H           0.08381263     0.04671356     0.07026560
     39      2      H          -0.07729673     0.00600829     0.04083368
     40      1      O           0.16240738    -0.03723493    -0.07438638
     41      2      H          -0.06672569    -0.00215480     0.05573767
     42      2      H          -0.06225850    -0.11553103    -0.01261812
     43      1      O           0.05559499     0.15874444     0.11962416
     44      2      H          -0.02226316    -0.09471640     0.03514096
     45      2      H           0.06510091    -0.05972474    -0.02563854
     46      1      O           0.15894586     0.02719164     0.16065241
     47      2      H           0.00959821     0.11603237    -0.05586016
     48      2      H          -0.05004600    -0.04109767    -0.04880569
     49      1      O           0.14090324     0.02405109    -0.00777990
     50      2      H          -0.01451833    -0.02272558    -0.03979119
     51      2      H          -0.08989796     0.06434237     0.03384761
     52      1      O           0.01004926    -0.03125435    -0.05033691
     53      2      H           0.06825355    -0.05005399     0.02498661
     54      2      H          -0.01294760     0.02865566     0.08589178
     55      1      O          -0.05818253    -0.06527032    -0.01830239
     56      2      H          -0.08620979    -0.03220803     0.00290235
     57      2      H           0.08372231    -0.01653772     0.03797564
     58      1      O          -0.06008051     0.05073554     0.01444591
     59      2      H          -0.03094866    -0.03443188     0.03720925
     60      2      H          -0.05099102    -0.09037885    -0.01687102
     61      1      O          -0.00602766     0.04051330     0.08582151
     62      2      H           0.02505660    -0.09859707     0.02931556
     63      2      H           0.08201457     0.03133896     0.02348120
     64      1      O           0.10583952    -0.08084600     0.04822269
     65      2      H           0.00566448     0.07199583    -0.02354695
     66      2      H          -0.01268296    -0.07119168    -0.02217052
     67      1      O          -0.05332852    -0.08293703    -0.08448989
     68      2      H          -0.00558627     0.11596486     0.01630368
     69      2      H          -0.04662002    -0.06044916     0.05045310
     70      1      O           0.01351581    -0.13016656     0.00630724
     71      2      H          -0.00883010     0.03797823     0.11762411
     72      2      H           0.06101313     0.07077251    -0.01251522
     73      1      O          -0.03319061    -0.07287837    -0.19194711
     74      2      H           0.12269246     0.12295661    -0.00077195
     75      2      H          -0.08720880     0.02010599     0.17314081
     76      1      O          -0.07046140    -0.13791005     0.04324581
     77      2      H           0.07512548    -0.01251619     0.05461495
     78      2      H          -0.03407804     0.04070054    -0.00102131
     79      1      O          -0.03781268     0.05446478    -0.08684302
     80      2      H          -0.08540143    -0.03975223     0.02179148
     81      2      H           0.03730862    -0.04541211    -0.00005529
     82      1      O           0.08050084    -0.12803570    -0.02504236
     83      2      H           0.02977874     0.09782518     0.02798621
     84      2      H           0.03301572    -0.03296683     0.04369429
     85      1      O          -0.11855912     0.06883056    -0.11105008
     86      2      H           0.06588398     0.09272708    -0.04478652
     87      2      H           0.01333468    -0.05230414     0.08970720
     88      1      O          -0.08689703     0.05598403     0.09320961
     89      2      H           0.02822981    -0.02133043    -0.00021142
     90      2      H          -0.02511611    -0.02408859    -0.01654761
     91      1      O           0.11238786    -0.08460983    -0.12484336
     92      2      H          -0.05340137    -0.07831928     0.01035481
     93      2      H          -0.00503534     0.11839243     0.02813853
     94      1      O           0.04074863    -0.06346635     0.00639935
     95      2      H          -0.05090378     0.02735223     0.07810138
     96      2      H           0.01917577    -0.02516534    -0.01056168
     97      1      O           0.05466393    -0.02584878    -0.01587482
     98      2      H           0.02001096     0.04645656     0.09358662
     99      2      H           0.02139165    -0.07831592    -0.00666536
    100      1      O          -0.12972943     0.03721685     0.02578895
    101      2      H          -0.00639456     0.00048192     0.07152593
    102      2      H           0.09002574     0.01661606     0.01787833
    103      1      O          -0.00911093    -0.14804081    -0.08296384
    104      2      H          -0.03910531    -0.02031880    -0.06516958
    105      2      H           0.04760337     0.07771989     0.04074129
    106      1      O           0.07033125    -0.05342168     0.20229676
    107      2      H           0.06905981    -0.02245688    -0.09240996
    108      2      H          -0.05597180     0.02688387     0.00773522
    109      1      O           0.02666305     0.07122240     0.02403407
    110      2      H           0.00021807     0.04727636     0.04145847
    111      2      H           0.00077397    -0.07151759     0.03368095
    112      1      O           0.09603275     0.03329937    -0.13473339
    113      2      H          -0.07927422     0.06563200    -0.00796010
    114      2      H           0.02224590    -0.00908854     0.04781355
    115      1      O          -0.00674635     0.09519508    -0.08580609
    116      2      H           0.05530095     0.01175413    -0.02215265
    117      2      H           0.03298066    -0.03888969     0.01606476
    118      1      O          -0.13576166     0.18595613    -0.10844328
    119      2      H           0.06088868    -0.03225103     0.12665951
    120      2      H           0.02246231    -0.04485014    -0.08689753
    121      1      O          -0.02529690    -0.10115471    -0.00457422
    122      2      H           0.04994762     0.00055626    -0.01271219
    123      2      H          -0.00927322     0.02619817     0.02565108
    124      1      O          -0.01809036     0.00668067    -0.09597246
    125      2      H          -0.00117006     0.07400421    -0.02348598
    126      2      H           0.04605158    -0.03105193     0.03034524
    127      1      O           0.12511852     0.00077388     0.04300845
    128      2      H          -0.06712143     0.00098113    -0.04173133
    129      2      H           0.00335497    -0.09996331    -0.00034116
    130      1      O           0.11326743    -0.00829770    -0.03300887
    131      2      H          -0.02815578    -0.05602152    -0.10762282
    132      2      H          -0.06558099     0.00036749     0.07847975
    133      1      O           0.01432360    -0.13138268     0.03634128
    134      2      H           0.05489683     0.04312318     0.05831591
    135      2      H          -0.06867757     0.07535471    -0.04586145
    136      1      O          -0.08283000     0.14540945     0.01982153
    137      2      H           0.03122911    -0.08243875     0.00616072
    138      2      H           0.01536544    -0.12579851    -0.02641556
    139      1      O           0.09455427     0.16151975    -0.10628983
    140      2      H           0.03853996    -0.08652811     0.03452281
    141      2      H          -0.09892936    -0.02027148    -0.02999620
    142      1      O           0.07751852     0.02013099     0.03141540
    143      2      H          -0.00637519    -0.10041435    -0.03421690
    144      2      H          -0.03169172     0.02412005     0.02675073
    145      1      O          -0.06029107     0.08775843    -0.08495508
    146      2      H           0.00857762    -0.00086550     0.01306802
    147      2      H          -0.00358629    -0.04954450    -0.01660013
    148      1      O           0.11646178    -0.10816771    -0.00118406
    149      2      H          -0.02319845     0.06494969     0.07523899
    150      2      H          -0.02115705     0.03067112    -0.06871037
    151      1      O           0.00319133    -0.00407512    -0.02154396
    152      2      H          -0.05124121    -0.05312604     0.07240013
    153      2      H           0.10063443     0.04776678    -0.00444633
    154      1      O           0.13273545    -0.13416629    -0.04597376
    155      2      H          -0.04458667     0.01588599    -0.07149950
    156      2      H           0.02677737     0.03763662     0.06115034
    157      1      O           0.13075514     0.01566619    -0.00601775
    158      2      H          -0.05011943     0.03817347    -0.00854637
    159      2      H           0.03014999     0.06319962     0.03488485
    160      1      O          -0.16045002    -0.15691554    -0.04377747
    161      2      H           0.07378595    -0.02550867    -0.00463591
    162      2      H           0.00590729     0.04838279    -0.08134398
    163      1      O           0.12430997    -0.06066402     0.09448056
    164      2      H           0.00164022     0.01124100    -0.07615485
    165      2      H          -0.02419120    -0.00638945    -0.00453236
    166      1      O           0.09996775    -0.03720491     0.03712500
    167      2      H           0.02782120    -0.03176470    -0.03759093
    168      2      H          -0.01440138    -0.04782591     0.04239730
    169      1      O           0.12590699     0.02809146     0.06330224
    170      2      H          -0.02929996     0.01345122    -0.00153063
    171      2      H           0.03479515     0.03807052    -0.00445505
    172      1      O           0.01915652    -0.05147925     0.02263236
    173      2      H          -0.04053451     0.00868319     0.04238850
    174      2      H           0.07134710     0.04815989    -0.02920473
    175      1      O           0.13608995     0.07561179     0.09023140
    176      2      H          -0.05065116     0.08088457    -0.01192833
    177      2      H          -0.01835097    -0.08019195    -0.02409234
    178      1      O           0.14125965     0.04982190    -0.13279905
    179      2      H           0.04455175    -0.07788481     0.03973843
    180      2      H          -0.07376876     0.05411016     0.01509593
    181      1      O          -0.08024271     0.00405299    -0.03637642
    182      2      H           0.01495174     0.09692132     0.05318661
    183      2      H           0.07559442    -0.03254437    -0.09950726
    184      1      O           0.01562573     0.01570696     0.10327722
    185      2      H          -0.01900964    -0.00150713     0.01588070
    186      2      H          -0.09490596     0.04888564     0.04874960
    187      1      O           0.02153962     0.03083491    -0.13650589
    188      2      H           0.04475589    -0.00265228     0.00012418
    189      2      H          -0.04755649     0.05481970     0.08603161
    190      1      O           0.10880042    -0.05464329     0.10233971
    191      2      H          -0.06514044     0.05028464    -0.05995507
    192      2      H          -0.04350409    -0.07286971    -0.00774182
 SUM OF ATOMIC FORCES           1.39158027    -0.44857224     0.52510822     1.55352867

 -------------------------------------------------------------------------------
 -                                                                             -
 -                                DBCSR STATISTICS                             -
 -                                                                             -
 -------------------------------------------------------------------------------
 COUNTER                                    TOTAL       BLAS       SMM       ACC
 flops     5 x     5 x   256           4742796800       0.0%    100.0%      0.0%
 flops    13 x     5 x   256           5619694080       0.0%    100.0%      0.0%
 flops     5 x    13 x   256           5810022400       0.0%    100.0%      0.0%
 flops    13 x    13 x   256           7969747968       0.0%    100.0%      0.0%
 flops inhomo. stacks                           0       0.0%      0.0%      0.0%
 flops total                        24.142261E+09       0.0%    100.0%      0.0%
 flops max/rank                     24.142261E+09       0.0%    100.0%      0.0%
 matmuls inhomo. stacks                         0       0.0%      0.0%      0.0%
 matmuls total                             806078       0.0%    100.0%      0.0%
 number of processed stacks                 42140       0.0%    100.0%      0.0%
 average stack size                                     0.0      19.1       0.0
 marketing flops                   333.927416E+09
 -------------------------------------------------------------------------------
 # multiplications                            301
 max memory usage/rank               5.025985E+09
 # max total images/rank                        1
 # max 3D layers                                1
 # MPI messages exchanged                       0
 MPI messages size (bytes):
  total size                         0.000000E+00
  min size                           0.000000E+00
  max size                           0.000000E+00
  average size                       0.000000E+00
 MPI breakdown and total messages size (bytes):
             size <=      128                   0                        0
       128 < size <=     8192                   0                        0
      8192 < size <=    32768                   0                        0
     32768 < size <=   131072                   0                        0
    131072 < size <=  4194304                   0                        0
   4194304 < size <= 16777216                   0                        0
  16777216 < size                               0                        0
 -------------------------------------------------------------------------------

 MEMORY| Estimated peak process memory [MiB]                                4787

 -------------------------------------------------------------------------------
 -                                                                             -
 -                           R E F E R E N C E S                               -
 -                                                                             -
 -------------------------------------------------------------------------------
 
 CP2K version 7.1, the CP2K developers group (2019).
 CP2K is freely available from https://www.cp2k.org/ .

 Schuett, Ole; Messmer, Peter; Hutter, Juerg; VandeVondele, Joost. 
 Electronic Structure Calculations on Graphics Processing Units, John
 Wiley & Sons, Ltd, 173-190 (2016). 
 GPU-Accelerated Sparse Matrix-Matrix Multiplication for
 Linear Scaling Density Functional Theory.
 https://dx.doi.org/10.1002/9781118670712.ch8

 Borstnik, U; VandeVondele, J; Weber, V; Hutter, J. 
 PARALLEL COMPUTING, 40 (5-6), 47-58 (2014). 
 Sparse matrix multiplication: The distributed block-compressed sparse
 row library.
 https://dx.doi.org/10.1016/j.parco.2014.03.012

 Hutter, J; Iannuzzi, M; Schiffmann, F; VandeVondele, J. 
 WIREs Comput Mol Sci., 4 (1), 15-25 (2014). 
 CP2K: atomistic simulations of condensed matter systems.
 https://dx.doi.org/10.1002/wcms.1159

 Krack, M. 
 THEORETICAL CHEMISTRY ACCOUNTS, 114 (1-3), 145-152 (2005). 
 Pseudopotentials for H to Kr optimized for gradient-corrected
 exchange-correlation functionals.
 https://dx.doi.org/10.1007/s00214-005-0655-y

 VandeVondele, J; Krack, M; Mohamed, F; Parrinello, M; Chassaing, T;
 Hutter, J. COMPUTER PHYSICS COMMUNICATIONS, 167 (2), 103-128 (2005). 
 QUICKSTEP: Fast and accurate density functional calculations using a
 mixed Gaussian and plane waves approach.
 https://dx.doi.org/10.1016/j.cpc.2004.12.014

 Frigo, M; Johnson, SG. 
 PROCEEDINGS OF THE IEEE, 93 (2), 216-231 (2005). 
 The design and implementation of FFTW3.
 https://dx.doi.org/10.1109/JPROC.2004.840301

 Hartwigsen, C; Goedecker, S; Hutter, J. 
 PHYSICAL REVIEW B, 58 (7), 3641-3662 (1998). 
 Relativistic separable dual-space Gaussian pseudopotentials from H to Rn.
 https://dx.doi.org/10.1103/PhysRevB.58.3641

 Lippert, G; Hutter, J; Parrinello, M. 
 MOLECULAR PHYSICS, 92 (3), 477-487 (1997). 
 A hybrid Gaussian and plane wave density functional scheme.
 https://dx.doi.org/10.1080/002689797170220

 Goedecker, S; Teter, M; Hutter, J. 
 PHYSICAL REVIEW B, 54 (3), 1703-1710 (1996). 
 Separable dual-space Gaussian pseudopotentials.
 https://dx.doi.org/10.1103/PhysRevB.54.1703


 -------------------------------------------------------------------------------
 -                                                                             -
 -                                T I M I N G                                  -
 -                                                                             -
 -------------------------------------------------------------------------------
 SUBROUTINE                       CALLS  ASD         SELF TIME        TOTAL TIME
                                MAXIMUM       AVERAGE  MAXIMUM  AVERAGE  MAXIMUM
 CP2K                                 1  1.0    0.176    0.176 2813.306 2813.306
 qs_forces                            1  2.0    0.000    0.000 2811.201 2811.201
 qs_energies                          1  3.0    0.000    0.000 2810.480 2810.480
 scf_env_do_scf                       1  4.0    0.001    0.001 2808.048 2808.048
 scf_env_do_scf_inner_loop          300  5.0    0.058    0.058 2808.047 2808.047
 qs_scf_new_mos                     300  6.0    0.009    0.009 1978.225 1978.225
 eigensolver                        300  7.0    0.051    0.051 1947.076 1947.076
 cp_fm_syevd                        300  8.0 1264.214 1264.214 1265.946 1265.946
 cp_fm_cholesky_restore             900  8.0  680.026  680.026  680.026  680.026
 gspace_mixing                      299  6.0    6.782    6.782  463.175  463.175
 broyden_mixing                     299  7.0  418.878  418.878  418.879  418.879
 rebuild_ks_matrix                  301  7.0    0.001    0.001  188.236  188.236
 qs_ks_build_kohn_sham_matrix       301  8.0    0.070    0.070  188.235  188.235
 qs_ks_update_qs_env                300  6.0    0.003    0.003  187.975  187.975
 pw_transfer                       3912  9.9    0.323    0.323  181.643  181.643
 qs_rho_update_rho                  301  6.0    0.003    0.003  177.743  177.743
 calculate_rho_elec                 301  7.0   85.351   85.351  177.740  177.740
 fft_wrap_pw1pw2                   3310 10.9    0.037    0.037  176.665  176.665
 fft_wrap_pw1pw2_70                1504 11.2   18.422   18.422  161.600  161.600
 density_rs2pw                      301  8.0    0.029    0.029   89.825   89.825
 fft3d_s                           3311 12.9   81.268   81.268   81.294   81.294
 pw_scatter_s                      1804 13.2   60.942   60.942   60.942   60.942
 pw_poisson_solve                   301  9.0   53.748   53.748   58.509   58.509
 -------------------------------------------------------------------------------

 The number of warnings for this run is : 1
 
 -------------------------------------------------------------------------------
  **** **** ******  **  PROGRAM ENDED AT                 2021-02-25 12:05:32.430
 ***** ** ***  *** **   PROGRAM RAN ON                                   gnode75
 **    ****   ******    PROGRAM RAN BY                               mayank.modi
 ***** **    ** ** **   PROGRAM PROCESS ID                                 24356
  **** **  *******  **  PROGRAM STOPPED IN /home/mayank.modi/ab-initio-thermodyn
                                           amics-of-water/mayank/cp2k_energy_cal
                                           culations
