 DBCSR| CPU Multiplication driver                                           XSMM
 DBCSR| Multrec recursion limit                                              512
 DBCSR| Multiplication stack size                                           1000
 DBCSR| Maximum elements for images                                    UNLIMITED
 DBCSR| Multiplicative factor virtual images                                   1
 DBCSR| Use multiplication densification                                       T
 DBCSR| Multiplication size stacks                                             3


  **** **** ******  **  PROGRAM STARTED AT               2021-01-12 09:22:12.283
 ***** ** ***  *** **   PROGRAM STARTED ON                               gnode23
 **    ****   ******    PROGRAM STARTED BY                           mayank.modi
 ***** **    ** ** **   PROGRAM PROCESS ID                                 29778
  **** **  *******  **  PROGRAM STARTED IN /home/mayank.modi/ab-initio-thermodyn
                                           amics-of-water/mayank/cp2k_energy_cal
                                           culations

 CP2K| version string:                                          CP2K version 7.1
 CP2K| source code revision number:                                  git:e635599
 CP2K| cp2kflags: omp libint fftw3 libxc xsmm spglib                            
 CP2K| is freely available from                            https://www.cp2k.org/
 CP2K| Program compiled at                          Mon Dec 23 19:23:12 CET 2019
 CP2K| Program compiled on                                                pc9404
 CP2K| Program compiled for                                Linux-x86-64-gfortran
 CP2K| Data directory path                                        /opt/cp2k/data
 CP2K| Input file name                   input_training_correct_cell/input292.in

 GLOBAL| Force Environment number                                              1
 GLOBAL| Basis set file name                                           BASIS_SET
 GLOBAL| Potential file name                                      GTH_POTENTIALS
 GLOBAL| MM Potential file name                                     MM_POTENTIAL
 GLOBAL| Coordinate file name                                      __STD_INPUT__
 GLOBAL| Method name                                                        CP2K
 GLOBAL| Project name                                                   H2O_bulk
 GLOBAL| Preferred FFT library                                             FFTW3
 GLOBAL| Preferred diagonalization lib.                                       SL
 GLOBAL| Run type                                                   ENERGY_FORCE
 GLOBAL| All-to-all communication in single precision                          F
 GLOBAL| FFTs using library dependent lengths                                  F
 GLOBAL| Global print level                                                  LOW
 GLOBAL| MPI I/O enabled                                                       T
 GLOBAL| Total number of message passing processes                             1
 GLOBAL| Number of threads for this process                                   36
 GLOBAL| This output is from process                                           0
 GLOBAL| CPU model name                Intel(R) Xeon(R) CPU E5-2640 v4 @ 2.40GHz
 GLOBAL| CPUID                                                              1002
 GLOBAL| Compiled for CPUID                                                    0

 MEMORY| system memory details [Kb]
 MEMORY|                        rank 0           min           max       average
 MEMORY| MemTotal            131897972     131897972     131897972     131897972
 MEMORY| MemFree             125525856     125525856     125525856     125525856
 MEMORY| Buffers               1897948       1897948       1897948       1897948
 MEMORY| Cached                1388736       1388736       1388736       1388736
 MEMORY| Slab                  2617268       2617268       2617268       2617268
 MEMORY| SReclaimable          1584660       1584660       1584660       1584660
 MEMORY| MemLikelyFree       130397200     130397200     130397200     130397200


 GENERATE|  Preliminary Number of Bonds generated:                             0
 GENERATE|  Achieved consistency in connectivity generation.

 *******************************************************************************
 *******************************************************************************
 **                                                                           **
 **     #####                         ##              ##                      **
 **    ##   ##            ##          ##              ##                      **
 **   ##     ##                       ##            ######                    **
 **   ##     ##  ##   ##  ##   #####  ##  ##   ####   ##    #####    #####    **
 **   ##     ##  ##   ##  ##  ##      ## ##   ##      ##   ##   ##  ##   ##   **
 **   ##  ## ##  ##   ##  ##  ##      ####     ###    ##   ######   ######    **
 **    ##  ###   ##   ##  ##  ##      ## ##      ##   ##   ##       ##        **
 **     #######   #####   ##   #####  ##  ##  ####    ##    #####   ##        **
 **           ##                                                    ##        **
 **                                                                           **
 **                                                ... make the atoms dance   **
 **                                                                           **
 **            Copyright (C) by CP2K developers group (2000 - 2019)           **
 **                                                                           **
 *******************************************************************************


 TOTAL NUMBERS AND MAXIMUM NUMBERS

  Total number of            - Atomic kinds:                                   2
                             - Atoms:                                        192
                             - Shell sets:                                   384
                             - Shells:                                       704
                             - Primitive Cartesian functions:                960
                             - Cartesian basis functions:                   1536
                             - Spherical basis functions:                   1472

  Maximum angular momentum of- Orbital basis functions:                        2
                             - Local part of the GTH pseudopotential:          2
                             - Non-local part of the GTH pseudopotential:      0


 SCF PARAMETERS         Density guess:                                    ATOMIC
                        --------------------------------------------------------
                        max_scf:                                             300
                        max_scf_history:                                       0
                        max_diis:                                              4
                        --------------------------------------------------------
                        eps_scf:                                        1.00E-07
                        eps_scf_history:                                0.00E+00
                        eps_diis:                                       1.00E-01
                        eps_eigval:                                     1.00E-05
                        --------------------------------------------------------
                        level_shift [a.u.]:                                 0.00
                        --------------------------------------------------------
                        Mixing method:                            BROYDEN_MIXING
                                                charge density mixing in g-space
                        --------------------------------------------------------
                        No outer SCF

 Number of electrons:                                                        512
 Number of occupied orbitals:                                                256
 Number of molecular orbitals:                                               256

 Number of orbital functions:                                               1472
 Number of independent orbital functions:                                   1472

 Extrapolation method: initial_guess


 SCF WAVEFUNCTION OPTIMIZATION

  Step     Update method      Time    Convergence         Total energy    Change
  ------------------------------------------------------------------------------
     1 NoMix/Diag. 0.40E+00    7.2     0.60770868     -1064.0978038738 -1.06E+03
     2 Broy./Diag. 0.40E+00    7.9     1.90573019      -996.6043472540  6.75E+01
     3 Broy./Diag. 0.40E+00    8.0     1.93231575     -1261.6000757378 -2.65E+02
     4 Broy./Diag. 0.40E+00    8.4     1.29014202     -1112.1545382402  1.49E+02
     5 Broy./Diag. 0.40E+00    8.5     1.50970436     -1095.2120840613  1.69E+01
     6 Broy./Diag. 0.40E+00    8.7     1.80727740     -1095.0828654969  1.29E-01
     7 Broy./Diag. 0.40E+00    8.8     1.62349832     -1088.1968427625  6.89E+00
     8 Broy./Diag. 0.40E+00    9.0     1.67489310     -1078.3662445433  9.83E+00
     9 Broy./Diag. 0.40E+00    9.3     1.18227133     -1074.9777192775  3.39E+00
    10 Broy./Diag. 0.40E+00    9.6     1.19569967     -1076.0728711343 -1.10E+00
    11 Broy./Diag. 0.40E+00    9.2     1.23831283     -1076.2302564961 -1.57E-01
    12 Broy./Diag. 0.40E+00    9.5     1.23256399     -1074.6680682451  1.56E+00
    13 Broy./Diag. 0.40E+00    9.3     0.50074972     -1075.9443464160 -1.28E+00
    14 Broy./Diag. 0.40E+00    9.4     0.75090724     -1075.5695199624  3.75E-01
    15 Broy./Diag. 0.40E+00    9.4     0.95267023     -1077.6114717340 -2.04E+00
    16 Broy./Diag. 0.40E+00    9.5     1.52286773     -1075.9282752933  1.68E+00
    17 Broy./Diag. 0.40E+00    9.4     1.67131610     -1077.6520096072 -1.72E+00
    18 Broy./Diag. 0.40E+00    9.2     1.67055736     -1077.5828380111  6.92E-02
    19 Broy./Diag. 0.40E+00    9.1     1.16398423     -1074.1394158995  3.44E+00
    20 Broy./Diag. 0.40E+00    9.5     1.21178061     -1078.6388607920 -4.50E+00
    21 Broy./Diag. 0.40E+00    9.4     1.22945086     -1078.1509251551  4.88E-01
    22 Broy./Diag. 0.40E+00    9.3     0.71706881     -1074.9490082880  3.20E+00
    23 Broy./Diag. 0.40E+00    9.4     0.11772748     -1075.4172215813 -4.68E-01
    24 Broy./Diag. 0.40E+00    9.4     1.00077692     -1075.9662320587 -5.49E-01
    25 Broy./Diag. 0.40E+00    9.6     0.96392487     -1077.2214935737 -1.26E+00
    26 Broy./Diag. 0.40E+00    9.4     1.51012976     -1076.1909827862  1.03E+00
    27 Broy./Diag. 0.40E+00    9.2     1.57957998     -1078.6200880855 -2.43E+00
    28 Broy./Diag. 0.40E+00    9.7     1.39789373     -1075.2615633327  3.36E+00
    29 Broy./Diag. 0.40E+00    9.2     1.41316552     -1078.1636360137 -2.90E+00
    30 Broy./Diag. 0.40E+00    9.4     1.19534452     -1076.9877875188  1.18E+00
    31 Broy./Diag. 0.40E+00    9.2     0.43028954     -1075.3326289382  1.66E+00
    32 Broy./Diag. 0.40E+00    9.0     0.37679409     -1075.3859774590 -5.33E-02
    33 Broy./Diag. 0.40E+00    9.4     0.99637924     -1075.7212346066 -3.35E-01
    34 Broy./Diag. 0.40E+00    9.5     0.42829390     -1076.5599108882 -8.39E-01
    35 Broy./Diag. 0.40E+00    9.4     1.15340647     -1077.0564171889 -4.97E-01
    36 Broy./Diag. 0.40E+00    9.3     1.46598241     -1075.3617307115  1.69E+00
    37 Broy./Diag. 0.40E+00    9.2     1.56858851     -1078.6484065842 -3.29E+00
    38 Broy./Diag. 0.40E+00    8.9     1.57266342     -1075.4408218188  3.21E+00
    39 Broy./Diag. 0.40E+00    8.8     1.55785659     -1078.0965930631 -2.66E+00
    40 Broy./Diag. 0.40E+00    8.7     1.21617385     -1076.8524842775  1.24E+00
    41 Broy./Diag. 0.40E+00    8.9     0.79914872     -1074.7363584866  2.12E+00
    42 Broy./Diag. 0.40E+00    9.1     0.76205100     -1076.7874277587 -2.05E+00
    43 Broy./Diag. 0.40E+00    9.4     0.97601477     -1075.8219951918  9.65E-01
    44 Broy./Diag. 0.40E+00    9.4     1.04115330     -1076.9731124629 -1.15E+00
    45 Broy./Diag. 0.40E+00    9.2     1.12699500     -1077.0803877024 -1.07E-01
    46 Broy./Diag. 0.40E+00    9.4     0.85606720     -1076.3766241537  7.04E-01
    47 Broy./Diag. 0.40E+00    9.5     0.61679195     -1076.4778481135 -1.01E-01
    48 Broy./Diag. 0.40E+00    9.4     0.08314683     -1075.1827619327  1.30E+00
    49 Broy./Diag. 0.40E+00    9.2     1.17282544     -1075.3740426406 -1.91E-01
    50 Broy./Diag. 0.40E+00    9.3     1.18024037     -1077.4442274773 -2.07E+00
    51 Broy./Diag. 0.40E+00    9.5     1.04644216     -1075.5526529803  1.89E+00
    52 Broy./Diag. 0.40E+00    9.5     1.08066854     -1077.0770795419 -1.52E+00
    53 Broy./Diag. 0.40E+00    9.5     1.14981092     -1075.1441451144  1.93E+00
    54 Broy./Diag. 0.40E+00    9.4     1.48616632     -1077.4245572727 -2.28E+00
    55 Broy./Diag. 0.40E+00    9.5     1.62459361     -1078.5675051278 -1.14E+00
    56 Broy./Diag. 0.40E+00    9.6     1.59244932     -1078.1554876120  4.12E-01
    57 Broy./Diag. 0.40E+00    9.4     0.17279381     -1074.7228975486  3.43E+00
    58 Broy./Diag. 0.40E+00    9.4     0.13035751     -1075.3187340667 -5.96E-01
    59 Broy./Diag. 0.40E+00    9.3     1.16695320     -1075.2069751446  1.12E-01
    60 Broy./Diag. 0.40E+00    9.3     1.18302103     -1077.2706829449 -2.06E+00
    61 Broy./Diag. 0.40E+00    9.3     0.96435059     -1076.9549952396  3.16E-01
    62 Broy./Diag. 0.40E+00    9.2     0.18649521     -1075.5520539980  1.40E+00
    63 Broy./Diag. 0.40E+00    9.0     1.03149120     -1075.2634208148  2.89E-01
    64 Broy./Diag. 0.40E+00    8.8     1.03138731     -1076.9714425419 -1.71E+00
    65 Broy./Diag. 0.40E+00    9.1     1.55273048     -1075.2873941402  1.68E+00
    66 Broy./Diag. 0.40E+00    9.1     1.59003633     -1078.3972130113 -3.11E+00
    67 Broy./Diag. 0.40E+00    9.5     0.94239820     -1075.8507800525  2.55E+00
    68 Broy./Diag. 0.40E+00    9.5     1.20031222     -1074.4774477493  1.37E+00
    69 Broy./Diag. 0.40E+00    9.3     1.23726554     -1077.3570022633 -2.88E+00
    70 Broy./Diag. 0.40E+00    9.5     1.18531957     -1077.5246539581 -1.68E-01
    71 Broy./Diag. 0.40E+00    9.2     0.93753528     -1075.2990377896  2.23E+00
    72 Broy./Diag. 0.40E+00    9.4     0.90281067     -1076.7889235447 -1.49E+00
    73 Broy./Diag. 0.40E+00    9.5     0.07587192     -1075.1635197709  1.63E+00
    74 Broy./Diag. 0.40E+00    9.4     0.18824901     -1075.2863703494 -1.23E-01
    75 Broy./Diag. 0.40E+00    9.2     1.53667446     -1075.4276864177 -1.41E-01
    76 Broy./Diag. 0.40E+00    9.0     1.57496951     -1078.3466480408 -2.92E+00
    77 Broy./Diag. 0.40E+00    9.2     0.28159058     -1075.2338373638  3.11E+00
    78 Broy./Diag. 0.40E+00    9.3     1.43997459     -1075.8498990360 -6.16E-01
    79 Broy./Diag. 0.40E+00    9.4     1.52247498     -1078.4521931119 -2.60E+00
    80 Broy./Diag. 0.40E+00    9.6     1.21009791     -1076.9641134840  1.49E+00
    81 Broy./Diag. 0.40E+00    9.2     0.86399563     -1076.2135398010  7.51E-01
    82 Broy./Diag. 0.40E+00    9.1     1.22124384     -1077.0889349846 -8.75E-01
    83 Broy./Diag. 0.40E+00    9.5     1.06591583     -1076.8161892046  2.73E-01
    84 Broy./Diag. 0.40E+00    9.4     1.00829060     -1075.6399054393  1.18E+00
    85 Broy./Diag. 0.40E+00    9.6     0.11848786     -1076.9015582283 -1.26E+00
    86 Broy./Diag. 0.40E+00    9.8     1.09091142     -1077.0545667767 -1.53E-01
    87 Broy./Diag. 0.40E+00    9.5     0.16241821     -1075.1753064886  1.88E+00
    88 Broy./Diag. 0.40E+00    9.5     1.16387846     -1075.7139611350 -5.39E-01
    89 Broy./Diag. 0.40E+00    9.5     1.16938682     -1076.9590883478 -1.25E+00
    90 Broy./Diag. 0.40E+00    9.2     1.22048244     -1077.5943995956 -6.35E-01
    91 Broy./Diag. 0.40E+00    9.1     1.21615439     -1076.2114458842  1.38E+00
    92 Broy./Diag. 0.40E+00    9.7     0.37069271     -1075.1147459773  1.10E+00
    93 Broy./Diag. 0.40E+00    9.4     0.37074867     -1076.6557457062 -1.54E+00
    94 Broy./Diag. 0.40E+00    9.4     1.01632435     -1075.5826161974  1.07E+00
    95 Broy./Diag. 0.40E+00    9.2     1.02764011     -1077.1542590944 -1.57E+00
    96 Broy./Diag. 0.40E+00    9.4     0.85580235     -1075.9418623682  1.21E+00
    97 Broy./Diag. 0.40E+00    9.2     0.14036042     -1075.0672189693  8.75E-01
    98 Broy./Diag. 0.40E+00    9.2     0.11878071     -1075.3021049800 -2.35E-01
    99 Broy./Diag. 0.40E+00    9.5     1.15448272     -1075.3109772718 -8.87E-03
   100 Broy./Diag. 0.40E+00    9.4     1.62252314     -1077.3598335088 -2.05E+00
   101 Broy./Diag. 0.40E+00    9.2     1.57862111     -1078.3222387476 -9.62E-01
   102 Broy./Diag. 0.40E+00    9.0     1.18413902     -1075.1709114914  3.15E+00
   103 Broy./Diag. 0.40E+00    9.3     1.13005125     -1077.3090453823 -2.14E+00
   104 Broy./Diag. 0.40E+00    9.5     1.50919307     -1075.5097109872  1.80E+00
   105 Broy./Diag. 0.40E+00    9.4     1.58526005     -1078.4167774783 -2.91E+00
   106 Broy./Diag. 0.40E+00    9.5     0.19955175     -1074.8580339505  3.56E+00
   107 Broy./Diag. 0.40E+00    9.4     1.04933027     -1075.7603088979 -9.02E-01
   108 Broy./Diag. 0.40E+00    9.5     0.92138687     -1077.1942335276 -1.43E+00
   109 Broy./Diag. 0.40E+00    9.2     1.14704030     -1075.7376307748  1.46E+00
   110 Broy./Diag. 0.40E+00    8.7     1.61383306     -1077.5420314576 -1.80E+00
   111 Broy./Diag. 0.40E+00    8.7     1.60822407     -1078.4830483915 -9.41E-01
   112 Broy./Diag. 0.40E+00    8.8     1.04879401     -1077.1491446184  1.33E+00
   113 Broy./Diag. 0.40E+00    9.3     0.50574789     -1075.4129624811  1.74E+00
   114 Broy./Diag. 0.40E+00    9.4     0.10002515     -1075.3008767373  1.12E-01
   115 Broy./Diag. 0.40E+00    9.4     1.19431227     -1075.1802817411  1.21E-01
   116 Broy./Diag. 0.40E+00    9.2     0.42489845     -1076.6345130016 -1.45E+00
   117 Broy./Diag. 0.40E+00    9.3     1.07846673     -1077.0254047182 -3.91E-01
   118 Broy./Diag. 0.40E+00    9.2     1.13874296     -1075.3488031969  1.68E+00
   119 Broy./Diag. 0.40E+00    9.5     1.14595041     -1077.0737835802 -1.72E+00
   120 Broy./Diag. 0.40E+00    9.6     1.18364153     -1076.8550692867  2.19E-01
   121 Broy./Diag. 0.40E+00    9.2     1.48243425     -1075.3723071514  1.48E+00
   122 Broy./Diag. 0.40E+00    9.3     1.51419254     -1078.1379015634 -2.77E+00
   123 Broy./Diag. 0.40E+00    9.5     0.20993253     -1075.1820967623  2.96E+00
   124 Broy./Diag. 0.40E+00    9.5     0.62806364     -1075.6432216492 -4.61E-01
   125 Broy./Diag. 0.40E+00    9.3     1.05655030     -1076.3578033883 -7.15E-01
   126 Broy./Diag. 0.40E+00    9.4     1.03739696     -1077.1987748801 -8.41E-01
   127 Broy./Diag. 0.40E+00    9.7     0.67440552     -1075.6593695031  1.54E+00
   128 Broy./Diag. 0.40E+00    9.5     0.88411750     -1076.5102761831 -8.51E-01
   129 Broy./Diag. 0.40E+00    9.3     1.19257038     -1077.1230357969 -6.13E-01
   130 Broy./Diag. 0.40E+00    9.4     1.20372065     -1076.5884428250  5.35E-01
   131 Broy./Diag. 0.40E+00    9.3     1.20811585     -1075.0599411769  1.53E+00
   132 Broy./Diag. 0.40E+00    9.5     1.19910903     -1077.3021105940 -2.24E+00
   133 Broy./Diag. 0.40E+00    9.6     1.26002347     -1077.4360317989 -1.34E-01
   134 Broy./Diag. 0.40E+00    9.2     1.24360718     -1075.1115713196  2.32E+00
   135 Broy./Diag. 0.40E+00    9.4     1.27668496     -1077.7787249081 -2.67E+00
   136 Broy./Diag. 0.40E+00    9.2     0.94860216     -1075.1482474884  2.63E+00
   137 Broy./Diag. 0.40E+00    9.1     0.12760984     -1077.4950350402 -2.35E+00
   138 Broy./Diag. 0.40E+00    9.4     1.07610000     -1077.3378909376  1.57E-01
   139 Broy./Diag. 0.40E+00    9.2     1.15102993     -1075.6351757565  1.70E+00
   140 Broy./Diag. 0.40E+00    9.4     1.16844387     -1077.1792137351 -1.54E+00
   141 Broy./Diag. 0.40E+00    9.5     1.06031937     -1075.0980104347  2.08E+00
   142 Broy./Diag. 0.40E+00    9.6     1.04618785     -1076.9274328090 -1.83E+00
   143 Broy./Diag. 0.40E+00    9.3     0.03341563     -1075.3496720123  1.58E+00
   144 Broy./Diag. 0.40E+00    9.0     1.54005019     -1075.3518969151 -2.22E-03
   145 Broy./Diag. 0.40E+00    9.2     1.59006294     -1078.3675335603 -3.02E+00
   146 Broy./Diag. 0.40E+00    9.6     0.15953246     -1075.2641644362  3.10E+00
   147 Broy./Diag. 0.40E+00    9.2     1.52379746     -1075.3001376266 -3.60E-02
   148 Broy./Diag. 0.40E+00    9.2     1.53510581     -1078.3399149018 -3.04E+00
   149 Broy./Diag. 0.40E+00    9.0     1.14886801     -1075.1039147000  3.24E+00
   150 Broy./Diag. 0.40E+00    9.5     1.16749492     -1079.0971557169 -3.99E+00
   151 Broy./Diag. 0.40E+00    9.5     1.36667059     -1077.5357704240  1.56E+00
   152 Broy./Diag. 0.40E+00    9.2     1.47421852     -1076.5715424346  9.64E-01
   153 Broy./Diag. 0.40E+00    9.4     0.91668796     -1076.6536327185 -8.21E-02
   154 Broy./Diag. 0.40E+00    9.5     0.07480933     -1075.5028775236  1.15E+00
   155 Broy./Diag. 0.40E+00    9.5     0.09630297     -1075.1764463061  3.26E-01
   156 Broy./Diag. 0.40E+00    9.5     0.45398900     -1075.6213456654 -4.45E-01
   157 Broy./Diag. 0.40E+00    9.4     0.55169887     -1076.1891861354 -5.68E-01
   158 Broy./Diag. 0.40E+00    9.5     1.11375236     -1075.3228028318  8.66E-01
   159 Broy./Diag. 0.40E+00    9.4     1.17068372     -1077.4288445766 -2.11E+00
   160 Broy./Diag. 0.40E+00    9.4     1.18781239     -1077.1797785443  2.49E-01
   161 Broy./Diag. 0.40E+00    9.6     0.87249236     -1076.3840393620  7.96E-01
   162 Broy./Diag. 0.40E+00    9.2     1.08394976     -1076.9807749213 -5.97E-01
   163 Broy./Diag. 0.40E+00    9.4     0.33766526     -1077.2581674427 -2.77E-01
   164 Broy./Diag. 0.40E+00    9.7     1.21552892     -1077.7087491862 -4.51E-01
   165 Broy./Diag. 0.40E+00    9.5     0.42120167     -1075.9970599723  1.71E+00
   166 Broy./Diag. 0.40E+00    9.8     0.09318950     -1075.2847625068  7.12E-01
   167 Broy./Diag. 0.40E+00    9.7     1.11433456     -1075.4185871729 -1.34E-01
   168 Broy./Diag. 0.40E+00    9.5     1.14189762     -1077.3071198215 -1.89E+00
   169 Broy./Diag. 0.40E+00    9.5     1.14174263     -1075.4392375531  1.87E+00
   170 Broy./Diag. 0.40E+00    9.4     1.23947742     -1077.2989260481 -1.86E+00
   171 Broy./Diag. 0.40E+00    9.5     1.21899595     -1076.9007155372  3.98E-01
   172 Broy./Diag. 0.40E+00    9.3     0.16709842     -1075.1727670969  1.73E+00
   173 Broy./Diag. 0.40E+00    9.6     1.54484604     -1075.6392637777 -4.66E-01
   174 Broy./Diag. 0.40E+00    9.7     1.60497060     -1078.4517010500 -2.81E+00
   175 Broy./Diag. 0.40E+00    9.5     0.11087306     -1075.2110632734  3.24E+00
   176 Broy./Diag. 0.40E+00    9.3     1.00358394     -1075.4416508632 -2.31E-01
   177 Broy./Diag. 0.40E+00    9.5     1.20673989     -1077.2528991466 -1.81E+00
   178 Broy./Diag. 0.40E+00    9.4     1.19953027     -1077.2819493686 -2.91E-02
   179 Broy./Diag. 0.40E+00    9.3     1.15756491     -1075.5853409471  1.70E+00
   180 Broy./Diag. 0.40E+00    9.4     1.18087106     -1077.7811650367 -2.20E+00
   181 Broy./Diag. 0.40E+00    9.4     1.44089104     -1075.7816484934  2.00E+00
   182 Broy./Diag. 0.40E+00    9.5     1.57981404     -1078.1498852202 -2.37E+00
   183 Broy./Diag. 0.40E+00    9.5     0.24791153     -1074.8951475153  3.25E+00
   184 Broy./Diag. 0.40E+00    9.3     0.18762259     -1076.2778046858 -1.38E+00
   185 Broy./Diag. 0.40E+00    9.4     0.06928684     -1075.4907885758  7.87E-01
   186 Broy./Diag. 0.40E+00    9.5     1.41641768     -1075.3950971688  9.57E-02
   187 Broy./Diag. 0.40E+00    9.7     1.47052843     -1077.9837272783 -2.59E+00
   188 Broy./Diag. 0.40E+00    9.3     1.12888036     -1076.9294261637  1.05E+00
   189 Broy./Diag. 0.40E+00    9.5     1.14156339     -1075.2747371494  1.65E+00
   190 Broy./Diag. 0.40E+00    9.2     1.16515208     -1077.4068092851 -2.13E+00
   191 Broy./Diag. 0.40E+00    9.3     1.52103132     -1075.3303750956  2.08E+00
   192 Broy./Diag. 0.40E+00    9.2     1.60395322     -1078.5949546176 -3.26E+00
   193 Broy./Diag. 0.40E+00    8.8     0.74921142     -1077.2558160674  1.34E+00
   194 Broy./Diag. 0.40E+00    8.9     1.06516272     -1076.3532820868  9.03E-01
   195 Broy./Diag. 0.40E+00    9.2     1.06308555     -1077.5149990121 -1.16E+00
   196 Broy./Diag. 0.40E+00    9.4     0.11458783     -1075.1170219335  2.40E+00
   197 Broy./Diag. 0.40E+00    9.6     1.17622556     -1075.2429095234 -1.26E-01
   198 Broy./Diag. 0.40E+00    9.5     0.41304129     -1077.1196609241 -1.88E+00
   199 Broy./Diag. 0.40E+00    9.4     1.20346901     -1076.5827339338  5.37E-01
   200 Broy./Diag. 0.40E+00    9.4     1.19226450     -1077.3536941334 -7.71E-01
   201 Broy./Diag. 0.40E+00    9.2     1.07114680     -1077.0013608270  3.52E-01
   202 Broy./Diag. 0.40E+00    9.4     1.20540275     -1076.8623689020  1.39E-01
   203 Broy./Diag. 0.40E+00    9.3     0.10839503     -1074.9664858557  1.90E+00
   204 Broy./Diag. 0.40E+00    9.5     1.57554140     -1075.2743718149 -3.08E-01
   205 Broy./Diag. 0.40E+00    9.4     1.65302278     -1078.8362232615 -3.56E+00
   206 Broy./Diag. 0.40E+00    9.3     1.16705124     -1075.2055652825  3.63E+00
   207 Broy./Diag. 0.40E+00    9.3     1.29254453     -1076.4492204171 -1.24E+00
   208 Broy./Diag. 0.40E+00    9.3     1.14112719     -1075.0560333033  1.39E+00
   209 Broy./Diag. 0.40E+00    9.3     1.14562239     -1077.1442752810 -2.09E+00
   210 Broy./Diag. 0.40E+00    9.5     1.21418265     -1077.4798376602 -3.36E-01
   211 Broy./Diag. 0.40E+00    9.5     1.13692951     -1077.0754731289  4.04E-01
   212 Broy./Diag. 0.40E+00    9.2     1.28438403     -1075.4443835499  1.63E+00
   213 Broy./Diag. 0.40E+00    9.4     1.00825780     -1077.1322935284 -1.69E+00
   214 Broy./Diag. 0.40E+00    9.5     0.22787991     -1075.3901159663  1.74E+00
   215 Broy./Diag. 0.40E+00    9.3     1.21857265     -1075.0821057274  3.08E-01
   216 Broy./Diag. 0.40E+00    9.5     1.24314362     -1077.5302948185 -2.45E+00
   217 Broy./Diag. 0.40E+00    9.7     1.23743791     -1077.2948543155  2.35E-01
   218 Broy./Diag. 0.40E+00    9.4     0.72633513     -1076.6480870212  6.47E-01
   219 Broy./Diag. 0.40E+00    9.8     1.17853287     -1075.0113004026  1.64E+00
   220 Broy./Diag. 0.40E+00    9.6     1.18668513     -1077.3153836783 -2.30E+00
   221 Broy./Diag. 0.40E+00    9.3     1.07568885     -1077.0480995519  2.67E-01
   222 Broy./Diag. 0.40E+00    9.5     0.18166649     -1075.3828159308  1.67E+00
   223 Broy./Diag. 0.40E+00    9.5     0.18947133     -1075.0950732774  2.88E-01
   224 Broy./Diag. 0.40E+00    9.3     0.15777133     -1075.2480059714 -1.53E-01
   225 Broy./Diag. 0.40E+00    9.3     1.17018698     -1075.5617322408 -3.14E-01
   226 Broy./Diag. 0.40E+00    9.7     1.43350535     -1076.7045550822 -1.14E+00
   227 Broy./Diag. 0.40E+00    9.2     1.57776612     -1078.4346427246 -1.73E+00
   228 Broy./Diag. 0.40E+00    8.8     1.23362510     -1077.1646399831  1.27E+00
   229 Broy./Diag. 0.40E+00    9.2     1.22980674     -1077.3427776411 -1.78E-01
   230 Broy./Diag. 0.40E+00    9.6     1.24117920     -1076.8741411948  4.69E-01
   231 Broy./Diag. 0.40E+00    9.5     0.25821204     -1075.0091025369  1.87E+00
   232 Broy./Diag. 0.40E+00    9.4     0.16260745     -1075.1214576567 -1.12E-01
   233 Broy./Diag. 0.40E+00    9.5     0.15863471     -1075.3134435206 -1.92E-01
   234 Broy./Diag. 0.40E+00    9.5     1.12321438     -1075.6272882133 -3.14E-01
   235 Broy./Diag. 0.40E+00    9.5     1.11013507     -1077.2422541740 -1.61E+00
   236 Broy./Diag. 0.40E+00    9.4     1.16210580     -1075.3885388525  1.85E+00
   237 Broy./Diag. 0.40E+00    9.3     1.60396299     -1076.7755057788 -1.39E+00
   238 Broy./Diag. 0.40E+00    9.4     1.59904927     -1078.1984232597 -1.42E+00
   239 Broy./Diag. 0.40E+00    9.7     0.34529509     -1075.4326498557  2.77E+00
   240 Broy./Diag. 0.40E+00    9.4     0.08884034     -1075.4714892062 -3.88E-02
   241 Broy./Diag. 0.40E+00    9.2     0.92344153     -1075.2670456833  2.04E-01
   242 Broy./Diag. 0.40E+00    9.0     0.96704585     -1077.2048089237 -1.94E+00
   243 Broy./Diag. 0.40E+00    9.1     0.12201877     -1075.3257732747  1.88E+00
   244 Broy./Diag. 0.40E+00    9.9     0.97188162     -1075.2545575766  7.12E-02
   245 Broy./Diag. 0.40E+00   10.2     1.14142976     -1077.0881002151 -1.83E+00
   246 Broy./Diag. 0.40E+00    9.6     0.87565023     -1077.4224857328 -3.34E-01
   247 Broy./Diag. 0.40E+00    9.5     1.15438302     -1076.6977747107  7.25E-01
   248 Broy./Diag. 0.40E+00    9.7     1.22450391     -1077.3064613022 -6.09E-01
   249 Broy./Diag. 0.40E+00    9.4     0.86794969     -1074.8568491212  2.45E+00
   250 Broy./Diag. 0.40E+00    9.5     0.67649237     -1075.9065922592 -1.05E+00
   251 Broy./Diag. 0.40E+00    9.3     1.16647175     -1075.4995584437  4.07E-01
   252 Broy./Diag. 0.40E+00    9.4     1.17149226     -1077.4535374012 -1.95E+00
   253 Broy./Diag. 0.40E+00    9.4     0.40208867     -1075.4319991675  2.02E+00
   254 Broy./Diag. 0.40E+00    9.3     1.07692482     -1075.6546302366 -2.23E-01
   255 Broy./Diag. 0.40E+00    9.3     1.08820606     -1076.6433896494 -9.89E-01
   256 Broy./Diag. 0.40E+00    9.2     1.16340409     -1077.2781553755 -6.35E-01
   257 Broy./Diag. 0.40E+00    9.2     1.18163721     -1077.3428473541 -6.47E-02
   258 Broy./Diag. 0.40E+00    9.4     1.54003130     -1074.9908002038  2.35E+00
   259 Broy./Diag. 0.40E+00    9.6     1.54784758     -1078.7734386316 -3.78E+00
   260 Broy./Diag. 0.40E+00    9.5     0.13133927     -1075.2562804424  3.52E+00
   261 Broy./Diag. 0.40E+00    9.4     1.16695990     -1074.7564435634  5.00E-01
   262 Broy./Diag. 0.40E+00    9.2     1.17408487     -1077.4934446976 -2.74E+00
   263 Broy./Diag. 0.40E+00    9.4     1.21842516     -1077.3599984585  1.33E-01
   264 Broy./Diag. 0.40E+00    9.2     0.51168417     -1075.3576044379  2.00E+00
   265 Broy./Diag. 0.40E+00    9.4     0.38440321     -1075.1297312424  2.28E-01
   266 Broy./Diag. 0.40E+00    9.5     1.17030654     -1075.0002282180  1.30E-01
   267 Broy./Diag. 0.40E+00    9.6     1.17098517     -1077.1364987544 -2.14E+00
   268 Broy./Diag. 0.40E+00    9.1     1.56728042     -1075.3846399517  1.75E+00
   269 Broy./Diag. 0.40E+00    9.1     1.60353488     -1078.3480800016 -2.96E+00
   270 Broy./Diag. 0.40E+00    9.5     0.21800637     -1074.9733017474  3.37E+00
   271 Broy./Diag. 0.40E+00    9.3     1.14985163     -1075.8824174313 -9.09E-01
   272 Broy./Diag. 0.40E+00    9.2     1.50485397     -1077.6047531020 -1.72E+00
   273 Broy./Diag. 0.40E+00    8.9     1.57558679     -1078.3905267065 -7.86E-01
   274 Broy./Diag. 0.40E+00    8.9     1.17180708     -1074.9899518698  3.40E+00
   275 Broy./Diag. 0.40E+00    8.8     0.42696737     -1076.8259323622 -1.84E+00
   276 Broy./Diag. 0.40E+00    9.2     0.96264928     -1077.4685423684 -6.43E-01
   277 Broy./Diag. 0.40E+00    9.3     0.88738012     -1075.9090698193  1.56E+00
   278 Broy./Diag. 0.40E+00    9.5     0.76208058     -1077.1630357866 -1.25E+00
   279 Broy./Diag. 0.40E+00    9.5     1.57863470     -1075.3064534943  1.86E+00
   280 Broy./Diag. 0.40E+00    9.2     1.60345297     -1078.3422418617 -3.04E+00
   281 Broy./Diag. 0.40E+00    9.0     1.14382311     -1076.9529130214  1.39E+00
   282 Broy./Diag. 0.40E+00    8.8     1.20605493     -1077.4437806522 -4.91E-01
   283 Broy./Diag. 0.40E+00    9.3     1.40535270     -1074.8015012640  2.64E+00
   284 Broy./Diag. 0.40E+00    9.5     1.45061546     -1078.1737477026 -3.37E+00
   285 Broy./Diag. 0.40E+00    9.3     0.14513027     -1075.1277002756  3.05E+00
   286 Broy./Diag. 0.40E+00    9.5     0.82481230     -1075.0788133422  4.89E-02
   287 Broy./Diag. 0.40E+00    9.2     0.83256040     -1076.7136217628 -1.63E+00
   288 Broy./Diag. 0.40E+00    9.4     1.18321200     -1075.3048639592  1.41E+00
   289 Broy./Diag. 0.40E+00    9.5     1.51252628     -1077.2581707637 -1.95E+00
   290 Broy./Diag. 0.40E+00    9.7     1.57655748     -1078.4354733962 -1.18E+00
   291 Broy./Diag. 0.40E+00    9.5     0.23580455     -1075.1526286500  3.28E+00
   292 Broy./Diag. 0.40E+00    9.2     1.08882612     -1075.4162047231 -2.64E-01
   293 Broy./Diag. 0.40E+00    9.0     0.99501972     -1077.3589415546 -1.94E+00
   294 Broy./Diag. 0.40E+00    8.8     0.78195989     -1076.0033169791  1.36E+00
   295 Broy./Diag. 0.40E+00    9.1     1.09506369     -1076.6273451714 -6.24E-01
   296 Broy./Diag. 0.40E+00    9.7     1.14499929     -1077.0534869416 -4.26E-01
   297 Broy./Diag. 0.40E+00    9.4     1.20471347     -1077.0455734370  7.91E-03
   298 Broy./Diag. 0.40E+00    9.3     1.20853869     -1077.2677090446 -2.22E-01
   299 Broy./Diag. 0.40E+00    9.5     1.53544974     -1075.5504361817  1.72E+00
   300 Broy./Diag. 0.40E+00    9.3     1.60273578     -1078.3023457369 -2.75E+00

  Leaving inner SCF loop after reaching   300 steps.


  Electronic density on regular grids:       -511.9996051453        0.0003948547
  Core density on regular grids:              511.9999297896       -0.0000702104
  Total charge density on r-space grids:        0.0003246443
  Total charge density g-space grids:           0.0003246443

  Overlap energy of the core charge distribution:               0.00000000000000
  Self energy of the core charge distribution:              -2838.21791979120962
  Core Hamiltonian energy:                                    757.43491716208268
  Hartree energy:                                            1241.06945335067803
  Exchange-correlation energy:                               -238.58879645844596

  Total energy:                                             -1078.30234573689472

 *** WARNING in qs_scf.F:542 :: SCF run NOT converged ***


 ENERGY| Total FORCE_EVAL ( QS ) energy (a.u.):            -1075.261351170185435


 ATOMIC FORCES in [a.u.]

 # Atom   Kind   Element          X              Y              Z
      1      1      O          -0.07141836     0.07622046     0.00684507
      2      2      H           0.00844583    -0.03351634     0.10673427
      3      2      H          -0.00389376    -0.08998680    -0.04079246
      4      1      O           0.00355385     0.06784469     0.04039014
      5      2      H          -0.09425985    -0.03672017     0.02894695
      6      2      H          -0.00967070    -0.00141031    -0.07000633
      7      1      O           0.05460822    -0.03114693    -0.07329275
      8      2      H           0.02427710     0.03713130     0.07739627
      9      2      H          -0.01357342     0.07864609    -0.04655249
     10      1      O          -0.03350683    -0.03919323    -0.02174567
     11      2      H           0.03282234     0.08293791     0.01146927
     12      2      H          -0.03187320     0.02393545     0.07927039
     13      1      O          -0.12651515     0.10065192    -0.01189375
     14      2      H           0.09474626     0.00389274     0.01258047
     15      2      H           0.02576659    -0.05782767    -0.06690151
     16      1      O          -0.09086758    -0.02596440     0.06782004
     17      2      H           0.03619877     0.07942565     0.04453981
     18      2      H           0.06438182    -0.08628431    -0.01306969
     19      1      O           0.13313127    -0.08984786     0.00382946
     20      2      H           0.00039082    -0.00105965    -0.03971807
     21      2      H          -0.08229023    -0.03238828     0.04160671
     22      1      O           0.01255049     0.08497853     0.13216863
     23      2      H          -0.00720211    -0.02875254    -0.07005491
     24      2      H          -0.07459723     0.00615854     0.00848311
     25      1      O           0.08741712     0.12708022     0.01242828
     26      2      H          -0.09744036    -0.02032729     0.04572294
     27      2      H           0.03404889    -0.08865763     0.00952729
     28      1      O          -0.07474754     0.05617136    -0.05378825
     29      2      H           0.03978730    -0.00997380    -0.03585397
     30      2      H           0.00194547    -0.05010933     0.09093426
     31      1      O           0.01154869    -0.11167285     0.11313350
     32      2      H          -0.02272812     0.06550530    -0.00309538
     33      2      H           0.02195472    -0.00375466    -0.09689108
     34      1      O          -0.11744392     0.02260992     0.12277086
     35      2      H           0.03458463    -0.05550863     0.01844260
     36      2      H           0.02335280     0.00954255    -0.08850465
     37      1      O           0.09305493     0.02012498    -0.01925778
     38      2      H          -0.02777215    -0.07133440    -0.04681233
     39      2      H          -0.07543681     0.02028610     0.03768518
     40      1      O          -0.00132774     0.08424255    -0.03682200
     41      2      H          -0.01692880    -0.05583208     0.04233493
     42      2      H           0.04860574     0.04564243     0.08683650
     43      1      O           0.04139977     0.06256302     0.07622442
     44      2      H           0.01817361    -0.05510701    -0.00090285
     45      2      H          -0.09457763     0.04450696     0.02193124
     46      1      O           0.05820478     0.09652073    -0.00660087
     47      2      H          -0.05701348    -0.01187022    -0.02993977
     48      2      H          -0.03089182    -0.03495981     0.08833071
     49      1      O          -0.05696589    -0.06919205    -0.03036554
     50      2      H           0.04937208     0.06608953     0.05625033
     51      2      H           0.00944333    -0.01291216     0.02877989
     52      1      O           0.00601440    -0.14493804    -0.03826807
     53      2      H          -0.01236497     0.07225734    -0.03012029
     54      2      H           0.01281863     0.02647305     0.04269026
     55      1      O           0.07674177     0.06789025     0.00386295
     56      2      H          -0.02127169    -0.05528777    -0.04064399
     57      2      H           0.04540178    -0.08706941     0.06991553
     58      1      O           0.06812746    -0.07539405     0.03559831
     59      2      H          -0.05941976     0.00739087    -0.03084833
     60      2      H           0.06361124    -0.02468060    -0.05230608
     61      1      O          -0.02380117     0.02765296     0.07774757
     62      2      H          -0.00657157     0.06065388    -0.08642233
     63      2      H           0.03788707    -0.04094266    -0.00579993
     64      1      O          -0.08190824     0.04127617     0.08438002
     65      2      H           0.06235167    -0.03154012     0.04633418
     66      2      H          -0.01666616    -0.02182135    -0.06901594
     67      1      O           0.00205572    -0.01412302    -0.01334067
     68      2      H          -0.03225570     0.01433072    -0.06520464
     69      2      H           0.02434175    -0.10431574    -0.02237109
     70      1      O           0.03911988     0.00754519     0.05831328
     71      2      H          -0.07783652    -0.07161471     0.03203453
     72      2      H           0.00308986     0.03032139    -0.04799550
     73      1      O           0.09590242     0.04357284    -0.12053333
     74      2      H          -0.04030568     0.04465555     0.01050200
     75      2      H           0.03128005    -0.02978155     0.08672800
     76      1      O           0.01233788     0.08003968     0.06811938
     77      2      H           0.04894576    -0.01607412    -0.05302761
     78      2      H          -0.08880195    -0.06458628    -0.04308063
     79      1      O           0.02972326     0.09767744     0.03549730
     80      2      H          -0.00560323     0.06085706    -0.09759534
     81      2      H          -0.00840564    -0.10942089    -0.01846400
     82      1      O          -0.14212262    -0.03585708    -0.00158535
     83      2      H           0.07496435     0.00894293     0.07826824
     84      2      H           0.01778724    -0.00501617    -0.08912081
     85      1      O          -0.04257254     0.05221256    -0.06053276
     86      2      H          -0.02118166    -0.00683304    -0.02481274
     87      2      H           0.01920132     0.02731585    -0.02306852
     88      1      O          -0.01253535     0.10423667     0.09582532
     89      2      H          -0.09438533    -0.03208259    -0.01059860
     90      2      H           0.04700877     0.00607934    -0.04251119
     91      1      O          -0.04005261    -0.04983881    -0.13870193
     92      2      H           0.04878650    -0.00907204     0.03798518
     93      2      H          -0.00468269     0.03167077     0.07792107
     94      1      O          -0.01470948    -0.02922092     0.12375556
     95      2      H           0.01679853    -0.04734159    -0.00965290
     96      2      H           0.08309529     0.02004660    -0.02379937
     97      1      O           0.02388328    -0.05824584     0.01250769
     98      2      H          -0.07179582    -0.04114164    -0.09478820
     99      2      H           0.04445559     0.08541161     0.00333748
    100      1      O          -0.06062191     0.04186750     0.04727264
    101      2      H          -0.03632204    -0.05249150     0.00020532
    102      2      H           0.05170290     0.03619235    -0.06897604
    103      1      O          -0.03085062     0.11802416     0.08803782
    104      2      H           0.06796276    -0.03971503     0.00192109
    105      2      H          -0.07475023    -0.02333945     0.00354478
    106      1      O          -0.07208321     0.07732697    -0.02439931
    107      2      H          -0.02373542    -0.04490524     0.05807360
    108      2      H           0.05129659    -0.05911886    -0.07037215
    109      1      O           0.06398088     0.03239504     0.11266350
    110      2      H           0.01487420    -0.00481138    -0.08124532
    111      2      H          -0.07258225    -0.05523018     0.03336174
    112      1      O          -0.06763954    -0.06140344    -0.00598054
    113      2      H           0.04596400     0.02184639     0.06919924
    114      2      H           0.06537379    -0.05609824    -0.02951847
    115      1      O          -0.06152882     0.06423464    -0.06268607
    116      2      H           0.02813282    -0.06978892    -0.04536374
    117      2      H          -0.04187210     0.00353086     0.08636324
    118      1      O           0.01633014     0.05214313    -0.12735631
    119      2      H          -0.02353513    -0.07650129     0.05928904
    120      2      H           0.06573729     0.08039559     0.01533403
    121      1      O           0.03914162    -0.09993052     0.04798535
    122      2      H          -0.06664156     0.07242421     0.04894012
    123      2      H           0.09084041     0.05474965     0.00360884
    124      1      O          -0.11052121     0.02487817     0.00296713
    125      2      H          -0.04721089    -0.08987850     0.02338271
    126      2      H           0.07407799    -0.01668198    -0.00999702
    127      1      O          -0.03314068    -0.02685299    -0.09298313
    128      2      H          -0.01112673     0.03891187     0.04890642
    129      2      H          -0.01972805     0.02081423     0.02552288
    130      1      O          -0.09617674    -0.01635545     0.04868518
    131      2      H          -0.01601746    -0.01537760    -0.07038945
    132      2      H           0.07277606     0.05171686    -0.01564760
    133      1      O           0.00428676     0.03209915    -0.01921343
    134      2      H           0.01797937    -0.03532306     0.01684344
    135      2      H          -0.06975907    -0.03923801     0.02654050
    136      1      O           0.04503080     0.03932664     0.03583018
    137      2      H          -0.03267559    -0.02842095     0.04937590
    138      2      H          -0.03388684     0.09350711    -0.03755437
    139      1      O          -0.00960699     0.03726795     0.05274155
    140      2      H           0.05693585    -0.02040023    -0.02446692
    141      2      H          -0.01346127     0.06603773    -0.03549707
    142      1      O           0.01996212     0.01676836    -0.07204876
    143      2      H           0.02332146     0.03272999    -0.07066141
    144      2      H           0.04458897    -0.08728000     0.03342606
    145      1      O           0.06458915    -0.08818208    -0.05062001
    146      2      H          -0.06443988     0.05060114    -0.01766507
    147      2      H           0.02642159     0.04692446     0.05983768
    148      1      O          -0.01611717    -0.00265812    -0.00754850
    149      2      H          -0.02901021    -0.09833522    -0.02265414
    150      2      H          -0.04363281     0.06206157    -0.07061856
    151      1      O          -0.06658457     0.03595905     0.01577770
    152      2      H           0.01241637    -0.01718350     0.06241199
    153      2      H          -0.03627641    -0.07026693    -0.01790262
    154      1      O          -0.02410699     0.02233356     0.00232717
    155      2      H           0.01566861    -0.03940222    -0.03131069
    156      2      H          -0.00053203     0.01717600     0.06131431
    157      1      O           0.11823041     0.00027755     0.05760727
    158      2      H          -0.01935201     0.03915814     0.05070453
    159      2      H          -0.04210907    -0.04561860    -0.02227588
    160      1      O          -0.06123445     0.13960467     0.06433059
    161      2      H          -0.01900850    -0.03551987     0.02901122
    162      2      H          -0.00040525    -0.05429784    -0.05113891
    163      1      O          -0.00217130     0.02439766    -0.01375620
    164      2      H           0.07538626    -0.03395881     0.05148772
    165      2      H          -0.07607893    -0.01191580     0.01652310
    166      1      O           0.05736198    -0.10195172    -0.00650693
    167      2      H          -0.03412896     0.03972451     0.03662027
    168      2      H          -0.06382289    -0.03037875    -0.07525120
    169      1      O           0.04603856     0.00194574    -0.01145601
    170      2      H           0.04305343    -0.04266471    -0.03434271
    171      2      H          -0.04340710     0.02310400     0.05305687
    172      1      O          -0.08544380     0.03318996     0.05964566
    173      2      H           0.08868385    -0.00708463     0.01903732
    174      2      H          -0.01812345    -0.02435811    -0.06068107
    175      1      O          -0.03942639     0.14206577    -0.09237439
    176      2      H           0.05450042    -0.03538885     0.07116182
    177      2      H          -0.07550722    -0.02352703    -0.01070656
    178      1      O          -0.09750654    -0.08341791    -0.06662056
    179      2      H           0.01941224    -0.00536808     0.08767898
    180      2      H           0.00241700     0.09693623    -0.00005719
    181      1      O          -0.03742647    -0.09443141    -0.08420142
    182      2      H          -0.04248133     0.06515257     0.04965809
    183      2      H           0.02784286    -0.00318016     0.03403655
    184      1      O           0.12084805    -0.00207692    -0.01201366
    185      2      H          -0.02402586    -0.00871198     0.07422291
    186      2      H           0.00399642    -0.07898993    -0.01956098
    187      1      O          -0.07437720    -0.04884607     0.00616149
    188      2      H           0.07489224     0.06622924     0.00733616
    189      2      H          -0.01575084    -0.05517676    -0.06700215
    190      1      O           0.08975826     0.02400040     0.07708112
    191      2      H          -0.03989011     0.00729090    -0.11601393
    192      2      H          -0.03020768    -0.05688604     0.01403569
 SUM OF ATOMIC FORCES          -0.57893969    -0.20192997     0.51211715     0.79888100

 -------------------------------------------------------------------------------
 -                                                                             -
 -                                DBCSR STATISTICS                             -
 -                                                                             -
 -------------------------------------------------------------------------------
 COUNTER                                    TOTAL       BLAS       SMM       ACC
 flops     5 x     5 x   256           4939289600       0.0%    100.0%      0.0%
 flops    13 x     5 x   256           5980316160       0.0%    100.0%      0.0%
 flops     5 x    13 x   256           6130575360       0.0%    100.0%      0.0%
 flops    13 x    13 x   256           8282287104       0.0%    100.0%      0.0%
 flops inhomo. stacks                           0       0.0%      0.0%      0.0%
 flops total                        25.332468E+09       0.0%    100.0%      0.0%
 flops max/rank                     25.332468E+09       0.0%    100.0%      0.0%
 matmuls inhomo. stacks                         0       0.0%      0.0%      0.0%
 matmuls total                             845509       0.0%    100.0%      0.0%
 number of processed stacks                 42140       0.0%    100.0%      0.0%
 average stack size                                     0.0      20.1       0.0
 marketing flops                   333.927416E+09
 -------------------------------------------------------------------------------
 # multiplications                            301
 max memory usage/rank               4.993020E+09
 # max total images/rank                        1
 # max 3D layers                                1
 # MPI messages exchanged                       0
 MPI messages size (bytes):
  total size                         0.000000E+00
  min size                           0.000000E+00
  max size                           0.000000E+00
  average size                       0.000000E+00
 MPI breakdown and total messages size (bytes):
             size <=      128                   0                        0
       128 < size <=     8192                   0                        0
      8192 < size <=    32768                   0                        0
     32768 < size <=   131072                   0                        0
    131072 < size <=  4194304                   0                        0
   4194304 < size <= 16777216                   0                        0
  16777216 < size                               0                        0
 -------------------------------------------------------------------------------

 MEMORY| Estimated peak process memory [MiB]                                4756

 -------------------------------------------------------------------------------
 -                                                                             -
 -                           R E F E R E N C E S                               -
 -                                                                             -
 -------------------------------------------------------------------------------
 
 CP2K version 7.1, the CP2K developers group (2019).
 CP2K is freely available from https://www.cp2k.org/ .

 Schuett, Ole; Messmer, Peter; Hutter, Juerg; VandeVondele, Joost. 
 Electronic Structure Calculations on Graphics Processing Units, John
 Wiley & Sons, Ltd, 173-190 (2016). 
 GPU-Accelerated Sparse Matrix-Matrix Multiplication for
 Linear Scaling Density Functional Theory.
 https://dx.doi.org/10.1002/9781118670712.ch8

 Borstnik, U; VandeVondele, J; Weber, V; Hutter, J. 
 PARALLEL COMPUTING, 40 (5-6), 47-58 (2014). 
 Sparse matrix multiplication: The distributed block-compressed sparse
 row library.
 https://dx.doi.org/10.1016/j.parco.2014.03.012

 Hutter, J; Iannuzzi, M; Schiffmann, F; VandeVondele, J. 
 WIREs Comput Mol Sci., 4 (1), 15-25 (2014). 
 CP2K: atomistic simulations of condensed matter systems.
 https://dx.doi.org/10.1002/wcms.1159

 Krack, M. 
 THEORETICAL CHEMISTRY ACCOUNTS, 114 (1-3), 145-152 (2005). 
 Pseudopotentials for H to Kr optimized for gradient-corrected
 exchange-correlation functionals.
 https://dx.doi.org/10.1007/s00214-005-0655-y

 VandeVondele, J; Krack, M; Mohamed, F; Parrinello, M; Chassaing, T;
 Hutter, J. COMPUTER PHYSICS COMMUNICATIONS, 167 (2), 103-128 (2005). 
 QUICKSTEP: Fast and accurate density functional calculations using a
 mixed Gaussian and plane waves approach.
 https://dx.doi.org/10.1016/j.cpc.2004.12.014

 Frigo, M; Johnson, SG. 
 PROCEEDINGS OF THE IEEE, 93 (2), 216-231 (2005). 
 The design and implementation of FFTW3.
 https://dx.doi.org/10.1109/JPROC.2004.840301

 Hartwigsen, C; Goedecker, S; Hutter, J. 
 PHYSICAL REVIEW B, 58 (7), 3641-3662 (1998). 
 Relativistic separable dual-space Gaussian pseudopotentials from H to Rn.
 https://dx.doi.org/10.1103/PhysRevB.58.3641

 Lippert, G; Hutter, J; Parrinello, M. 
 MOLECULAR PHYSICS, 92 (3), 477-487 (1997). 
 A hybrid Gaussian and plane wave density functional scheme.
 https://dx.doi.org/10.1080/002689797170220

 Goedecker, S; Teter, M; Hutter, J. 
 PHYSICAL REVIEW B, 54 (3), 1703-1710 (1996). 
 Separable dual-space Gaussian pseudopotentials.
 https://dx.doi.org/10.1103/PhysRevB.54.1703


 -------------------------------------------------------------------------------
 -                                                                             -
 -                                T I M I N G                                  -
 -                                                                             -
 -------------------------------------------------------------------------------
 SUBROUTINE                       CALLS  ASD         SELF TIME        TOTAL TIME
                                MAXIMUM       AVERAGE  MAXIMUM  AVERAGE  MAXIMUM
 CP2K                                 1  1.0    0.175    0.175 2803.763 2803.763
 qs_forces                            1  2.0    0.000    0.000 2801.748 2801.748
 qs_energies                          1  3.0    0.000    0.000 2801.055 2801.055
 scf_env_do_scf                       1  4.0    0.001    0.001 2798.648 2798.648
 scf_env_do_scf_inner_loop          300  5.0    0.066    0.066 2798.647 2798.647
 qs_scf_new_mos                     300  6.0    0.013    0.013 1981.771 1981.771
 eigensolver                        300  7.0    0.051    0.051 1946.938 1946.938
 cp_fm_syevd                        300  8.0 1275.027 1275.027 1276.785 1276.785
 cp_fm_cholesky_restore             900  8.0  669.084  669.084  669.084  669.084
 gspace_mixing                      299  6.0    6.734    6.734  464.090  464.090
 broyden_mixing                     299  7.0  421.597  421.597  421.599  421.599
 rebuild_ks_matrix                  301  7.0    0.001    0.001  184.014  184.014
 qs_ks_build_kohn_sham_matrix       301  8.0    0.081    0.081  184.013  184.013
 qs_ks_update_qs_env                300  6.0    0.003    0.003  183.802  183.802
 pw_transfer                       3912  9.9    0.343    0.343  173.164  173.164
 fft_wrap_pw1pw2                   3310 10.9    0.039    0.039  168.183  168.183
 qs_rho_update_rho                  301  6.0    0.005    0.005  167.897  167.897
 calculate_rho_elec                 301  7.0   78.444   78.444  167.893  167.893
 fft_wrap_pw1pw2_70                1504 11.2   18.871   18.871  154.946  154.946
 density_rs2pw                      301  8.0    0.035    0.035   86.563   86.563
 fft3d_s                           3311 12.9   74.595   74.595   74.620   74.620
 pw_scatter_s                      1804 13.2   59.498   59.498   59.498   59.498
 pw_poisson_solve                   301  9.0   54.332   54.332   59.081   59.081
 -------------------------------------------------------------------------------

 The number of warnings for this run is : 1
 
 -------------------------------------------------------------------------------
  **** **** ******  **  PROGRAM ENDED AT                 2021-01-12 10:08:56.366
 ***** ** ***  *** **   PROGRAM RAN ON                                   gnode23
 **    ****   ******    PROGRAM RAN BY                               mayank.modi
 ***** **    ** ** **   PROGRAM PROCESS ID                                 29778
  **** **  *******  **  PROGRAM STOPPED IN /home/mayank.modi/ab-initio-thermodyn
                                           amics-of-water/mayank/cp2k_energy_cal
                                           culations
