 DBCSR| CPU Multiplication driver                                           XSMM
 DBCSR| Multrec recursion limit                                              512
 DBCSR| Multiplication stack size                                           1000
 DBCSR| Maximum elements for images                                    UNLIMITED
 DBCSR| Multiplicative factor virtual images                                   1
 DBCSR| Use multiplication densification                                       T
 DBCSR| Multiplication size stacks                                             3


  **** **** ******  **  PROGRAM STARTED AT               2021-01-12 02:03:11.945
 ***** ** ***  *** **   PROGRAM STARTED ON                               gnode23
 **    ****   ******    PROGRAM STARTED BY                           mayank.modi
 ***** **    ** ** **   PROGRAM PROCESS ID                                 20182
  **** **  *******  **  PROGRAM STARTED IN /home/mayank.modi/ab-initio-thermodyn
                                           amics-of-water/mayank/cp2k_energy_cal
                                           culations

 CP2K| version string:                                          CP2K version 7.1
 CP2K| source code revision number:                                  git:e635599
 CP2K| cp2kflags: omp libint fftw3 libxc xsmm spglib                            
 CP2K| is freely available from                            https://www.cp2k.org/
 CP2K| Program compiled at                          Mon Dec 23 19:23:12 CET 2019
 CP2K| Program compiled on                                                pc9404
 CP2K| Program compiled for                                Linux-x86-64-gfortran
 CP2K| Data directory path                                        /opt/cp2k/data
 CP2K| Input file name                   input_training_correct_cell/input256.in

 GLOBAL| Force Environment number                                              1
 GLOBAL| Basis set file name                                           BASIS_SET
 GLOBAL| Potential file name                                      GTH_POTENTIALS
 GLOBAL| MM Potential file name                                     MM_POTENTIAL
 GLOBAL| Coordinate file name                                      __STD_INPUT__
 GLOBAL| Method name                                                        CP2K
 GLOBAL| Project name                                                   H2O_bulk
 GLOBAL| Preferred FFT library                                             FFTW3
 GLOBAL| Preferred diagonalization lib.                                       SL
 GLOBAL| Run type                                                   ENERGY_FORCE
 GLOBAL| All-to-all communication in single precision                          F
 GLOBAL| FFTs using library dependent lengths                                  F
 GLOBAL| Global print level                                                  LOW
 GLOBAL| MPI I/O enabled                                                       T
 GLOBAL| Total number of message passing processes                             1
 GLOBAL| Number of threads for this process                                   36
 GLOBAL| This output is from process                                           0
 GLOBAL| CPU model name                Intel(R) Xeon(R) CPU E5-2640 v4 @ 2.40GHz
 GLOBAL| CPUID                                                              1002
 GLOBAL| Compiled for CPUID                                                    0

 MEMORY| system memory details [Kb]
 MEMORY|                        rank 0           min           max       average
 MEMORY| MemTotal            131897972     131897972     131897972     131897972
 MEMORY| MemFree             120748260     120748260     120748260     120748260
 MEMORY| Buffers               1898068       1898068       1898068       1898068
 MEMORY| Cached                4349848       4349848       4349848       4349848
 MEMORY| Slab                  2644836       2644836       2644836       2644836
 MEMORY| SReclaimable          1601400       1601400       1601400       1601400
 MEMORY| MemLikelyFree       128597576     128597576     128597576     128597576


 GENERATE|  Preliminary Number of Bonds generated:                             0
 GENERATE|  Achieved consistency in connectivity generation.

 *******************************************************************************
 *******************************************************************************
 **                                                                           **
 **     #####                         ##              ##                      **
 **    ##   ##            ##          ##              ##                      **
 **   ##     ##                       ##            ######                    **
 **   ##     ##  ##   ##  ##   #####  ##  ##   ####   ##    #####    #####    **
 **   ##     ##  ##   ##  ##  ##      ## ##   ##      ##   ##   ##  ##   ##   **
 **   ##  ## ##  ##   ##  ##  ##      ####     ###    ##   ######   ######    **
 **    ##  ###   ##   ##  ##  ##      ## ##      ##   ##   ##       ##        **
 **     #######   #####   ##   #####  ##  ##  ####    ##    #####   ##        **
 **           ##                                                    ##        **
 **                                                                           **
 **                                                ... make the atoms dance   **
 **                                                                           **
 **            Copyright (C) by CP2K developers group (2000 - 2019)           **
 **                                                                           **
 *******************************************************************************


 TOTAL NUMBERS AND MAXIMUM NUMBERS

  Total number of            - Atomic kinds:                                   2
                             - Atoms:                                        192
                             - Shell sets:                                   384
                             - Shells:                                       704
                             - Primitive Cartesian functions:                960
                             - Cartesian basis functions:                   1536
                             - Spherical basis functions:                   1472

  Maximum angular momentum of- Orbital basis functions:                        2
                             - Local part of the GTH pseudopotential:          2
                             - Non-local part of the GTH pseudopotential:      0


 SCF PARAMETERS         Density guess:                                    ATOMIC
                        --------------------------------------------------------
                        max_scf:                                             300
                        max_scf_history:                                       0
                        max_diis:                                              4
                        --------------------------------------------------------
                        eps_scf:                                        1.00E-07
                        eps_scf_history:                                0.00E+00
                        eps_diis:                                       1.00E-01
                        eps_eigval:                                     1.00E-05
                        --------------------------------------------------------
                        level_shift [a.u.]:                                 0.00
                        --------------------------------------------------------
                        Mixing method:                            BROYDEN_MIXING
                                                charge density mixing in g-space
                        --------------------------------------------------------
                        No outer SCF

 Number of electrons:                                                        512
 Number of occupied orbitals:                                                256
 Number of molecular orbitals:                                               256

 Number of orbital functions:                                               1472
 Number of independent orbital functions:                                   1472

 Extrapolation method: initial_guess


 SCF WAVEFUNCTION OPTIMIZATION

  Step     Update method      Time    Convergence         Total energy    Change
  ------------------------------------------------------------------------------
     1 NoMix/Diag. 0.40E+00    7.5     0.61197684     -1064.1808776129 -1.06E+03
     2 Broy./Diag. 0.40E+00    8.2     1.93258580      -997.2398151633  6.69E+01
     3 Broy./Diag. 0.40E+00    8.9     1.95624937     -1259.6152173633 -2.62E+02
     4 Broy./Diag. 0.40E+00    9.0     1.39446748     -1114.7407614719  1.45E+02
     5 Broy./Diag. 0.40E+00    9.2     1.72808361     -1094.4029029681  2.03E+01
     6 Broy./Diag. 0.40E+00   10.0     1.82492310     -1097.1451141749 -2.74E+00
     7 Broy./Diag. 0.40E+00   10.0     1.46785570     -1094.6968252757  2.45E+00
     8 Broy./Diag. 0.40E+00    9.9     1.58110885     -1084.4949817899  1.02E+01
     9 Broy./Diag. 0.40E+00   10.3     0.53647559     -1075.7413439674  8.75E+00
    10 Broy./Diag. 0.40E+00   10.6     0.81309554     -1072.5901973852  3.15E+00
    11 Broy./Diag. 0.40E+00   10.4     0.80764492     -1076.0244494859 -3.43E+00
    12 Broy./Diag. 0.40E+00   10.6     1.75367531     -1073.9280496256  2.10E+00
    13 Broy./Diag. 0.40E+00   10.9     1.77843849     -1075.4156744491 -1.49E+00
    14 Broy./Diag. 0.40E+00   10.8     1.46667432     -1075.1444877973  2.71E-01
    15 Broy./Diag. 0.40E+00   10.8     1.11838219     -1075.5849450002 -4.40E-01
    16 Broy./Diag. 0.40E+00   11.0     0.92744660     -1072.9238069849  2.66E+00
    17 Broy./Diag. 0.40E+00   10.5     0.92522574     -1080.0168357870 -7.09E+00
    18 Broy./Diag. 0.40E+00   10.4     1.76628465     -1079.8762071726  1.41E-01
    19 Broy./Diag. 0.40E+00   10.4     0.81726887     -1074.8983571867  4.98E+00
    20 Broy./Diag. 0.40E+00   10.6     0.10173596     -1073.7740989729  1.12E+00
    21 Broy./Diag. 0.40E+00   10.8     0.97992335     -1076.0885714285 -2.31E+00
    22 Broy./Diag. 0.40E+00   10.7     1.41244221     -1076.8669844830 -7.78E-01
    23 Broy./Diag. 0.40E+00   10.7     1.62778226     -1077.3167924533 -4.50E-01
    24 Broy./Diag. 0.40E+00   10.7     1.52347572     -1079.0266171609 -1.71E+00
    25 Broy./Diag. 0.40E+00   10.4     1.53818994     -1077.8827206446  1.14E+00
    26 Broy./Diag. 0.40E+00   10.3     1.06142432     -1073.5360989399  4.35E+00
    27 Broy./Diag. 0.40E+00   10.4     1.07070397     -1076.8396180218 -3.30E+00
    28 Broy./Diag. 0.40E+00   10.7     0.93344157     -1074.6673024552  2.17E+00
    29 Broy./Diag. 0.40E+00   10.6     1.11474300     -1077.7882901444 -3.12E+00
    30 Broy./Diag. 0.40E+00   11.1     1.10805071     -1077.2447503082  5.44E-01
    31 Broy./Diag. 0.40E+00   10.6     1.16380986     -1076.0807117684  1.16E+00
    32 Broy./Diag. 0.40E+00   10.5     1.76087269     -1074.8425830952  1.24E+00
    33 Broy./Diag. 0.40E+00   10.5     1.12023309     -1078.6881782390 -3.85E+00
    34 Broy./Diag. 0.40E+00   10.7     1.47939637     -1078.3546646307  3.34E-01
    35 Broy./Diag. 0.40E+00   11.4     1.32313053     -1076.8267853352  1.53E+00
    36 Broy./Diag. 0.40E+00   10.8     1.44589705     -1074.4018561723  2.42E+00
    37 Broy./Diag. 0.40E+00   10.9     1.43286601     -1079.6691278261 -5.27E+00
    38 Broy./Diag. 0.40E+00   10.3     1.12242937     -1077.4386295513  2.23E+00
    39 Broy./Diag. 0.40E+00   10.7     1.75093278     -1076.3843684542  1.05E+00
    40 Broy./Diag. 0.40E+00   10.6     1.77597238     -1078.8552150250 -2.47E+00
    41 Broy./Diag. 0.40E+00   10.7     1.50269250     -1076.6506685530  2.20E+00
    42 Broy./Diag. 0.40E+00   10.8     1.22525245     -1073.8536087467  2.80E+00
    43 Broy./Diag. 0.40E+00   10.7     1.27062804     -1077.6542204824 -3.80E+00
    44 Broy./Diag. 0.40E+00   10.4     0.94349676     -1076.3519816885  1.30E+00
    45 Broy./Diag. 0.40E+00   10.6     1.36988584     -1074.5545986329  1.80E+00
    46 Broy./Diag. 0.40E+00   10.7     1.37640946     -1079.6514051409 -5.10E+00
    47 Broy./Diag. 0.40E+00   10.7     0.89122077     -1074.8692934628  4.78E+00
    48 Broy./Diag. 0.40E+00   10.2     0.96909110     -1077.8412126209 -2.97E+00
    49 Broy./Diag. 0.40E+00   10.6     1.76072092     -1074.9211691470  2.92E+00
    50 Broy./Diag. 0.40E+00   10.7     1.77233857     -1078.7633392073 -3.84E+00
    51 Broy./Diag. 0.40E+00   10.5     1.21643575     -1076.8545620978  1.91E+00
    52 Broy./Diag. 0.40E+00   10.6     1.63361151     -1077.2895768359 -4.35E-01
    53 Broy./Diag. 0.40E+00   10.7     1.50019859     -1078.7216333966 -1.43E+00
    54 Broy./Diag. 0.40E+00   10.8     1.77309752     -1078.6412864999  8.03E-02
    55 Broy./Diag. 0.40E+00   10.7     0.37016479     -1075.2705407221  3.37E+00
    56 Broy./Diag. 0.40E+00   10.6     0.88887044     -1074.0308910598  1.24E+00
    57 Broy./Diag. 0.40E+00   10.6     0.79632280     -1075.7439348926 -1.71E+00
    58 Broy./Diag. 0.40E+00   10.8     0.80320521     -1076.5854763324 -8.42E-01
    59 Broy./Diag. 0.40E+00   10.4     0.89718737     -1076.0122471050  5.73E-01
    60 Broy./Diag. 0.40E+00   10.3     0.85226248     -1075.0502597677  9.62E-01
    61 Broy./Diag. 0.40E+00   10.5     1.39838503     -1077.3719163129 -2.32E+00
    62 Broy./Diag. 0.40E+00   10.6     1.76763817     -1079.0894655452 -1.72E+00
    63 Broy./Diag. 0.40E+00   10.7     0.89016866     -1075.1351825445  3.95E+00
    64 Broy./Diag. 0.40E+00   10.4     0.93003368     -1079.0619851858 -3.93E+00
    65 Broy./Diag. 0.40E+00   10.8     1.21780657     -1074.9040684273  4.16E+00
    66 Broy./Diag. 0.40E+00   10.6     1.31725477     -1077.2536213731 -2.35E+00
    67 Broy./Diag. 0.40E+00   11.0     0.84104028     -1077.0014544024  2.52E-01
    68 Broy./Diag. 0.40E+00   11.0     0.93389245     -1075.5948415714  1.41E+00
    69 Broy./Diag. 0.40E+00   10.9     0.79166715     -1075.7187411772 -1.24E-01
    70 Broy./Diag. 0.40E+00   10.7     1.31029374     -1076.5790168197 -8.60E-01
    71 Broy./Diag. 0.40E+00   11.3     1.30829881     -1076.5297627416  4.93E-02
    72 Broy./Diag. 0.40E+00   10.8     1.27726849     -1077.7630719245 -1.23E+00
    73 Broy./Diag. 0.40E+00   10.7     1.17931597     -1076.8595669742  9.04E-01
    74 Broy./Diag. 0.40E+00   11.0     1.30583726     -1076.0720838984  7.87E-01
    75 Broy./Diag. 0.40E+00   10.8     1.38189232     -1074.8326746682  1.24E+00
    76 Broy./Diag. 0.40E+00   10.9     1.48486647     -1073.5810242343  1.25E+00
    77 Broy./Diag. 0.40E+00   10.8     1.46226446     -1079.3779189449 -5.80E+00
    78 Broy./Diag. 0.40E+00   10.7     0.87658078     -1076.1984730469  3.18E+00
    79 Broy./Diag. 0.40E+00   10.7     0.83692626     -1076.4291332988 -2.31E-01
    80 Broy./Diag. 0.40E+00   10.7     1.20936264     -1074.4773716320  1.95E+00
    81 Broy./Diag. 0.40E+00   10.8     1.20219331     -1077.4580509863 -2.98E+00
    82 Broy./Diag. 0.40E+00   10.6     1.37331276     -1077.0105012848  4.48E-01
    83 Broy./Diag. 0.40E+00   10.6     1.29223593     -1076.9075087581  1.03E-01
    84 Broy./Diag. 0.40E+00   10.4     1.76245828     -1074.3071385918  2.60E+00
    85 Broy./Diag. 0.40E+00   10.7     1.77597354     -1078.9882848122 -4.68E+00
    86 Broy./Diag. 0.40E+00   10.8     0.87793780     -1077.1332053448  1.86E+00
    87 Broy./Diag. 0.40E+00   11.0     0.83609415     -1076.0901304465  1.04E+00
    88 Broy./Diag. 0.40E+00   10.5     0.93333777     -1074.4108187204  1.68E+00
    89 Broy./Diag. 0.40E+00   10.4     1.30114826     -1076.2080494446 -1.80E+00
    90 Broy./Diag. 0.40E+00   10.8     1.25378375     -1077.0657617147 -8.58E-01
    91 Broy./Diag. 0.40E+00   10.8     1.75397056     -1074.5474404530  2.52E+00
    92 Broy./Diag. 0.40E+00   10.6     1.76468583     -1079.7518316621 -5.20E+00
    93 Broy./Diag. 0.40E+00   10.6     1.24844583     -1077.3301785842  2.42E+00
    94 Broy./Diag. 0.40E+00   10.7     1.29825055     -1076.1236833109  1.21E+00
    95 Broy./Diag. 0.40E+00   10.5     1.44883632     -1076.1174687809  6.21E-03
    96 Broy./Diag. 0.40E+00   10.4     1.05194761     -1075.7674355762  3.50E-01
    97 Broy./Diag. 0.40E+00   10.5     1.07943937     -1075.5588684154  2.09E-01
    98 Broy./Diag. 0.40E+00   10.9     1.47681903     -1075.0177818657  5.41E-01
    99 Broy./Diag. 0.40E+00   10.6     0.53233870     -1076.3228458654 -1.31E+00
   100 Broy./Diag. 0.40E+00   10.3     1.42551598     -1077.0216436286 -6.99E-01
   101 Broy./Diag. 0.40E+00   11.0     1.75774544     -1075.5582140027  1.46E+00
   102 Broy./Diag. 0.40E+00   10.6     1.77605661     -1079.2545487248 -3.70E+00
   103 Broy./Diag. 0.40E+00   10.7     1.41653837     -1077.2223914816  2.03E+00
   104 Broy./Diag. 0.40E+00   10.1     1.41619787     -1073.6686691179  3.55E+00
   105 Broy./Diag. 0.40E+00   10.7     1.42972459     -1080.2686218879 -6.60E+00
   106 Broy./Diag. 0.40E+00   10.4     1.30480126     -1076.2824318120  3.99E+00
   107 Broy./Diag. 0.40E+00   10.7     1.37826634     -1076.3250825774 -4.27E-02
   108 Broy./Diag. 0.40E+00   10.4     0.85794933     -1074.6138923556  1.71E+00
   109 Broy./Diag. 0.40E+00   10.5     1.34019864     -1077.2404294568 -2.63E+00
   110 Broy./Diag. 0.40E+00   10.4     1.69079656     -1076.4441894568  7.96E-01
   111 Broy./Diag. 0.40E+00   10.4     1.69677423     -1076.3032583291  1.41E-01
   112 Broy./Diag. 0.40E+00   11.0     1.48906535     -1076.3224629779 -1.92E-02
   113 Broy./Diag. 0.40E+00   10.6     1.53828425     -1077.8461701455 -1.52E+00
   114 Broy./Diag. 0.40E+00   11.1     1.18757390     -1075.6808641025  2.17E+00
   115 Broy./Diag. 0.40E+00   10.8     1.78819743     -1073.5623524597  2.12E+00
   116 Broy./Diag. 0.40E+00   10.6     1.77856794     -1079.2595581849 -5.70E+00
   117 Broy./Diag. 0.40E+00   10.8     1.26408991     -1077.0544021671  2.21E+00
   118 Broy./Diag. 0.40E+00   10.7     0.90488795     -1074.3196876659  2.73E+00
   119 Broy./Diag. 0.40E+00   10.5     0.94359538     -1077.6579664801 -3.34E+00
   120 Broy./Diag. 0.40E+00   10.7     0.86252233     -1074.9872792165  2.67E+00
   121 Broy./Diag. 0.40E+00   10.7     1.10994225     -1076.3581029508 -1.37E+00
   122 Broy./Diag. 0.40E+00   10.6     1.20003872     -1077.0555240459 -6.97E-01
   123 Broy./Diag. 0.40E+00   10.6     1.41321676     -1076.4108615142  6.45E-01
   124 Broy./Diag. 0.40E+00   11.0     1.30354111     -1077.4026093802 -9.92E-01
   125 Broy./Diag. 0.40E+00   10.7     1.27323264     -1076.9561629002  4.46E-01
   126 Broy./Diag. 0.40E+00   10.5     1.29128602     -1074.4154075515  2.54E+00
   127 Broy./Diag. 0.40E+00   10.9     1.34017679     -1078.5610425244 -4.15E+00
   128 Broy./Diag. 0.40E+00   10.8     0.81735985     -1074.4813042133  4.08E+00
   129 Broy./Diag. 0.40E+00   10.7     1.15677711     -1077.3590635794 -2.88E+00
   130 Broy./Diag. 0.40E+00   10.5     1.17186825     -1077.0979050782  2.61E-01
   131 Broy./Diag. 0.40E+00   11.0     1.76101749     -1074.6180998517  2.48E+00
   132 Broy./Diag. 0.40E+00   10.7     1.77086773     -1078.5903022005 -3.97E+00
   133 Broy./Diag. 0.40E+00   10.4     1.24306262     -1075.4526804533  3.14E+00
   134 Broy./Diag. 0.40E+00   10.6     1.59754583     -1076.3606975720 -9.08E-01
   135 Broy./Diag. 0.40E+00   10.5     1.60776782     -1076.6715661982 -3.11E-01
   136 Broy./Diag. 0.40E+00   10.5     1.31710577     -1076.2421811678  4.29E-01
   137 Broy./Diag. 0.40E+00   11.0     1.41875738     -1077.3896278728 -1.15E+00
   138 Broy./Diag. 0.40E+00   10.8     1.01128484     -1074.4289096296  2.96E+00
   139 Broy./Diag. 0.40E+00   10.5     1.00718177     -1077.1366611727 -2.71E+00
   140 Broy./Diag. 0.40E+00   10.8     0.81024962     -1075.1562246640  1.98E+00
   141 Broy./Diag. 0.40E+00   10.8     1.31955695     -1079.4644391858 -4.31E+00
   142 Broy./Diag. 0.40E+00   10.5     1.75803180     -1076.5996642037  2.86E+00
   143 Broy./Diag. 0.40E+00   10.9     1.29808639     -1076.6403444130 -4.07E-02
   144 Broy./Diag. 0.40E+00   11.1     1.15360055     -1075.6794400095  9.61E-01
   145 Broy./Diag. 0.40E+00   10.4     1.23145138     -1076.6658732470 -9.86E-01
   146 Broy./Diag. 0.40E+00   10.4     1.12782845     -1076.5923853975  7.35E-02
   147 Broy./Diag. 0.40E+00   10.8     1.22079722     -1076.9888360586 -3.96E-01
   148 Broy./Diag. 0.40E+00   10.8     1.34831142     -1077.6952300197 -7.06E-01
   149 Broy./Diag. 0.40E+00   10.6     0.79492476     -1075.8839348294  1.81E+00
   150 Broy./Diag. 0.40E+00   10.6     1.25985576     -1073.5710607718  2.31E+00
   151 Broy./Diag. 0.40E+00   10.6     1.75742267     -1079.1524893346 -5.58E+00
   152 Broy./Diag. 0.40E+00   10.9     1.78688412     -1079.5443362996 -3.92E-01
   153 Broy./Diag. 0.40E+00   10.7     1.30640304     -1075.0325979842  4.51E+00
   154 Broy./Diag. 0.40E+00   10.3     1.34133856     -1075.6335239108 -6.01E-01
   155 Broy./Diag. 0.40E+00   11.3     1.75106602     -1073.2788429594  2.35E+00
   156 Broy./Diag. 0.40E+00   10.7     1.16605304     -1077.2086006467 -3.93E+00
   157 Broy./Diag. 0.40E+00   10.9     1.76534539     -1079.0430209132 -1.83E+00
   158 Broy./Diag. 0.40E+00   10.7     0.87449460     -1077.0632942095  1.98E+00
   159 Broy./Diag. 0.40E+00   10.9     1.23098864     -1074.6209368852  2.44E+00
   160 Broy./Diag. 0.40E+00   10.3     1.63183430     -1079.2272270336 -4.61E+00
   161 Broy./Diag. 0.40E+00   10.5     1.58333317     -1078.3953214750  8.32E-01
   162 Broy./Diag. 0.40E+00   10.2     1.14519100     -1074.2682323477  4.13E+00
   163 Broy./Diag. 0.40E+00   10.7     1.14478819     -1076.3201237243 -2.05E+00
   164 Broy./Diag. 0.40E+00   10.6     1.70655729     -1073.9987017297  2.32E+00
   165 Broy./Diag. 0.40E+00   10.6     1.70106096     -1076.9493839224 -2.95E+00
   166 Broy./Diag. 0.40E+00   10.6     1.20064815     -1077.5647912203 -6.15E-01
   167 Broy./Diag. 0.40E+00   10.6     1.42264061     -1077.4383164602  1.26E-01
   168 Broy./Diag. 0.40E+00   10.5     1.40657870     -1079.0592030610 -1.62E+00
   169 Broy./Diag. 0.40E+00   10.1     1.75996635     -1074.1518707680  4.91E+00
   170 Broy./Diag. 0.40E+00   10.2     1.77792068     -1078.6179686976 -4.47E+00
   171 Broy./Diag. 0.40E+00   10.5     1.44013030     -1077.8273656586  7.91E-01
   172 Broy./Diag. 0.40E+00   11.1     0.72643883     -1074.3719166788  3.46E+00
   173 Broy./Diag. 0.40E+00   10.5     1.20499301     -1074.9802892382 -6.08E-01
   174 Broy./Diag. 0.40E+00   10.7     1.23193049     -1077.0011164051 -2.02E+00
   175 Broy./Diag. 0.40E+00   10.6     1.17442508     -1074.8845083393  2.12E+00
   176 Broy./Diag. 0.40E+00   10.4     1.22097544     -1077.0754829388 -2.19E+00
   177 Broy./Diag. 0.40E+00   10.6     1.23443308     -1077.1194624280 -4.40E-02
   178 Broy./Diag. 0.40E+00   10.6     1.16859162     -1076.8089472653  3.11E-01
   179 Broy./Diag. 0.40E+00   10.7     1.75893558     -1077.0446876730 -2.36E-01
   180 Broy./Diag. 0.40E+00   10.7     1.79242772     -1078.5131920726 -1.47E+00
   181 Broy./Diag. 0.40E+00   10.7     1.00674048     -1075.7895587754  2.72E+00
   182 Broy./Diag. 0.40E+00   10.5     1.29465235     -1073.0144806011  2.78E+00
   183 Broy./Diag. 0.40E+00   10.5     1.71618425     -1077.3799378759 -4.37E+00
   184 Broy./Diag. 0.40E+00   10.6     1.72518286     -1077.0444000576  3.36E-01
   185 Broy./Diag. 0.40E+00   11.0     1.68454732     -1075.1698125852  1.87E+00
   186 Broy./Diag. 0.40E+00   10.8     0.95179446     -1076.8387386079 -1.67E+00
   187 Broy./Diag. 0.40E+00   10.6     1.25915153     -1078.7551201152 -1.92E+00
   188 Broy./Diag. 0.40E+00   10.3     0.93475176     -1077.0505760578  1.70E+00
   189 Broy./Diag. 0.40E+00   10.3     0.96041039     -1074.5065894755  2.54E+00
   190 Broy./Diag. 0.40E+00   10.5     1.75523433     -1078.5265302748 -4.02E+00
   191 Broy./Diag. 0.40E+00   10.7     1.77759242     -1078.6893474385 -1.63E-01
   192 Broy./Diag. 0.40E+00   10.8     1.48982351     -1074.8062752683  3.88E+00
   193 Broy./Diag. 0.40E+00   10.8     1.46689936     -1080.4628747881 -5.66E+00
   194 Broy./Diag. 0.40E+00   10.9     1.20988119     -1074.3578992219  6.10E+00
   195 Broy./Diag. 0.40E+00   10.6     1.62476649     -1077.2334121937 -2.88E+00
   196 Broy./Diag. 0.40E+00   10.8     1.62351217     -1077.3107637937 -7.74E-02
   197 Broy./Diag. 0.40E+00   10.8     1.17081578     -1074.7544996986  2.56E+00
   198 Broy./Diag. 0.40E+00   10.5     0.74742304     -1077.1105889078 -2.36E+00
   199 Broy./Diag. 0.40E+00   10.6     1.23003392     -1078.7390019433 -1.63E+00
   200 Broy./Diag. 0.40E+00   10.6     1.55477928     -1078.7308498468  8.15E-03
   201 Broy./Diag. 0.40E+00   10.4     0.67191359     -1073.8486180788  4.88E+00
   202 Broy./Diag. 0.40E+00   10.8     1.34612382     -1077.3596127642 -3.51E+00
   203 Broy./Diag. 0.40E+00   10.8     1.33485688     -1076.9617581261  3.98E-01
   204 Broy./Diag. 0.40E+00   11.1     1.43790972     -1074.5094504810  2.45E+00
   205 Broy./Diag. 0.40E+00   10.8     1.47016872     -1077.8945465111 -3.39E+00
   206 Broy./Diag. 0.40E+00   10.4     0.84110152     -1076.2642382691  1.63E+00
   207 Broy./Diag. 0.40E+00   10.9     1.16678919     -1077.3710412989 -1.11E+00
   208 Broy./Diag. 0.40E+00   10.7     1.15985409     -1077.2964786161  7.46E-02
   209 Broy./Diag. 0.40E+00   10.8     1.68522050     -1074.9330465247  2.36E+00
   210 Broy./Diag. 0.40E+00   10.7     1.67514205     -1076.2628951473 -1.33E+00
   211 Broy./Diag. 0.40E+00   10.7     1.30615713     -1076.9956794998 -7.33E-01
   212 Broy./Diag. 0.40E+00   11.0     1.51592493     -1076.5593575939  4.36E-01
   213 Broy./Diag. 0.40E+00   10.7     1.53484999     -1076.4022925973  1.57E-01
   214 Broy./Diag. 0.40E+00   10.7     0.64522295     -1075.5316566307  8.71E-01
   215 Broy./Diag. 0.40E+00   10.8     1.33332670     -1074.3565795860  1.18E+00
   216 Broy./Diag. 0.40E+00   10.6     1.57157987     -1079.8658367363 -5.51E+00
   217 Broy./Diag. 0.40E+00   10.9     1.76301699     -1077.3966095681  2.47E+00
   218 Broy./Diag. 0.40E+00   10.7     1.79189166     -1077.7453929378 -3.49E-01
   219 Broy./Diag. 0.40E+00   10.3     1.28300921     -1075.9591938798  1.79E+00
   220 Broy./Diag. 0.40E+00   10.6     1.28419358     -1076.1987957930 -2.40E-01
   221 Broy./Diag. 0.40E+00   10.4     1.22054897     -1074.1763724892  2.02E+00
   222 Broy./Diag. 0.40E+00   10.4     1.13305079     -1077.5506561959 -3.37E+00
   223 Broy./Diag. 0.40E+00   10.7     1.20714016     -1077.1181069601  4.33E-01
   224 Broy./Diag. 0.40E+00   10.6     1.26903163     -1076.9662833577  1.52E-01
   225 Broy./Diag. 0.40E+00   10.5     1.28418923     -1076.8001300118  1.66E-01
   226 Broy./Diag. 0.40E+00   10.5     1.29411745     -1077.0929470708 -2.93E-01
   227 Broy./Diag. 0.40E+00   10.6     0.88182808     -1075.5203665470  1.57E+00
   228 Broy./Diag. 0.40E+00   10.6     1.76023339     -1073.5896687745  1.93E+00
   229 Broy./Diag. 0.40E+00   11.0     1.76975599     -1078.6913881322 -5.10E+00
   230 Broy./Diag. 0.40E+00   10.9     1.23832747     -1076.4120904145  2.28E+00
   231 Broy./Diag. 0.40E+00   10.6     1.30528921     -1076.4420469298 -3.00E-02
   232 Broy./Diag. 0.40E+00   10.4     0.76549070     -1076.4386295697  3.42E-03
   233 Broy./Diag. 0.40E+00   10.5     0.66221860     -1073.8850788239  2.55E+00
   234 Broy./Diag. 0.40E+00   11.2     0.80330709     -1075.9702911581 -2.09E+00
   235 Broy./Diag. 0.40E+00   10.8     1.25119618     -1077.6137952051 -1.64E+00
   236 Broy./Diag. 0.40E+00   10.4     1.25851539     -1077.1745211761  4.39E-01
   237 Broy./Diag. 0.40E+00   10.2     0.74403849     -1074.9110903307  2.26E+00
   238 Broy./Diag. 0.40E+00   10.6     0.78750149     -1077.4217267822 -2.51E+00
   239 Broy./Diag. 0.40E+00   10.8     1.26361212     -1076.7080988233  7.14E-01
   240 Broy./Diag. 0.40E+00   10.8     1.45008669     -1077.7097041411 -1.00E+00
   241 Broy./Diag. 0.40E+00   10.7     1.51166441     -1079.9594775639 -2.25E+00
   242 Broy./Diag. 0.40E+00   10.5     1.47249110     -1076.4295340206  3.53E+00
   243 Broy./Diag. 0.40E+00   10.3     1.76640226     -1073.2366667443  3.19E+00
   244 Broy./Diag. 0.40E+00   10.7     1.76215898     -1078.8610669914 -5.62E+00
   245 Broy./Diag. 0.40E+00   10.7     1.20070394     -1074.5016736450  4.36E+00
   246 Broy./Diag. 0.40E+00   10.8     1.18133595     -1076.4948460311 -1.99E+00
   247 Broy./Diag. 0.40E+00   10.9     0.67964668     -1074.7542965250  1.74E+00
   248 Broy./Diag. 0.40E+00   10.6     1.17675683     -1076.5929172296 -1.84E+00
   249 Broy./Diag. 0.40E+00   10.5     1.16932674     -1076.9920284095 -3.99E-01
   250 Broy./Diag. 0.40E+00   10.6     1.08309645     -1078.7839392348 -1.79E+00
   251 Broy./Diag. 0.40E+00   10.7     1.11505148     -1074.9615196418  3.82E+00
   252 Broy./Diag. 0.40E+00   10.4     1.55309198     -1078.2581633356 -3.30E+00
   253 Broy./Diag. 0.40E+00   11.1     1.76460458     -1076.5916500271  1.67E+00
   254 Broy./Diag. 0.40E+00   10.4     1.76883280     -1078.4652770148 -1.87E+00
   255 Broy./Diag. 0.40E+00   10.7     1.39358060     -1075.5103759056  2.95E+00
   256 Broy./Diag. 0.40E+00   11.0     1.40983414     -1075.7364985844 -2.26E-01
   257 Broy./Diag. 0.40E+00   10.7     1.36046183     -1080.5636016360 -4.83E+00
   258 Broy./Diag. 0.40E+00   10.8     1.18508031     -1074.7234491389  5.84E+00
   259 Broy./Diag. 0.40E+00   10.9     1.16943463     -1076.0570663128 -1.33E+00
   260 Broy./Diag. 0.40E+00   10.7     1.75625307     -1074.9177230527  1.14E+00
   261 Broy./Diag. 0.40E+00   10.9     1.77002862     -1080.9588672265 -6.04E+00
   262 Broy./Diag. 0.40E+00   10.2     1.42641885     -1076.5477096466  4.41E+00
   263 Broy./Diag. 0.40E+00   10.6     1.15787917     -1073.5100010259  3.04E+00
   264 Broy./Diag. 0.40E+00   10.5     1.64598305     -1077.2314565610 -3.72E+00
   265 Broy./Diag. 0.40E+00   10.6     1.65519785     -1077.0516715093  1.80E-01
   266 Broy./Diag. 0.40E+00   10.4     0.83165263     -1077.4847450636 -4.33E-01
   267 Broy./Diag. 0.40E+00   10.8     0.81481824     -1076.8269610321  6.58E-01
   268 Broy./Diag. 0.40E+00   10.9     1.10048967     -1074.7006230442  2.13E+00
   269 Broy./Diag. 0.40E+00   10.9     1.11252908     -1076.2604789269 -1.56E+00
   270 Broy./Diag. 0.40E+00   10.4     1.76928317     -1074.3863667202  1.87E+00
   271 Broy./Diag. 0.40E+00   10.3     1.76823645     -1078.7831291636 -4.40E+00
   272 Broy./Diag. 0.40E+00   10.0     1.23679217     -1078.1987596721  5.84E-01
   273 Broy./Diag. 0.40E+00   10.8     1.62723335     -1073.8688505190  4.33E+00
   274 Broy./Diag. 0.40E+00   10.8     1.68741547     -1079.1675089728 -5.30E+00
   275 Broy./Diag. 0.40E+00   10.8     1.27447393     -1077.0505722649  2.12E+00
   276 Broy./Diag. 0.40E+00   11.0     0.99475070     -1076.6432709411  4.07E-01
   277 Broy./Diag. 0.40E+00   10.7     0.78842921     -1075.7634327233  8.80E-01
   278 Broy./Diag. 0.40E+00   10.3     0.94036517     -1075.7949250088 -3.15E-02
   279 Broy./Diag. 0.40E+00   10.4     1.18210316     -1074.0581588029  1.74E+00
   280 Broy./Diag. 0.40E+00   10.6     1.18362560     -1077.1276515479 -3.07E+00
   281 Broy./Diag. 0.40E+00   10.8     1.35534098     -1075.0914725565  2.04E+00
   282 Broy./Diag. 0.40E+00   10.6     1.75415545     -1077.9078314784 -2.82E+00
   283 Broy./Diag. 0.40E+00   10.8     1.78465274     -1078.8685710315 -9.61E-01
   284 Broy./Diag. 0.40E+00   11.0     1.36200892     -1077.0334468264  1.84E+00
   285 Broy./Diag. 0.40E+00   10.5     1.37401368     -1075.7528549658  1.28E+00
   286 Broy./Diag. 0.40E+00   10.3     1.03479868     -1075.8440685965 -9.12E-02
   287 Broy./Diag. 0.40E+00   10.7     0.62872518     -1073.5928673971  2.25E+00
   288 Broy./Diag. 0.40E+00   10.9     1.16296060     -1076.0157023846 -2.42E+00
   289 Broy./Diag. 0.40E+00   10.6     1.14673700     -1077.1414376034 -1.13E+00
   290 Broy./Diag. 0.40E+00   10.3     0.87890096     -1077.1728363572 -3.14E-02
   291 Broy./Diag. 0.40E+00   10.7     1.56034305     -1075.1013074125  2.07E+00
   292 Broy./Diag. 0.40E+00   11.0     1.56354388     -1077.3775943707 -2.28E+00
   293 Broy./Diag. 0.40E+00   10.3     0.76221974     -1076.5671153823  8.10E-01
   294 Broy./Diag. 0.40E+00   10.6     1.24026033     -1074.7674485363  1.80E+00
   295 Broy./Diag. 0.40E+00   10.5     1.74709442     -1079.1798431960 -4.41E+00
   296 Broy./Diag. 0.40E+00   10.4     1.77565363     -1078.7170355564  4.63E-01
   297 Broy./Diag. 0.40E+00   10.5     1.44412052     -1078.9373444638 -2.20E-01
   298 Broy./Diag. 0.40E+00   10.8     1.38089815     -1076.2122567756  2.73E+00
   299 Broy./Diag. 0.40E+00   10.5     1.32141468     -1076.9663860152 -7.54E-01
   300 Broy./Diag. 0.40E+00   10.7     0.65439465     -1075.6384532968  1.33E+00

  Leaving inner SCF loop after reaching   300 steps.


  Electronic density on regular grids:       -511.9989558195        0.0010441805
  Core density on regular grids:              511.9999885877       -0.0000114123
  Total charge density on r-space grids:        0.0010327682
  Total charge density g-space grids:           0.0010327682

  Overlap energy of the core charge distribution:               0.00000000000000
  Self energy of the core charge distribution:              -2838.21791979120962
  Core Hamiltonian energy:                                    760.37831556729952
  Hartree energy:                                            1240.91202704480520
  Exchange-correlation energy:                               -238.71087611767678

  Total energy:                                             -1075.63845329678179

 *** WARNING in qs_scf.F:542 :: SCF run NOT converged ***


 ENERGY| Total FORCE_EVAL ( QS ) energy (a.u.):            -1075.911989121997976


 ATOMIC FORCES in [a.u.]

 # Atom   Kind   Element          X              Y              Z
      1      1      O          -0.06255388    -0.04490081    -0.09447426
      2      2      H          -0.01516907    -0.01845959     0.05472819
      3      2      H           0.04241763     0.06493374     0.01907633
      4      1      O           0.08397142     0.01211274     0.07098763
      5      2      H          -0.02153376    -0.04794253     0.03417869
      6      2      H           0.02314231     0.02624978    -0.08708365
      7      1      O          -0.07584461     0.02228030    -0.03798372
      8      2      H          -0.03753930    -0.04864260     0.08728548
      9      2      H           0.06079263    -0.01670022    -0.00504433
     10      1      O          -0.05200394     0.03887087     0.06953474
     11      2      H           0.05738909     0.04768471     0.02973827
     12      2      H           0.01712033    -0.05993683    -0.06729559
     13      1      O           0.06716248    -0.00066302     0.06723893
     14      2      H          -0.00731079     0.05932140    -0.02354084
     15      2      H          -0.01178250    -0.06261148    -0.05979175
     16      1      O          -0.04228892     0.10523605    -0.04274362
     17      2      H          -0.00954845    -0.05050449     0.04955620
     18      2      H           0.06778577     0.00049305    -0.06117188
     19      1      O           0.05140350     0.03849492     0.09554267
     20      2      H          -0.04105172    -0.06983563    -0.01860441
     21      2      H           0.03516069     0.05464521    -0.07480285
     22      1      O           0.00119909     0.07183032     0.07649807
     23      2      H          -0.03688171    -0.05688746    -0.03429422
     24      2      H           0.08806330     0.02977646    -0.01090421
     25      1      O           0.09967094    -0.07131668     0.01795316
     26      2      H          -0.08581180    -0.04958894    -0.01164734
     27      2      H           0.00320346     0.05078552     0.03837784
     28      1      O          -0.04580383     0.01039049    -0.07556230
     29      2      H           0.02612166     0.07377815    -0.00194660
     30      2      H           0.00178777    -0.05830471     0.08342577
     31      1      O           0.10957242     0.03758802    -0.01860035
     32      2      H          -0.05755252    -0.06612579     0.03790141
     33      2      H          -0.06150857     0.04261731    -0.05315966
     34      1      O           0.08187378     0.01945091     0.03749380
     35      2      H          -0.07053288     0.04368736     0.04669016
     36      2      H           0.01042471     0.01777958     0.00733836
     37      1      O          -0.01510429    -0.08009745    -0.08547426
     38      2      H           0.02791356     0.04602478     0.08094033
     39      2      H          -0.04653847     0.04539037    -0.04266340
     40      1      O           0.09027997     0.10495482     0.01723981
     41      2      H          -0.04216914    -0.04218004     0.03148208
     42      2      H           0.02503434    -0.00752543    -0.09306527
     43      1      O           0.00466176    -0.11359682     0.07891793
     44      2      H          -0.03995896     0.03066128    -0.00689114
     45      2      H           0.07834412     0.04009169    -0.00141087
     46      1      O          -0.01922761     0.00543943     0.08922284
     47      2      H           0.01139725     0.05348596    -0.05712561
     48      2      H          -0.00474481    -0.06837489    -0.05108263
     49      1      O           0.07432007    -0.01743110    -0.10484001
     50      2      H           0.00704530    -0.01878659     0.08350422
     51      2      H          -0.09691323     0.02584891    -0.01371209
     52      1      O          -0.09538778    -0.01925376     0.01514490
     53      2      H          -0.01726570     0.06978488     0.00460221
     54      2      H           0.04308201    -0.04067513    -0.04761527
     55      1      O           0.03797197    -0.07399729    -0.02402114
     56      2      H          -0.01521688     0.03545929    -0.04042450
     57      2      H          -0.00332719     0.03247500     0.08276615
     58      1      O          -0.01202454     0.01508997    -0.10985033
     59      2      H          -0.05004087     0.04533269     0.04753491
     60      2      H           0.03138115    -0.04737368     0.07932617
     61      1      O           0.06575132     0.01050089     0.09696134
     62      2      H          -0.07461570    -0.02264427    -0.00905624
     63      2      H           0.04927991    -0.02551759    -0.04001446
     64      1      O           0.09650374    -0.06888830    -0.02510512
     65      2      H           0.02180652     0.07022352     0.07138073
     66      2      H          -0.05645653    -0.04115162     0.00642468
     67      1      O          -0.02022572     0.02715013     0.05442780
     68      2      H          -0.07205425     0.07008259    -0.04037530
     69      2      H           0.02801331    -0.07496050    -0.03376866
     70      1      O          -0.09729567     0.00700289     0.05470377
     71      2      H           0.04124156    -0.03478519     0.02635189
     72      2      H           0.00131992     0.01749099    -0.08818325
     73      1      O          -0.03060204     0.00722998    -0.06954860
     74      2      H           0.08234003     0.00767135    -0.04771230
     75      2      H          -0.02147301    -0.05247746     0.06752021
     76      1      O          -0.10595226    -0.03077485     0.04130746
     77      2      H           0.04780505    -0.08009070    -0.05040147
     78      2      H           0.02763680     0.04418549    -0.03272002
     79      1      O           0.05893765     0.00614505    -0.06270506
     80      2      H          -0.04766695     0.01687638     0.04684698
     81      2      H           0.04050793    -0.09830827     0.01341078
     82      1      O           0.09270215    -0.07517606     0.05402962
     83      2      H           0.00493696     0.05394393    -0.06238574
     84      2      H          -0.06811147    -0.02355172     0.03478191
     85      1      O           0.05144965    -0.04751506    -0.02507106
     86      2      H          -0.05126912     0.01491655    -0.05236516
     87      2      H          -0.03618482    -0.02012654     0.06625072
     88      1      O          -0.06835405    -0.01767590     0.01054531
     89      2      H           0.06369701    -0.04271242     0.03739279
     90      2      H           0.02822577     0.05271167    -0.01289476
     91      1      O          -0.05018189     0.10272128    -0.02981586
     92      2      H           0.02677506    -0.06224024    -0.00468647
     93      2      H          -0.00749266     0.02011611     0.06771015
     94      1      O           0.02242179     0.08113993     0.03563392
     95      2      H          -0.03584660    -0.04888532     0.01053564
     96      2      H           0.08548864    -0.05268142    -0.00755121
     97      1      O           0.10407415     0.03063748     0.03052667
     98      2      H          -0.05180271     0.04083677     0.05170202
     99      2      H          -0.02000737    -0.02958243    -0.06339987
    100      1      O          -0.03995687    -0.07561557     0.01639392
    101      2      H          -0.02886113     0.06273016    -0.03485503
    102      2      H           0.05031399     0.06981666     0.04519634
    103      1      O           0.09360495    -0.10733578    -0.08160824
    104      2      H          -0.00502689     0.05915203    -0.00540962
    105      2      H          -0.04460160    -0.02432291     0.06771519
    106      1      O           0.00720450     0.04501586     0.06817842
    107      2      H           0.00316471     0.05888233    -0.04936119
    108      2      H           0.02846405    -0.05492994    -0.03122832
    109      1      O           0.05578719    -0.02031802     0.02433175
    110      2      H          -0.06507376    -0.03416924    -0.03747787
    111      2      H          -0.00149558     0.07805661     0.03804063
    112      1      O          -0.01336264     0.07294768     0.05850931
    113      2      H          -0.09194713    -0.05079596    -0.00792046
    114      2      H           0.03291376    -0.05769049    -0.02783692
    115      1      O           0.08032377    -0.04037910    -0.09583160
    116      2      H          -0.03064765    -0.03051627     0.00613910
    117      2      H           0.01080390     0.04441899     0.05211426
    118      1      O          -0.03399168     0.11298812    -0.06945838
    119      2      H           0.03704553    -0.05391352     0.02501075
    120      2      H          -0.06362099    -0.05930761    -0.01609519
    121      1      O          -0.03431503     0.03615828     0.03394657
    122      2      H          -0.05387885    -0.01486594    -0.03490737
    123      2      H           0.04304861    -0.06769076    -0.00047540
    124      1      O           0.02991114     0.01853361     0.00261821
    125      2      H           0.03681448    -0.07949736    -0.00269646
    126      2      H          -0.00538754    -0.03917006     0.01849746
    127      1      O           0.04340506    -0.05008722    -0.06574163
    128      2      H           0.00318173     0.05367257    -0.05921319
    129      2      H          -0.00103980     0.03608717     0.08833283
    130      1      O           0.00980256     0.07908914    -0.05637183
    131      2      H           0.00667310     0.02231064     0.06442734
    132      2      H           0.01262756    -0.03033580     0.03213210
    133      1      O           0.00397815     0.05950556     0.05915564
    134      2      H           0.07806584    -0.01766145    -0.05104651
    135      2      H          -0.06124151    -0.00192805    -0.03267808
    136      1      O           0.08191653     0.08967105    -0.03383477
    137      2      H          -0.02164455     0.00601239     0.08893288
    138      2      H           0.01619569    -0.06805111    -0.01250726
    139      1      O           0.06868781     0.05025387     0.01823773
    140      2      H           0.00976085    -0.08050981    -0.04422089
    141      2      H          -0.06877715     0.03669313    -0.03590805
    142      1      O           0.02711514     0.00114699    -0.04590396
    143      2      H           0.02514427     0.01046775     0.02089589
    144      2      H          -0.05041332    -0.03279751     0.03887555
    145      1      O           0.11340018    -0.01095556    -0.03195407
    146      2      H          -0.01849720    -0.07563406    -0.02606111
    147      2      H          -0.08152705     0.03830554     0.02081694
    148      1      O           0.09791520     0.03462625     0.04298742
    149      2      H          -0.03488319     0.03581771    -0.06367844
    150      2      H          -0.07787198    -0.01809671     0.05795723
    151      1      O           0.09669805     0.05101218    -0.00006427
    152      2      H           0.02866073    -0.07176564    -0.02194396
    153      2      H          -0.06106064     0.00914246    -0.02600575
    154      1      O          -0.06005135     0.09690143     0.08050679
    155      2      H          -0.02947259     0.02752613    -0.08586020
    156      2      H           0.05052610    -0.06005110     0.01562309
    157      1      O          -0.01827123    -0.11452321    -0.01261619
    158      2      H          -0.01278822     0.02002839    -0.07400820
    159      2      H          -0.01308208     0.07898763     0.07006243
    160      1      O          -0.01135611     0.06603682     0.00752536
    161      2      H          -0.04343385    -0.09232116    -0.02686613
    162      2      H           0.08115276    -0.01775367     0.06983644
    163      1      O           0.07922144     0.07728040    -0.06786735
    164      2      H           0.03781230    -0.07797903     0.03203173
    165      2      H          -0.09700218     0.01357475     0.02348926
    166      1      O          -0.01685903    -0.05468507     0.04944302
    167      2      H           0.05770353     0.08660584    -0.02484280
    168      2      H          -0.07398027    -0.03040996    -0.06729596
    169      1      O           0.04823019     0.00614688    -0.10402668
    170      2      H          -0.00054224    -0.06228912     0.03189110
    171      2      H           0.02955349     0.07394523     0.03392624
    172      1      O          -0.00250991     0.05452598    -0.03400652
    173      2      H          -0.01020559     0.00615878     0.07718167
    174      2      H           0.03427471    -0.09318910    -0.05862972
    175      1      O           0.06416112    -0.09081494    -0.07833473
    176      2      H          -0.06077554     0.00515072     0.00335941
    177      2      H           0.04388496     0.07355801     0.03121212
    178      1      O           0.00728063     0.01584756    -0.00696234
    179      2      H           0.02096245    -0.04236690    -0.05191990
    180      2      H          -0.10051521    -0.00203595    -0.03329327
    181      1      O           0.04608941     0.04408964     0.03564216
    182      2      H           0.02620348    -0.08055861     0.00124573
    183      2      H          -0.08747702    -0.00880647    -0.04321603
    184      1      O          -0.03006748    -0.04968527     0.06083581
    185      2      H          -0.05242628     0.00580679    -0.02768299
    186      2      H           0.07115872     0.00929263    -0.03532160
    187      1      O          -0.00170040     0.03180713     0.10833929
    188      2      H           0.00347788    -0.04380021    -0.04466378
    189      2      H          -0.02814677     0.08268689    -0.00640955
    190      1      O           0.12401144     0.07258365     0.03068084
    191      2      H          -0.02938940     0.01625281    -0.04694032
    192      2      H          -0.05699944    -0.02497792     0.07877486
 SUM OF ATOMIC FORCES           0.52453658    -0.07911014    -0.00392636     0.53048322

 -------------------------------------------------------------------------------
 -                                                                             -
 -                                DBCSR STATISTICS                             -
 -                                                                             -
 -------------------------------------------------------------------------------
 COUNTER                                    TOTAL       BLAS       SMM       ACC
 flops     5 x     5 x   256           4423014400       0.0%    100.0%      0.0%
 flops     5 x    13 x   256           5148881920       0.0%    100.0%      0.0%
 flops    13 x     5 x   256           5419348480       0.0%    100.0%      0.0%
 flops    13 x    13 x   256           7344669696       0.0%    100.0%      0.0%
 flops inhomo. stacks                           0       0.0%      0.0%      0.0%
 flops total                        22.335914E+09       0.0%    100.0%      0.0%
 flops max/rank                     22.335914E+09       0.0%    100.0%      0.0%
 matmuls inhomo. stacks                         0       0.0%      0.0%      0.0%
 matmuls total                             747985       0.0%    100.0%      0.0%
 number of processed stacks                 42140       0.0%    100.0%      0.0%
 average stack size                                     0.0      17.8       0.0
 marketing flops                   333.927416E+09
 -------------------------------------------------------------------------------
 # multiplications                            301
 max memory usage/rank               6.030463E+09
 # max total images/rank                        1
 # max 3D layers                                1
 # MPI messages exchanged                       0
 MPI messages size (bytes):
  total size                         0.000000E+00
  min size                           0.000000E+00
  max size                           0.000000E+00
  average size                       0.000000E+00
 MPI breakdown and total messages size (bytes):
             size <=      128                   0                        0
       128 < size <=     8192                   0                        0
      8192 < size <=    32768                   0                        0
     32768 < size <=   131072                   0                        0
    131072 < size <=  4194304                   0                        0
   4194304 < size <= 16777216                   0                        0
  16777216 < size                               0                        0
 -------------------------------------------------------------------------------

 MEMORY| Estimated peak process memory [MiB]                                5746

 -------------------------------------------------------------------------------
 -                                                                             -
 -                           R E F E R E N C E S                               -
 -                                                                             -
 -------------------------------------------------------------------------------
 
 CP2K version 7.1, the CP2K developers group (2019).
 CP2K is freely available from https://www.cp2k.org/ .

 Schuett, Ole; Messmer, Peter; Hutter, Juerg; VandeVondele, Joost. 
 Electronic Structure Calculations on Graphics Processing Units, John
 Wiley & Sons, Ltd, 173-190 (2016). 
 GPU-Accelerated Sparse Matrix-Matrix Multiplication for
 Linear Scaling Density Functional Theory.
 https://dx.doi.org/10.1002/9781118670712.ch8

 Borstnik, U; VandeVondele, J; Weber, V; Hutter, J. 
 PARALLEL COMPUTING, 40 (5-6), 47-58 (2014). 
 Sparse matrix multiplication: The distributed block-compressed sparse
 row library.
 https://dx.doi.org/10.1016/j.parco.2014.03.012

 Hutter, J; Iannuzzi, M; Schiffmann, F; VandeVondele, J. 
 WIREs Comput Mol Sci., 4 (1), 15-25 (2014). 
 CP2K: atomistic simulations of condensed matter systems.
 https://dx.doi.org/10.1002/wcms.1159

 Krack, M. 
 THEORETICAL CHEMISTRY ACCOUNTS, 114 (1-3), 145-152 (2005). 
 Pseudopotentials for H to Kr optimized for gradient-corrected
 exchange-correlation functionals.
 https://dx.doi.org/10.1007/s00214-005-0655-y

 VandeVondele, J; Krack, M; Mohamed, F; Parrinello, M; Chassaing, T;
 Hutter, J. COMPUTER PHYSICS COMMUNICATIONS, 167 (2), 103-128 (2005). 
 QUICKSTEP: Fast and accurate density functional calculations using a
 mixed Gaussian and plane waves approach.
 https://dx.doi.org/10.1016/j.cpc.2004.12.014

 Frigo, M; Johnson, SG. 
 PROCEEDINGS OF THE IEEE, 93 (2), 216-231 (2005). 
 The design and implementation of FFTW3.
 https://dx.doi.org/10.1109/JPROC.2004.840301

 Hartwigsen, C; Goedecker, S; Hutter, J. 
 PHYSICAL REVIEW B, 58 (7), 3641-3662 (1998). 
 Relativistic separable dual-space Gaussian pseudopotentials from H to Rn.
 https://dx.doi.org/10.1103/PhysRevB.58.3641

 Lippert, G; Hutter, J; Parrinello, M. 
 MOLECULAR PHYSICS, 92 (3), 477-487 (1997). 
 A hybrid Gaussian and plane wave density functional scheme.
 https://dx.doi.org/10.1080/002689797170220

 Goedecker, S; Teter, M; Hutter, J. 
 PHYSICAL REVIEW B, 54 (3), 1703-1710 (1996). 
 Separable dual-space Gaussian pseudopotentials.
 https://dx.doi.org/10.1103/PhysRevB.54.1703


 -------------------------------------------------------------------------------
 -                                                                             -
 -                                T I M I N G                                  -
 -                                                                             -
 -------------------------------------------------------------------------------
 SUBROUTINE                       CALLS  ASD         SELF TIME        TOTAL TIME
                                MAXIMUM       AVERAGE  MAXIMUM  AVERAGE  MAXIMUM
 CP2K                                 1  1.0    0.229    0.229 3191.066 3191.066
 qs_forces                            1  2.0    0.000    0.000 3188.244 3188.244
 qs_energies                          1  3.0    0.000    0.000 3187.016 3187.016
 scf_env_do_scf                       1  4.0    0.001    0.001 3183.969 3183.969
 scf_env_do_scf_inner_loop          300  5.0    0.065    0.065 3183.968 3183.968
 qs_scf_new_mos                     300  6.0    0.010    0.010 2069.327 2069.327
 eigensolver                        300  7.0    0.041    0.041 1961.128 1961.128
 cp_fm_syevd                        300  8.0 1271.668 1271.668 1273.477 1273.477
 cp_fm_cholesky_restore             900  8.0  686.561  686.561  686.561  686.561
 gspace_mixing                      299  6.0    7.954    7.954  578.412  578.412
 broyden_mixing                     299  7.0  522.563  522.563  522.566  522.566
 rebuild_ks_matrix                  301  7.0    0.001    0.001  288.456  288.456
 qs_ks_build_kohn_sham_matrix       301  8.0    0.094    0.094  288.455  288.455
 qs_ks_update_qs_env                300  6.0    0.003    0.003  287.730  287.730
 pw_transfer                       3912  9.9    0.321    0.321  261.349  261.349
 fft_wrap_pw1pw2                   3310 10.9    0.047    0.047  253.684  253.684
 qs_rho_update_rho                  301  6.0    0.004    0.004  246.315  246.315
 calculate_rho_elec                 301  7.0  111.096  111.096  246.311  246.311
 fft_wrap_pw1pw2_70                1504 11.2   24.087   24.087  212.852  212.852
 density_rs2pw                      301  8.0    0.028    0.028  129.147  129.147
 fft3d_s                           3311 12.9  128.174  128.174  128.218  128.218
 sum_up_and_integrate               301  9.0    3.514    3.514  117.688  117.688
 integrate_v_rspace                 301 10.0   10.513   10.513  114.173  114.173
 calculate_dm_sparse                300  7.0    0.004    0.004   75.437   75.437
 pw_scatter_s                      1804 13.2   74.798   74.798   74.798   74.798
 cp_dbcsr_plus_fm_fm_t_native       301  8.0    0.020    0.020   73.723   73.723
 pw_poisson_solve                   301  9.0   65.461   65.461   72.913   72.913
 potential_pw2rs                    301 11.0    0.546    0.546   70.319   70.319
 -------------------------------------------------------------------------------

 The number of warnings for this run is : 1
 
 -------------------------------------------------------------------------------
  **** **** ******  **  PROGRAM ENDED AT                 2021-01-12 02:56:23.221
 ***** ** ***  *** **   PROGRAM RAN ON                                   gnode23
 **    ****   ******    PROGRAM RAN BY                               mayank.modi
 ***** **    ** ** **   PROGRAM PROCESS ID                                 20182
  **** **  *******  **  PROGRAM STOPPED IN /home/mayank.modi/ab-initio-thermodyn
                                           amics-of-water/mayank/cp2k_energy_cal
                                           culations
