 DBCSR| CPU Multiplication driver                                           XSMM
 DBCSR| Multrec recursion limit                                              512
 DBCSR| Multiplication stack size                                           1000
 DBCSR| Maximum elements for images                                    UNLIMITED
 DBCSR| Multiplicative factor virtual images                                   1
 DBCSR| Use multiplication densification                                       T
 DBCSR| Multiplication size stacks                                             3


  **** **** ******  **  PROGRAM STARTED AT               2021-02-22 21:14:24.577
 ***** ** ***  *** **   PROGRAM STARTED ON                               gnode68
 **    ****   ******    PROGRAM STARTED BY                           mayank.modi
 ***** **    ** ** **   PROGRAM PROCESS ID                                 26061
  **** **  *******  **  PROGRAM STARTED IN /home/mayank.modi/ab-initio-thermodyn
                                           amics-of-water/mayank/cp2k_energy_cal
                                           culations

 CP2K| version string:                                          CP2K version 7.1
 CP2K| source code revision number:                                  git:e635599
 CP2K| cp2kflags: omp libint fftw3 libxc xsmm spglib                            
 CP2K| is freely available from                            https://www.cp2k.org/
 CP2K| Program compiled at                          Mon Dec 23 19:23:12 CET 2019
 CP2K| Program compiled on                                                pc9404
 CP2K| Program compiled for                                Linux-x86-64-gfortran
 CP2K| Data directory path                                        /opt/cp2k/data
 CP2K| Input file name                  input_training_correct_cell/input1420.in

 GLOBAL| Force Environment number                                              1
 GLOBAL| Basis set file name                                           BASIS_SET
 GLOBAL| Potential file name                                      GTH_POTENTIALS
 GLOBAL| MM Potential file name                                     MM_POTENTIAL
 GLOBAL| Coordinate file name                                      __STD_INPUT__
 GLOBAL| Method name                                                        CP2K
 GLOBAL| Project name                                                   H2O_bulk
 GLOBAL| Preferred FFT library                                             FFTW3
 GLOBAL| Preferred diagonalization lib.                                       SL
 GLOBAL| Run type                                                   ENERGY_FORCE
 GLOBAL| All-to-all communication in single precision                          F
 GLOBAL| FFTs using library dependent lengths                                  F
 GLOBAL| Global print level                                                  LOW
 GLOBAL| MPI I/O enabled                                                       T
 GLOBAL| Total number of message passing processes                             1
 GLOBAL| Number of threads for this process                                   36
 GLOBAL| This output is from process                                           0
 GLOBAL| CPU model name                Intel(R) Xeon(R) CPU E5-2640 v4 @ 2.40GHz
 GLOBAL| CPUID                                                              1002
 GLOBAL| Compiled for CPUID                                                    0

 MEMORY| system memory details [Kb]
 MEMORY|                        rank 0           min           max       average
 MEMORY| MemTotal            131893512     131893512     131893512     131893512
 MEMORY| MemFree             119709040     119709040     119709040     119709040
 MEMORY| Buffers               1024364       1024364       1024364       1024364
 MEMORY| Cached                9699088       9699088       9699088       9699088
 MEMORY| Slab                  1017968       1017968       1017968       1017968
 MEMORY| SReclaimable           623140        623140        623140        623140
 MEMORY| MemLikelyFree       131055632     131055632     131055632     131055632


 GENERATE|  Preliminary Number of Bonds generated:                             0
 GENERATE|  Achieved consistency in connectivity generation.

 *******************************************************************************
 *******************************************************************************
 **                                                                           **
 **     #####                         ##              ##                      **
 **    ##   ##            ##          ##              ##                      **
 **   ##     ##                       ##            ######                    **
 **   ##     ##  ##   ##  ##   #####  ##  ##   ####   ##    #####    #####    **
 **   ##     ##  ##   ##  ##  ##      ## ##   ##      ##   ##   ##  ##   ##   **
 **   ##  ## ##  ##   ##  ##  ##      ####     ###    ##   ######   ######    **
 **    ##  ###   ##   ##  ##  ##      ## ##      ##   ##   ##       ##        **
 **     #######   #####   ##   #####  ##  ##  ####    ##    #####   ##        **
 **           ##                                                    ##        **
 **                                                                           **
 **                                                ... make the atoms dance   **
 **                                                                           **
 **            Copyright (C) by CP2K developers group (2000 - 2019)           **
 **                                                                           **
 *******************************************************************************


 TOTAL NUMBERS AND MAXIMUM NUMBERS

  Total number of            - Atomic kinds:                                   2
                             - Atoms:                                        192
                             - Shell sets:                                   384
                             - Shells:                                       704
                             - Primitive Cartesian functions:                960
                             - Cartesian basis functions:                   1536
                             - Spherical basis functions:                   1472

  Maximum angular momentum of- Orbital basis functions:                        2
                             - Local part of the GTH pseudopotential:          2
                             - Non-local part of the GTH pseudopotential:      0


 SCF PARAMETERS         Density guess:                                    ATOMIC
                        --------------------------------------------------------
                        max_scf:                                             300
                        max_scf_history:                                       0
                        max_diis:                                              4
                        --------------------------------------------------------
                        eps_scf:                                        1.00E-07
                        eps_scf_history:                                0.00E+00
                        eps_diis:                                       1.00E-01
                        eps_eigval:                                     1.00E-05
                        --------------------------------------------------------
                        level_shift [a.u.]:                                 0.00
                        --------------------------------------------------------
                        Mixing method:                            BROYDEN_MIXING
                                                charge density mixing in g-space
                        --------------------------------------------------------
                        No outer SCF

 Number of electrons:                                                        512
 Number of occupied orbitals:                                                256
 Number of molecular orbitals:                                               256

 Number of orbital functions:                                               1472
 Number of independent orbital functions:                                   1472

 Extrapolation method: initial_guess


 SCF WAVEFUNCTION OPTIMIZATION

  Step     Update method      Time    Convergence         Total energy    Change
  ------------------------------------------------------------------------------
     1 NoMix/Diag. 0.40E+00    7.2     0.60439150     -1064.1125157974 -1.06E+03
     2 Broy./Diag. 0.40E+00    8.0     1.85562595      -995.2675319675  6.88E+01
     3 Broy./Diag. 0.40E+00    7.9     1.94958297     -1265.8744102029 -2.71E+02
     4 Broy./Diag. 0.40E+00    8.4     1.58695006     -1119.5410287783  1.46E+02
     5 Broy./Diag. 0.40E+00    8.7     1.54638804     -1094.3224066802  2.52E+01
     6 Broy./Diag. 0.40E+00    8.9     1.72830480     -1099.5457841221 -5.22E+00
     7 Broy./Diag. 0.40E+00    9.0     1.78521034     -1095.4525708219  4.09E+00
     8 Broy./Diag. 0.40E+00    9.2     1.52386114     -1084.5238065516  1.09E+01
     9 Broy./Diag. 0.40E+00    9.1     0.60904945     -1074.5479942356  9.98E+00
    10 Broy./Diag. 0.40E+00    9.5     0.16681036     -1071.9907153028  2.56E+00
    11 Broy./Diag. 0.40E+00    9.7     0.15193565     -1073.6106179855 -1.62E+00
    12 Broy./Diag. 0.40E+00    9.5     1.63677441     -1073.1233221264  4.87E-01
    13 Broy./Diag. 0.40E+00    9.3     1.66860568     -1071.8776377889  1.25E+00
    14 Broy./Diag. 0.40E+00    9.0     0.78544823     -1075.5213409517 -3.64E+00
    15 Broy./Diag. 0.40E+00    9.6     0.38569161     -1073.7618396454  1.76E+00
    16 Broy./Diag. 0.40E+00    9.5     0.42624701     -1078.4362690722 -4.67E+00
    17 Broy./Diag. 0.40E+00    9.3     0.18336747     -1076.6002997382  1.84E+00
    18 Broy./Diag. 0.40E+00    8.9     0.10229841     -1075.1960701311  1.40E+00
    19 Broy./Diag. 0.40E+00    9.0     0.05874003     -1076.5314861180 -1.34E+00
    20 Broy./Diag. 0.40E+00    9.4     0.03755218     -1076.1496797397  3.82E-01
    21 Broy./Diag. 0.40E+00    9.3     0.03715954     -1075.9010735877  2.49E-01
    22 Broy./Diag. 0.40E+00    9.5     0.07563431     -1076.1512154278 -2.50E-01
    23 Broy./Diag. 0.40E+00    9.4     0.06281150     -1076.1321614864  1.91E-02
    24 Broy./Diag. 0.40E+00    9.6     0.04796995     -1076.1574279863 -2.53E-02
    25 Broy./Diag. 0.40E+00    9.3     0.01975799     -1075.9509074203  2.07E-01
    26 Broy./Diag. 0.40E+00    9.5     0.01650332     -1076.1304777250 -1.80E-01
    27 Broy./Diag. 0.40E+00    9.3     0.01239268     -1076.0297359769  1.01E-01
    28 Broy./Diag. 0.40E+00    8.9     0.00944848     -1076.0310431855 -1.31E-03
    29 Broy./Diag. 0.40E+00    8.9     0.00813663     -1076.1100161512 -7.90E-02
    30 Broy./Diag. 0.40E+00    8.7     0.00583277     -1076.0158671750  9.41E-02
    31 Broy./Diag. 0.40E+00    9.0     0.00804709     -1076.0352486749 -1.94E-02
    32 Broy./Diag. 0.40E+00    9.5     0.00721883     -1076.0734284743 -3.82E-02
    33 Broy./Diag. 0.40E+00    9.3     1.66444801     -1076.0488667934  2.46E-02
    34 Broy./Diag. 0.40E+00    9.5     1.67090105     -1077.5362403292 -1.49E+00
    35 Broy./Diag. 0.40E+00    9.6     0.03457627     -1075.9836218204  1.55E+00
    36 Broy./Diag. 0.40E+00    9.6     0.01912206     -1076.1202824028 -1.37E-01
    37 Broy./Diag. 0.40E+00    9.4     0.00424481     -1076.0257414326  9.45E-02
    38 Broy./Diag. 0.40E+00    9.6     0.00299569     -1076.0309112088 -5.17E-03
    39 Broy./Diag. 0.40E+00    9.5     0.00218991     -1076.0235411502  7.37E-03
    40 Broy./Diag. 0.40E+00    9.7     0.00238454     -1076.0425483042 -1.90E-02
    41 Broy./Diag. 0.40E+00    9.4     0.00175417     -1076.0209340123  2.16E-02
    42 Broy./Diag. 0.40E+00    9.3     0.00168346     -1076.0299490225 -9.02E-03
    43 Broy./Diag. 0.40E+00    9.3     1.66708836     -1076.0383311318 -8.38E-03
    44 Broy./Diag. 0.40E+00    9.5     1.67212423     -1077.5575995402 -1.52E+00
    45 Broy./Diag. 0.40E+00    9.8     0.01896005     -1076.0101437668  1.55E+00
    46 Broy./Diag. 0.40E+00    9.5     0.01307182     -1076.0088946534  1.25E-03
    47 Broy./Diag. 0.40E+00    9.7     0.00624569     -1076.0668735428 -5.80E-02
    48 Broy./Diag. 0.40E+00    9.6     0.00212362     -1076.0178507311  4.90E-02
    49 Broy./Diag. 0.40E+00    9.9     0.00094979     -1076.0213957066 -3.54E-03
    50 Broy./Diag. 0.40E+00    9.3     0.00095299     -1076.0270852238 -5.69E-03
    51 Broy./Diag. 0.40E+00    9.4     0.00099539     -1076.0222023360  4.88E-03
    52 Broy./Diag. 0.40E+00    9.4     0.00093370     -1076.0244717265 -2.27E-03
    53 Broy./Diag. 0.40E+00    9.7     0.01045001     -1076.0289097564 -4.44E-03
    54 Broy./Diag. 0.40E+00    9.4     0.00379814     -1076.0511312457 -2.22E-02
    55 Broy./Diag. 0.40E+00    9.5     0.00428292     -1076.0646660305 -1.35E-02
    56 Broy./Diag. 0.40E+00    9.4     1.66489734     -1076.0342397701  3.04E-02
    57 Broy./Diag. 0.40E+00    9.4     1.69042617     -1077.5751063182 -1.54E+00
    58 Broy./Diag. 0.40E+00    9.4     0.05362357     -1076.0811395553  1.49E+00
    59 Broy./Diag. 0.40E+00    9.5     0.04069784     -1075.6230419446  4.58E-01
    60 Broy./Diag. 0.40E+00    9.2     0.01057838     -1075.9456442818 -3.23E-01
    61 Broy./Diag. 0.40E+00    9.5     0.00714978     -1076.0238831159 -7.82E-02
    62 Broy./Diag. 0.40E+00    9.5     0.00433240     -1076.0059320495  1.80E-02
    63 Broy./Diag. 0.40E+00    9.6     0.00546973     -1076.0010900566  4.84E-03
    64 Broy./Diag. 0.40E+00    9.4     0.00348495     -1076.0047196929 -3.63E-03
    65 Broy./Diag. 0.40E+00    9.5     0.00181116     -1076.0113789534 -6.66E-03
    66 Broy./Diag. 0.40E+00    9.7     0.01423021     -1076.0096484119  1.73E-03
    67 Broy./Diag. 0.40E+00    9.6     0.00232249     -1076.0289381017 -1.93E-02
    68 Broy./Diag. 0.40E+00    9.4     0.00282206     -1076.0562046411 -2.73E-02
    69 Broy./Diag. 0.40E+00    9.4     0.00375552     -1076.0452329149  1.10E-02
    70 Broy./Diag. 0.40E+00    9.5     1.66434441     -1076.0251952060  2.00E-02
    71 Broy./Diag. 0.40E+00    9.5     1.74250864     -1077.5820421515 -1.56E+00
    72 Broy./Diag. 0.40E+00    9.5     0.07947861     -1077.3563223006  2.26E-01
    73 Broy./Diag. 0.40E+00    9.6     0.03186749     -1077.1466176070  2.10E-01
    74 Broy./Diag. 0.40E+00    9.3     1.67160402     -1077.1512891989 -4.67E-03
    75 Broy./Diag. 0.40E+00    9.6     0.26005496     -1075.0482223341  2.10E+00
    76 Broy./Diag. 0.40E+00    9.6     0.14159416     -1074.8930077590  1.55E-01
    77 Broy./Diag. 0.40E+00    9.6     0.03129702     -1075.5433371232 -6.50E-01
    78 Broy./Diag. 0.40E+00    9.3     0.03171617     -1075.3377154133  2.06E-01
    79 Broy./Diag. 0.40E+00    9.4     0.04653299     -1075.5415034349 -2.04E-01
    80 Broy./Diag. 0.40E+00    9.6     1.60660484     -1075.8678620682 -3.26E-01
    81 Broy./Diag. 0.40E+00    9.6     0.24613260     -1077.5828599158 -1.71E+00
    82 Broy./Diag. 0.40E+00    9.3     0.24758244     -1077.6081149933 -2.53E-02
    83 Broy./Diag. 0.40E+00    9.5     0.05987174     -1077.5706533581  3.75E-02
    84 Broy./Diag. 0.40E+00    9.7     1.60310108     -1077.4155202245  1.55E-01
    85 Broy./Diag. 0.40E+00    9.5     1.13252498     -1075.9577217539  1.46E+00
    86 Broy./Diag. 0.40E+00    9.6     1.17282179     -1077.3553909896 -1.40E+00
    87 Broy./Diag. 0.40E+00    9.5     0.17312540     -1075.9421050912  1.41E+00
    88 Broy./Diag. 0.40E+00    9.6     0.13045939     -1076.2415943827 -2.99E-01
    89 Broy./Diag. 0.40E+00    9.6     0.05803881     -1076.1372677436  1.04E-01
    90 Broy./Diag. 0.40E+00    9.6     0.02087736     -1075.9983283518  1.39E-01
    91 Broy./Diag. 0.40E+00    9.3     0.00761944     -1076.1008071417 -1.02E-01
    92 Broy./Diag. 0.40E+00    9.4     0.00872260     -1076.0702387519  3.06E-02
    93 Broy./Diag. 0.40E+00    9.6     1.66418138     -1076.0382483845  3.20E-02
    94 Broy./Diag. 0.40E+00    9.6     0.00115603     -1077.3781702278 -1.34E+00
    95 Broy./Diag. 0.40E+00    9.5     0.01716827     -1077.3724804547  5.69E-03
    96 Broy./Diag. 0.40E+00    9.6     0.00681040     -1077.4235161496 -5.10E-02
    97 Broy./Diag. 0.40E+00    9.5     1.66861135     -1077.4213642311  2.15E-03
    98 Broy./Diag. 0.40E+00    9.4     1.66789199     -1076.0383981495  1.38E+00
    99 Broy./Diag. 0.40E+00    9.7     1.66580548     -1077.5526679736 -1.51E+00
   100 Broy./Diag. 0.40E+00    9.6     0.10147582     -1075.8789998048  1.67E+00
   101 Broy./Diag. 0.40E+00    9.6     0.08474967     -1076.2734402472 -3.94E-01
   102 Broy./Diag. 0.40E+00    9.4     0.02923827     -1076.0502297290  2.23E-01
   103 Broy./Diag. 0.40E+00    9.6     0.01433236     -1076.0130776367  3.72E-02
   104 Broy./Diag. 0.40E+00    9.5     0.00533814     -1076.0473976686 -3.43E-02
   105 Broy./Diag. 0.40E+00    9.4     0.00360643     -1076.0422034070  5.19E-03
   106 Broy./Diag. 0.40E+00    9.5     0.00332189     -1076.0244705395  1.77E-02
   107 Broy./Diag. 0.40E+00    9.5     0.00317536     -1076.0487005704 -2.42E-02
   108 Broy./Diag. 0.40E+00    9.3     1.66581581     -1076.0239483532  2.48E-02
   109 Broy./Diag. 0.40E+00    9.3     1.67172358     -1077.5505440563 -1.53E+00
   110 Broy./Diag. 0.40E+00    9.5     0.02651379     -1075.9893463722  1.56E+00
   111 Broy./Diag. 0.40E+00    9.6     0.01330942     -1076.0857662180 -9.64E-02
   112 Broy./Diag. 0.40E+00    9.5     0.00540307     -1076.0309595312  5.48E-02
   113 Broy./Diag. 0.40E+00    9.6     0.00281382     -1076.0207052608  1.03E-02
   114 Broy./Diag. 0.40E+00    9.6     0.00182820     -1076.0287269453 -8.02E-03
   115 Broy./Diag. 0.40E+00    9.4     0.00128062     -1076.0292190784 -4.92E-04
   116 Broy./Diag. 0.40E+00    9.6     0.00130798     -1076.0300211977 -8.02E-04
   117 Broy./Diag. 0.40E+00    9.4     0.00117504     -1076.0265695689  3.45E-03
   118 Broy./Diag. 0.40E+00    9.5     1.66821715     -1076.0337355507 -7.17E-03
   119 Broy./Diag. 0.40E+00    9.5     1.67350545     -1077.5542389103 -1.52E+00
   120 Broy./Diag. 0.40E+00    9.5     0.02251570     -1076.0048488740  1.55E+00
   121 Broy./Diag. 0.40E+00    9.6     0.00947100     -1076.0328954917 -2.80E-02
   122 Broy./Diag. 0.40E+00    9.4     0.00358934     -1076.0442909734 -1.14E-02
   123 Broy./Diag. 0.40E+00    9.4     0.00214984     -1076.0174789984  2.68E-02
   124 Broy./Diag. 0.40E+00    9.6     0.00153865     -1076.0174292758  4.97E-05
   125 Broy./Diag. 0.40E+00    9.7     0.00118396     -1076.0228193968 -5.39E-03
   126 Broy./Diag. 0.40E+00    9.3     0.00056366     -1076.0242972209 -1.48E-03
   127 Broy./Diag. 0.40E+00    9.7     0.00050154     -1076.0231421639  1.16E-03
   128 Broy./Diag. 0.40E+00    9.8     0.01241015     -1076.0239368708 -7.95E-04
   129 Broy./Diag. 0.40E+00    9.3     0.00495598     -1076.0560121950 -3.21E-02
   130 Broy./Diag. 0.40E+00    9.3     0.00524939     -1076.0628942527 -6.88E-03
   131 Broy./Diag. 0.40E+00    9.4     1.66514730     -1076.0290987750  3.38E-02
   132 Broy./Diag. 0.40E+00    9.7     1.69640588     -1077.5785754313 -1.55E+00
   133 Broy./Diag. 0.40E+00    9.6     0.04990820     -1075.9521757130  1.63E+00
   134 Broy./Diag. 0.40E+00    9.6     0.03508177     -1075.8543350754  9.78E-02
   135 Broy./Diag. 0.40E+00    9.1     0.01816550     -1075.9425332812 -8.82E-02
   136 Broy./Diag. 0.40E+00    9.4     0.00956114     -1075.9773251197 -3.48E-02
   137 Broy./Diag. 0.40E+00    9.3     0.00527889     -1075.9864082415 -9.08E-03
   138 Broy./Diag. 0.40E+00    9.6     0.00274743     -1075.9724541834  1.40E-02
   139 Broy./Diag. 0.40E+00    9.6     0.00230422     -1075.9630059440  9.45E-03
   140 Broy./Diag. 0.40E+00    9.4     0.00540489     -1075.9781163191 -1.51E-02
   141 Broy./Diag. 0.40E+00    9.6     0.02681398     -1075.9802041532 -2.09E-03
   142 Broy./Diag. 0.40E+00    9.6     0.00362660     -1076.0352810993 -5.51E-02
   143 Broy./Diag. 0.40E+00    9.3     0.00416637     -1076.0502888961 -1.50E-02
   144 Broy./Diag. 0.40E+00    9.0     0.00327288     -1076.0336833648  1.66E-02
   145 Broy./Diag. 0.40E+00    9.2     1.66436128     -1076.0417096466 -8.03E-03
   146 Broy./Diag. 0.40E+00    9.3     1.86531872     -1077.5920737839 -1.55E+00
   147 Broy./Diag. 0.40E+00    9.5     0.76649131     -1078.5594543651 -9.67E-01
   148 Broy./Diag. 0.40E+00    9.3     0.72831471     -1078.4225549666  1.37E-01
   149 Broy./Diag. 0.40E+00    9.4     0.75278421     -1077.3586708241  1.06E+00
   150 Broy./Diag. 0.40E+00    9.6     1.84216814     -1078.5716563032 -1.21E+00
   151 Broy./Diag. 0.40E+00    9.5     1.69505453     -1076.7645929859  1.81E+00
   152 Broy./Diag. 0.40E+00    9.3     1.69488845     -1077.5638988907 -7.99E-01
   153 Broy./Diag. 0.40E+00    9.7     0.39709776     -1076.7301291081  8.34E-01
   154 Broy./Diag. 0.40E+00    9.4     1.78985184     -1077.9241734157 -1.19E+00
   155 Broy./Diag. 0.40E+00    9.4     1.46472553     -1073.2030985864  4.72E+00
   156 Broy./Diag. 0.40E+00    9.5     0.64433077     -1072.3072499165  8.96E-01
   157 Broy./Diag. 0.40E+00    9.5     0.22194038     -1075.7275566085 -3.42E+00
   158 Broy./Diag. 0.40E+00    9.5     0.19150328     -1075.6858855001  4.17E-02
   159 Broy./Diag. 0.40E+00    9.4     0.11869999     -1075.3873185566  2.99E-01
   160 Broy./Diag. 0.40E+00    9.4     0.08799183     -1076.3625522664 -9.75E-01
   161 Broy./Diag. 0.40E+00    9.4     0.07993637     -1075.6103167885  7.52E-01
   162 Broy./Diag. 0.40E+00    9.5     0.07116154     -1076.1613766721 -5.51E-01
   163 Broy./Diag. 0.40E+00    9.4     0.11347040     -1075.8391328326  3.22E-01
   164 Broy./Diag. 0.40E+00    9.4     0.07370086     -1076.2111331903 -3.72E-01
   165 Broy./Diag. 0.40E+00    9.6     0.05885733     -1076.0073060673  2.04E-01
   166 Broy./Diag. 0.40E+00    9.4     0.03201531     -1075.8806433363  1.27E-01
   167 Broy./Diag. 0.40E+00    9.6     0.01822645     -1076.0992360976 -2.19E-01
   168 Broy./Diag. 0.40E+00    9.5     0.01372728     -1076.0781815530  2.11E-02
   169 Broy./Diag. 0.40E+00    9.5     0.01197664     -1076.0319834310  4.62E-02
   170 Broy./Diag. 0.40E+00    9.3     0.01003099     -1076.0542564898 -2.23E-02
   171 Broy./Diag. 0.40E+00    8.9     0.00530526     -1076.0436679127  1.06E-02
   172 Broy./Diag. 0.40E+00    9.0     0.00364785     -1076.0572820632 -1.36E-02
   173 Broy./Diag. 0.40E+00    8.7     0.00411489     -1076.0480315043  9.25E-03
   174 Broy./Diag. 0.40E+00    8.9     1.66360151     -1076.0380733348  9.96E-03
   175 Broy./Diag. 0.40E+00    9.6     1.67012759     -1077.5383737726 -1.50E+00
   176 Broy./Diag. 0.40E+00    9.4     0.02502055     -1075.9963132895  1.54E+00
   177 Broy./Diag. 0.40E+00    9.6     0.01277646     -1076.0799390742 -8.36E-02
   178 Broy./Diag. 0.40E+00    9.4     0.00724636     -1076.0043935304  7.55E-02
   179 Broy./Diag. 0.40E+00    9.5     0.00264362     -1076.0347677572 -3.04E-02
   180 Broy./Diag. 0.40E+00    9.4     0.00239094     -1076.0180835802  1.67E-02
   181 Broy./Diag. 0.40E+00    9.6     0.00153863     -1076.0339938112 -1.59E-02
   182 Broy./Diag. 0.40E+00    9.3     0.00143326     -1076.0268255031  7.17E-03
   183 Broy./Diag. 0.40E+00    9.6     0.00146420     -1076.0293102049 -2.48E-03
   184 Broy./Diag. 0.40E+00    9.3     0.01384797     -1076.0324011718 -3.09E-03
   185 Broy./Diag. 0.40E+00    9.4     1.66352660     -1076.0543944147 -2.20E-02
   186 Broy./Diag. 0.40E+00    9.4     1.67426666     -1077.5758277153 -1.52E+00
   187 Broy./Diag. 0.40E+00    9.6     0.01319155     -1075.9833717711  1.59E+00
   188 Broy./Diag. 0.40E+00    9.3     0.00939533     -1076.0926634969 -1.09E-01
   189 Broy./Diag. 0.40E+00    9.2     0.00184045     -1076.0199474421  7.27E-02
   190 Broy./Diag. 0.40E+00    9.6     0.00170303     -1076.0192267717  7.21E-04
   191 Broy./Diag. 0.40E+00    9.6     0.00097241     -1076.0198797070 -6.53E-04
   192 Broy./Diag. 0.40E+00    9.5     0.00040011     -1076.0245618593 -4.68E-03
   193 Broy./Diag. 0.40E+00    9.4     0.00045412     -1076.0236193068  9.43E-04
   194 Broy./Diag. 0.40E+00    9.4     0.00051045     -1076.0223439862  1.28E-03
   195 Broy./Diag. 0.40E+00    9.6     0.01063583     -1076.0243342670 -1.99E-03
   196 Broy./Diag. 0.40E+00    9.4     1.66409469     -1076.0721234151 -4.78E-02
   197 Broy./Diag. 0.40E+00    9.8     1.68752253     -1077.5685993148 -1.50E+00
   198 Broy./Diag. 0.40E+00    9.7     0.01607224     -1075.9626689050  1.61E+00
   199 Broy./Diag. 0.40E+00    9.4     0.00785640     -1076.0181263736 -5.55E-02
   200 Broy./Diag. 0.40E+00    9.4     0.00731460     -1075.9976406718  2.05E-02
   201 Broy./Diag. 0.40E+00    9.7     0.00513214     -1076.0174237187 -1.98E-02
   202 Broy./Diag. 0.40E+00    9.4     0.00235944     -1076.0228445935 -5.42E-03
   203 Broy./Diag. 0.40E+00    9.4     0.00190842     -1076.0052345905  1.76E-02
   204 Broy./Diag. 0.40E+00   10.0     0.00240188     -1076.0154738398 -1.02E-02
   205 Broy./Diag. 0.40E+00    9.4     0.00166283     -1076.0093336985  6.14E-03
   206 Broy./Diag. 0.40E+00    9.6     1.59709699     -1076.0107482690 -1.41E-03
   207 Broy./Diag. 0.40E+00    9.7     1.59681302     -1078.8953308130 -2.88E+00
   208 Broy./Diag. 0.40E+00    9.6     0.07121525     -1075.8966458739  3.00E+00
   209 Broy./Diag. 0.40E+00    9.5     0.04530444     -1076.3021653942 -4.06E-01
   210 Broy./Diag. 0.40E+00    9.4     0.00979438     -1075.9901914035  3.12E-01
   211 Broy./Diag. 0.40E+00    9.2     0.00656957     -1075.9703822174  1.98E-02
   212 Broy./Diag. 0.40E+00    9.3     0.00402228     -1076.0211550847 -5.08E-02
   213 Broy./Diag. 0.40E+00    9.4     0.00421798     -1075.9918152112  2.93E-02
   214 Broy./Diag. 0.40E+00    9.6     0.00338417     -1076.0068033231 -1.50E-02
   215 Broy./Diag. 0.40E+00    9.6     0.00353745     -1076.0016604143  5.14E-03
   216 Broy./Diag. 0.40E+00    9.5     1.66973239     -1076.0235102320 -2.18E-02
   217 Broy./Diag. 0.40E+00    9.4     1.67841689     -1077.5965018012 -1.57E+00
   218 Broy./Diag. 0.40E+00    9.3     1.11834018     -1075.9873041690  1.61E+00
   219 Broy./Diag. 0.40E+00    9.4     1.14407062     -1077.5296048038 -1.54E+00
   220 Broy./Diag. 0.40E+00    9.6     0.15251700     -1075.9834146867  1.55E+00
   221 Broy./Diag. 0.40E+00    9.6     0.12315378     -1075.7982409518  1.85E-01
   222 Broy./Diag. 0.40E+00    9.4     0.02984878     -1075.9842713747 -1.86E-01
   223 Broy./Diag. 0.40E+00    9.5     0.01571865     -1076.0744786544 -9.02E-02
   224 Broy./Diag. 0.40E+00    9.6     0.00528821     -1075.9453654260  1.29E-01
   225 Broy./Diag. 0.40E+00    9.3     0.00347507     -1076.0112569688 -6.59E-02
   226 Broy./Diag. 0.40E+00    8.9     0.03238704     -1076.0090896122  2.17E-03
   227 Broy./Diag. 0.40E+00    9.1     0.01586531     -1076.0878046941 -7.87E-02
   228 Broy./Diag. 0.40E+00    9.5     0.01365000     -1076.0077494191  8.01E-02
   229 Broy./Diag. 0.40E+00    9.7     0.00698629     -1076.0809183556 -7.32E-02
   230 Broy./Diag. 0.40E+00    9.3     0.00426052     -1076.0622238308  1.87E-02
   231 Broy./Diag. 0.40E+00    9.4     1.66404535     -1076.0561876006  6.04E-03
   232 Broy./Diag. 0.40E+00    9.4     1.69009476     -1077.5632345194 -1.51E+00
   233 Broy./Diag. 0.40E+00    9.6     0.02851711     -1075.9596299117  1.60E+00
   234 Broy./Diag. 0.40E+00    9.3     0.02027518     -1075.9859319442 -2.63E-02
   235 Broy./Diag. 0.40E+00    9.7     0.01885230     -1075.9345369156  5.14E-02
   236 Broy./Diag. 0.40E+00    9.5     0.00898166     -1076.0091325441 -7.46E-02
   237 Broy./Diag. 0.40E+00    9.9     0.00312451     -1075.9889594867  2.02E-02
   238 Broy./Diag. 0.40E+00    9.4     0.00262838     -1075.9933449796 -4.39E-03
   239 Broy./Diag. 0.40E+00    9.5     0.00369061     -1075.9865792151  6.77E-03
   240 Broy./Diag. 0.40E+00    9.4     0.00268296     -1075.9917417497 -5.16E-03
   241 Broy./Diag. 0.40E+00    9.3     0.02070515     -1076.0005932183 -8.85E-03
   242 Broy./Diag. 0.40E+00    9.6     0.00752492     -1076.0458614251 -4.53E-02
   243 Broy./Diag. 0.40E+00   10.2     0.00743469     -1076.0136878420  3.22E-02
   244 Broy./Diag. 0.40E+00    9.4     0.00379805     -1076.0474741423 -3.38E-02
   245 Broy./Diag. 0.40E+00    9.1     0.00298681     -1076.0664520784 -1.90E-02
   246 Broy./Diag. 0.40E+00    9.5     1.66436084     -1076.0378307919  2.86E-02
   247 Broy./Diag. 0.40E+00    9.6     1.75062669     -1077.5889802835 -1.55E+00
   248 Broy./Diag. 0.40E+00    9.7     1.15428528     -1078.7575398833 -1.17E+00
   249 Broy./Diag. 0.40E+00    9.5     1.17427753     -1077.0350451230  1.72E+00
   250 Broy./Diag. 0.40E+00    9.0     1.75099631     -1078.3257628738 -1.29E+00
   251 Broy./Diag. 0.40E+00    8.7     1.16490356     -1077.7312795972  5.94E-01
   252 Broy./Diag. 0.40E+00    9.6     1.67991371     -1078.0580751272 -3.27E-01
   253 Broy./Diag. 0.40E+00    9.5     1.67943482     -1076.9936153179  1.06E+00
   254 Broy./Diag. 0.40E+00    9.4     1.32532445     -1078.5449045177 -1.55E+00
   255 Broy./Diag. 0.40E+00    9.2     1.69066030     -1076.8819535738  1.66E+00
   256 Broy./Diag. 0.40E+00    9.4     1.58114058     -1079.8958801003 -3.01E+00
   257 Broy./Diag. 0.40E+00    9.6     0.18443042     -1076.2870773492  3.61E+00
   258 Broy./Diag. 0.40E+00    9.6     0.10202998     -1075.4805072072  8.07E-01
   259 Broy./Diag. 0.40E+00    9.6     0.06617896     -1075.7632653643 -2.83E-01
   260 Broy./Diag. 0.40E+00    9.4     0.07173171     -1076.1911025038 -4.28E-01
   261 Broy./Diag. 0.40E+00    9.4     0.03879676     -1075.8702205231  3.21E-01
   262 Broy./Diag. 0.40E+00    9.2     0.03719782     -1075.8409014184  2.93E-02
   263 Broy./Diag. 0.40E+00    9.4     0.06061501     -1076.1129472083 -2.72E-01
   264 Broy./Diag. 0.40E+00    9.5     0.06004575     -1076.0151771472  9.78E-02
   265 Broy./Diag. 0.40E+00    9.5     0.05320640     -1076.0175283664 -2.35E-03
   266 Broy./Diag. 0.40E+00    9.5     0.06196194     -1076.2078546536 -1.90E-01
   267 Broy./Diag. 0.40E+00    9.4     0.02852335     -1075.9168803668  2.91E-01
   268 Broy./Diag. 0.40E+00    9.7     1.66360884     -1076.0436311447 -1.27E-01
   269 Broy./Diag. 0.40E+00    9.7     1.67581308     -1077.6541365230 -1.61E+00
   270 Broy./Diag. 0.40E+00    9.6     0.02752758     -1076.0561297760  1.60E+00
   271 Broy./Diag. 0.40E+00    9.6     0.01832172     -1075.9842913066  7.18E-02
   272 Broy./Diag. 0.40E+00    9.4     0.00898748     -1076.0264107557 -4.21E-02
   273 Broy./Diag. 0.40E+00    9.3     0.00600682     -1076.0392316491 -1.28E-02
   274 Broy./Diag. 0.40E+00    9.0     0.00482193     -1076.0215561520  1.77E-02
   275 Broy./Diag. 0.40E+00    9.0     0.00165268     -1076.0231459413 -1.59E-03
   276 Broy./Diag. 0.40E+00    8.8     0.00146854     -1076.0228642579  2.82E-04
   277 Broy./Diag. 0.40E+00    9.5     0.00139750     -1076.0267599286 -3.90E-03
   278 Broy./Diag. 0.40E+00    9.4     1.66935767     -1076.0256375664  1.12E-03
   279 Broy./Diag. 0.40E+00    9.4     1.67371640     -1077.4822317495 -1.46E+00
   280 Broy./Diag. 0.40E+00    9.4     0.02261433     -1075.9832360677  1.50E+00
   281 Broy./Diag. 0.40E+00    9.8     0.01770738     -1076.1035719492 -1.20E-01
   282 Broy./Diag. 0.40E+00    9.6     0.00487290     -1076.0230057356  8.06E-02
   283 Broy./Diag. 0.40E+00    9.5     0.00371046     -1076.0211336924  1.87E-03
   284 Broy./Diag. 0.40E+00    9.4     0.00296935     -1076.0210228523  1.11E-04
   285 Broy./Diag. 0.40E+00    9.3     0.00215069     -1076.0253202188 -4.30E-03
   286 Broy./Diag. 0.40E+00    9.0     0.00128431     -1076.0255113623 -1.91E-04
   287 Broy./Diag. 0.40E+00    9.1     0.00128186     -1076.0238995877  1.61E-03
   288 Broy./Diag. 0.40E+00    8.8     1.66938413     -1076.0246866589 -7.87E-04
   289 Broy./Diag. 0.40E+00    9.0     1.67777046     -1077.5754156524 -1.55E+00
   290 Broy./Diag. 0.40E+00    9.4     0.01695805     -1075.9943287963  1.58E+00
   291 Broy./Diag. 0.40E+00    9.1     0.01472953     -1076.0413580270 -4.70E-02
   292 Broy./Diag. 0.40E+00    9.7     0.00768249     -1075.9915228584  4.98E-02
   293 Broy./Diag. 0.40E+00    9.6     0.00318720     -1076.0275434034 -3.60E-02
   294 Broy./Diag. 0.40E+00    9.6     0.00290622     -1076.0067806643  2.08E-02
   295 Broy./Diag. 0.40E+00    9.4     0.00217469     -1076.0177758012 -1.10E-02
   296 Broy./Diag. 0.40E+00    9.7     0.00302249     -1076.0180366491 -2.61E-04
   297 Broy./Diag. 0.40E+00    9.6     0.00339612     -1076.0210762493 -3.04E-03
   298 Broy./Diag. 0.40E+00    9.4     0.01288929     -1076.0166186488  4.46E-03
   299 Broy./Diag. 0.40E+00    9.8     0.00482170     -1076.0445531857 -2.79E-02
   300 Broy./Diag. 0.40E+00    9.6     0.00445658     -1076.0622154429 -1.77E-02

  Leaving inner SCF loop after reaching   300 steps.


  Electronic density on regular grids:       -511.9993110991        0.0006889009
  Core density on regular grids:              512.0001465540        0.0001465540
  Total charge density on r-space grids:        0.0008354549
  Total charge density g-space grids:           0.0008354549

  Overlap energy of the core charge distribution:               0.00000000000000
  Self energy of the core charge distribution:              -2838.21791979120962
  Core Hamiltonian energy:                                    759.74133339377420
  Hartree energy:                                            1241.03397468468597
  Exchange-correlation energy:                               -238.61960373019127

  Total energy:                                             -1076.06221544294067

 *** WARNING in qs_scf.F:542 :: SCF run NOT converged ***


 ENERGY| Total FORCE_EVAL ( QS ) energy (a.u.):            -1076.040914670972143


 ATOMIC FORCES in [a.u.]

 # Atom   Kind   Element          X              Y              Z
      1      1      O          -0.12019049    -0.10591616    -0.00549912
      2      2      H           0.06383626     0.01905525     0.09148935
      3      2      H           0.00027911     0.09122663    -0.07021317
      4      1      O           0.02262044    -0.07104244    -0.13684998
      5      2      H          -0.05201998    -0.05962137    -0.00191463
      6      2      H          -0.01982132     0.03261532     0.05113419
      7      1      O          -0.04345053    -0.00535637     0.11627931
      8      2      H           0.00114299    -0.04549842    -0.09493373
      9      2      H           0.04331266     0.07647874     0.00384158
     10      1      O           0.06565446    -0.04813940    -0.05504738
     11      2      H          -0.09330431    -0.00627046     0.01461487
     12      2      H          -0.00222900    -0.04196931    -0.02175315
     13      1      O          -0.00424757    -0.00126541    -0.04534763
     14      2      H          -0.01884930    -0.00936198    -0.04988497
     15      2      H          -0.03567890    -0.01391988     0.08180296
     16      1      O          -0.11873635    -0.00320772     0.02885427
     17      2      H           0.03926180    -0.02533897    -0.03784689
     18      2      H           0.03728363     0.01124732     0.03375177
     19      1      O          -0.00917247     0.01387287    -0.06142054
     20      2      H          -0.08971766    -0.01776820     0.00000505
     21      2      H          -0.00278609     0.06671664     0.06887106
     22      1      O           0.02829942     0.13232989    -0.04354357
     23      2      H          -0.05185266     0.00004259    -0.00033780
     24      2      H           0.04901351    -0.09901880     0.00263842
     25      1      O           0.02902244    -0.11685828    -0.05637513
     26      2      H           0.03884050     0.02942360     0.04362360
     27      2      H           0.02103449     0.02712280    -0.08817110
     28      1      O           0.06438604     0.01117773     0.03608967
     29      2      H          -0.11304720     0.00549034     0.04391714
     30      2      H          -0.02431450     0.02524992    -0.07477106
     31      1      O          -0.10353620     0.02618253     0.00231289
     32      2      H           0.05615829     0.00378187     0.06076010
     33      2      H           0.02143775    -0.08933953    -0.06028957
     34      1      O           0.01192963    -0.05474466    -0.13447408
     35      2      H           0.05249426    -0.02881331    -0.00540895
     36      2      H          -0.04113871     0.06151013     0.04535903
     37      1      O           0.03234917    -0.09713367    -0.10521359
     38      2      H          -0.02165655     0.02354904     0.09551451
     39      2      H           0.06030191     0.05909049     0.00180844
     40      1      O          -0.09386853    -0.11369781    -0.05382184
     41      2      H           0.05754034     0.00651379    -0.02004383
     42      2      H           0.04136673     0.02328572     0.04627472
     43      1      O           0.04549769     0.03609637     0.05186280
     44      2      H           0.01684384     0.03384659     0.05610595
     45      2      H          -0.09685449    -0.05924443    -0.00263653
     46      1      O          -0.04992072    -0.00152870     0.08408468
     47      2      H           0.04273599    -0.06439195    -0.01330345
     48      2      H          -0.00508477     0.04297339    -0.00018325
     49      1      O          -0.07381330    -0.00961201    -0.13911814
     50      2      H           0.09281481     0.02903872     0.02927057
     51      2      H          -0.02173157    -0.00630117     0.05105243
     52      1      O          -0.01668269    -0.10289893     0.08936354
     53      2      H           0.04645373    -0.01443798    -0.06337339
     54      2      H           0.00148190     0.07049257     0.03149198
     55      1      O          -0.05927930     0.02522194    -0.06425403
     56      2      H           0.05236597    -0.08054918     0.02222204
     57      2      H           0.07537875     0.05362356    -0.02485811
     58      1      O          -0.11334781    -0.02434329    -0.07008082
     59      2      H           0.04378951     0.00939471    -0.02535026
     60      2      H          -0.04844030     0.08519976     0.02561834
     61      1      O          -0.01198665    -0.11450414     0.00323069
     62      2      H          -0.05000517     0.02791263     0.06408021
     63      2      H           0.02002231     0.01891442    -0.03204445
     64      1      O          -0.03084812     0.06412330     0.11912313
     65      2      H          -0.02983671    -0.05801463    -0.02908890
     66      2      H          -0.04198734     0.03618026    -0.00279918
     67      1      O          -0.07840392    -0.07438240    -0.13665271
     68      2      H           0.06803227    -0.03039513     0.04147393
     69      2      H          -0.04831928     0.07474763     0.03553892
     70      1      O          -0.03286487     0.04899466     0.04594108
     71      2      H           0.03005190    -0.05495964    -0.01704907
     72      2      H          -0.03778622     0.03182428    -0.09225020
     73      1      O          -0.02831042     0.08209595    -0.05028199
     74      2      H           0.02874027     0.01570663    -0.03054835
     75      2      H          -0.02220184    -0.04820515    -0.01847174
     76      1      O          -0.13039889    -0.11645245    -0.03568636
     77      2      H           0.02542323    -0.00015107     0.04114834
     78      2      H           0.01977756     0.07155344    -0.04037140
     79      1      O          -0.07531930    -0.03626550     0.10390664
     80      2      H           0.07648277     0.09081322     0.02002984
     81      2      H          -0.02680583    -0.01178215    -0.06485087
     82      1      O          -0.08346612    -0.05859761    -0.04845474
     83      2      H           0.00564084     0.05253520     0.00608044
     84      2      H           0.04536250    -0.03246641     0.02684316
     85      1      O          -0.05814309    -0.10373032    -0.09124040
     86      2      H          -0.00135763    -0.03433647     0.07829479
     87      2      H          -0.01458805     0.04363115     0.00223348
     88      1      O          -0.02174604    -0.09742270     0.00073983
     89      2      H           0.07026643     0.01785871     0.02467717
     90      2      H          -0.03857462     0.04102828    -0.09075683
     91      1      O          -0.00764888     0.00485704    -0.06572991
     92      2      H          -0.03185636     0.05261855     0.01017358
     93      2      H           0.01594202    -0.00183813     0.08084140
     94      1      O          -0.02838832    -0.10019504     0.01378674
     95      2      H          -0.00434424     0.09170016     0.04696323
     96      2      H          -0.02402588     0.02559268    -0.07299574
     97      1      O          -0.00636877    -0.11659834    -0.00854656
     98      2      H          -0.05196744     0.00353137     0.04575069
     99      2      H          -0.01473696     0.01317882    -0.06416094
    100      1      O          -0.07468151     0.03680592     0.00593038
    101      2      H          -0.03354039    -0.03813414    -0.07932317
    102      2      H           0.00428692     0.08812192    -0.03636374
    103      1      O          -0.02981111     0.05561555    -0.13630317
    104      2      H          -0.02751068     0.00904009     0.08009898
    105      2      H           0.08150356    -0.01144212     0.05798726
    106      1      O           0.05869184    -0.03004865    -0.01245836
    107      2      H          -0.04854569     0.03389999     0.01026013
    108      2      H           0.04153331    -0.01830361     0.02582160
    109      1      O          -0.07468363    -0.03894701    -0.02680693
    110      2      H          -0.00654515     0.02586204     0.09076768
    111      2      H           0.06838041     0.03625481    -0.03601211
    112      1      O           0.11033677     0.06994391     0.05145743
    113      2      H          -0.01146566     0.08861798     0.02700833
    114      2      H          -0.03225663    -0.08689463     0.01383154
    115      1      O          -0.03300493    -0.04155720     0.07568002
    116      2      H           0.01831140     0.08208096    -0.09272561
    117      2      H           0.05123678    -0.04327044     0.03169420
    118      1      O           0.03751703    -0.02793533     0.09757540
    119      2      H          -0.00264266     0.06693753    -0.09116565
    120      2      H           0.06595840     0.02088741     0.04255223
    121      1      O           0.00026903    -0.09121658    -0.09547841
    122      2      H          -0.03892937     0.05199289    -0.00587499
    123      2      H           0.08952039     0.04468080     0.00923191
    124      1      O          -0.03309026    -0.00874367    -0.08551526
    125      2      H          -0.05111858     0.06737145    -0.03834038
    126      2      H           0.01292818    -0.05156974     0.04724009
    127      1      O          -0.11137239    -0.13688314     0.10835563
    128      2      H           0.01842248     0.04942237    -0.06140942
    129      2      H           0.04673171     0.04261452     0.01379281
    130      1      O          -0.02729149    -0.12372608     0.12082121
    131      2      H          -0.05121042     0.05901209    -0.01450442
    132      2      H           0.07212922     0.07071214    -0.03182014
    133      1      O          -0.05087526     0.07673826     0.05678008
    134      2      H          -0.06912523    -0.03744610    -0.01028492
    135      2      H           0.02858711     0.01463338    -0.02340741
    136      1      O           0.02533525    -0.02755818    -0.08929285
    137      2      H           0.01461907    -0.04211421     0.06580532
    138      2      H          -0.08857769     0.06020767    -0.02381539
    139      1      O          -0.04726246    -0.08241320     0.01286000
    140      2      H           0.06392667    -0.01524838    -0.01044269
    141      2      H          -0.01055510     0.08733428     0.04505591
    142      1      O           0.10591302     0.08467183    -0.02634652
    143      2      H          -0.00136387    -0.02357787    -0.05247410
    144      2      H          -0.06206385     0.01446679     0.08956246
    145      1      O          -0.04036217    -0.11163566     0.06305372
    146      2      H           0.06131464    -0.00732516    -0.00996521
    147      2      H          -0.03381957     0.04083841     0.03396129
    148      1      O          -0.09334325     0.07142114    -0.03763167
    149      2      H           0.04936518     0.00516394    -0.02850764
    150      2      H           0.00307936    -0.06756869     0.02406770
    151      1      O          -0.11341944     0.03267250     0.07553681
    152      2      H           0.04534277    -0.03715595     0.01906871
    153      2      H           0.01832968     0.05603601    -0.04191310
    154      1      O          -0.09972778    -0.05638994     0.01911754
    155      2      H           0.02072099     0.02634482     0.06720658
    156      2      H           0.08257633    -0.03286456    -0.07798488
    157      1      O          -0.06317311    -0.06841141     0.00732097
    158      2      H           0.03645391     0.06686407    -0.01551236
    159      2      H           0.04373371    -0.00632718     0.05284006
    160      1      O           0.02669888     0.10933595     0.01886787
    161      2      H          -0.07163792    -0.04095469    -0.00861000
    162      2      H           0.05403576    -0.01652685    -0.07088747
    163      1      O          -0.05665340    -0.03678452     0.10189895
    164      2      H          -0.03025329     0.01590372    -0.01627930
    165      2      H           0.03268511     0.05621690     0.00685923
    166      1      O          -0.06335171     0.04576449     0.09015809
    167      2      H           0.09302085     0.01590294    -0.00346073
    168      2      H           0.01032983     0.01723046    -0.08756135
    169      1      O           0.07339675     0.06602161    -0.03494525
    170      2      H          -0.01219443     0.03550751    -0.00087086
    171      2      H          -0.00737983    -0.06235747    -0.04485369
    172      1      O          -0.09054299    -0.09392185    -0.04201832
    173      2      H           0.06332838    -0.00875776    -0.07837231
    174      2      H           0.02087380    -0.00114831     0.04070253
    175      1      O          -0.01588599    -0.05296022     0.09894914
    176      2      H           0.05276705     0.03792861    -0.03269848
    177      2      H          -0.02133348    -0.04941175     0.00768869
    178      1      O           0.09721286    -0.11043993     0.05096356
    179      2      H          -0.00869946     0.00200525    -0.03661412
    180      2      H          -0.05126225     0.03748141     0.01865403
    181      1      O          -0.02173100    -0.11709958    -0.06808365
    182      2      H           0.06228078     0.06243473     0.00278233
    183      2      H          -0.03124198     0.04326156     0.06154202
    184      1      O           0.05258099    -0.03776760    -0.02558753
    185      2      H           0.03802631     0.00083952    -0.07930643
    186      2      H           0.01728714     0.04657032     0.05897506
    187      1      O           0.04002196    -0.04017265    -0.08529449
    188      2      H          -0.06271955     0.00972729    -0.03871192
    189      2      H           0.03275761     0.06432291     0.05984941
    190      1      O           0.09047546    -0.02976853     0.06839218
    191      2      H          -0.09627216     0.02765421     0.04049726
    192      2      H           0.00929645     0.01140797    -0.08139168
 SUM OF ATOMIC FORCES          -0.77478776    -0.18663354    -0.35553119     0.87265719

 -------------------------------------------------------------------------------
 -                                                                             -
 -                                DBCSR STATISTICS                             -
 -                                                                             -
 -------------------------------------------------------------------------------
 COUNTER                                    TOTAL       BLAS       SMM       ACC
 flops     5 x     5 x   256           4835264000       0.0%    100.0%      0.0%
 flops     5 x    13 x   256           5589642240       0.0%    100.0%      0.0%
 flops    13 x     5 x   256           5910195200       0.0%    100.0%      0.0%
 flops    13 x    13 x   256           7553029120       0.0%    100.0%      0.0%
 flops inhomo. stacks                           0       0.0%      0.0%      0.0%
 flops total                        23.888131E+09       0.0%    100.0%      0.0%
 flops max/rank                     23.888131E+09       0.0%    100.0%      0.0%
 matmuls inhomo. stacks                         0       0.0%      0.0%      0.0%
 matmuls total                             810593       0.0%    100.0%      0.0%
 number of processed stacks                 42140       0.0%    100.0%      0.0%
 average stack size                                     0.0      19.2       0.0
 marketing flops                   333.927416E+09
 -------------------------------------------------------------------------------
 # multiplications                            301
 max memory usage/rank               4.992311E+09
 # max total images/rank                        1
 # max 3D layers                                1
 # MPI messages exchanged                       0
 MPI messages size (bytes):
  total size                         0.000000E+00
  min size                           0.000000E+00
  max size                           0.000000E+00
  average size                       0.000000E+00
 MPI breakdown and total messages size (bytes):
             size <=      128                   0                        0
       128 < size <=     8192                   0                        0
      8192 < size <=    32768                   0                        0
     32768 < size <=   131072                   0                        0
    131072 < size <=  4194304                   0                        0
   4194304 < size <= 16777216                   0                        0
  16777216 < size                               0                        0
 -------------------------------------------------------------------------------

 MEMORY| Estimated peak process memory [MiB]                                4756

 -------------------------------------------------------------------------------
 -                                                                             -
 -                           R E F E R E N C E S                               -
 -                                                                             -
 -------------------------------------------------------------------------------
 
 CP2K version 7.1, the CP2K developers group (2019).
 CP2K is freely available from https://www.cp2k.org/ .

 Schuett, Ole; Messmer, Peter; Hutter, Juerg; VandeVondele, Joost. 
 Electronic Structure Calculations on Graphics Processing Units, John
 Wiley & Sons, Ltd, 173-190 (2016). 
 GPU-Accelerated Sparse Matrix-Matrix Multiplication for
 Linear Scaling Density Functional Theory.
 https://dx.doi.org/10.1002/9781118670712.ch8

 Borstnik, U; VandeVondele, J; Weber, V; Hutter, J. 
 PARALLEL COMPUTING, 40 (5-6), 47-58 (2014). 
 Sparse matrix multiplication: The distributed block-compressed sparse
 row library.
 https://dx.doi.org/10.1016/j.parco.2014.03.012

 Hutter, J; Iannuzzi, M; Schiffmann, F; VandeVondele, J. 
 WIREs Comput Mol Sci., 4 (1), 15-25 (2014). 
 CP2K: atomistic simulations of condensed matter systems.
 https://dx.doi.org/10.1002/wcms.1159

 Krack, M. 
 THEORETICAL CHEMISTRY ACCOUNTS, 114 (1-3), 145-152 (2005). 
 Pseudopotentials for H to Kr optimized for gradient-corrected
 exchange-correlation functionals.
 https://dx.doi.org/10.1007/s00214-005-0655-y

 VandeVondele, J; Krack, M; Mohamed, F; Parrinello, M; Chassaing, T;
 Hutter, J. COMPUTER PHYSICS COMMUNICATIONS, 167 (2), 103-128 (2005). 
 QUICKSTEP: Fast and accurate density functional calculations using a
 mixed Gaussian and plane waves approach.
 https://dx.doi.org/10.1016/j.cpc.2004.12.014

 Frigo, M; Johnson, SG. 
 PROCEEDINGS OF THE IEEE, 93 (2), 216-231 (2005). 
 The design and implementation of FFTW3.
 https://dx.doi.org/10.1109/JPROC.2004.840301

 Hartwigsen, C; Goedecker, S; Hutter, J. 
 PHYSICAL REVIEW B, 58 (7), 3641-3662 (1998). 
 Relativistic separable dual-space Gaussian pseudopotentials from H to Rn.
 https://dx.doi.org/10.1103/PhysRevB.58.3641

 Lippert, G; Hutter, J; Parrinello, M. 
 MOLECULAR PHYSICS, 92 (3), 477-487 (1997). 
 A hybrid Gaussian and plane wave density functional scheme.
 https://dx.doi.org/10.1080/002689797170220

 Goedecker, S; Teter, M; Hutter, J. 
 PHYSICAL REVIEW B, 54 (3), 1703-1710 (1996). 
 Separable dual-space Gaussian pseudopotentials.
 https://dx.doi.org/10.1103/PhysRevB.54.1703


 -------------------------------------------------------------------------------
 -                                                                             -
 -                                T I M I N G                                  -
 -                                                                             -
 -------------------------------------------------------------------------------
 SUBROUTINE                       CALLS  ASD         SELF TIME        TOTAL TIME
                                MAXIMUM       AVERAGE  MAXIMUM  AVERAGE  MAXIMUM
 CP2K                                 1  1.0    0.181    0.181 2830.515 2830.515
 qs_forces                            1  2.0    0.000    0.000 2828.523 2828.523
 qs_energies                          1  3.0    0.000    0.000 2827.823 2827.823
 scf_env_do_scf                       1  4.0    0.001    0.001 2825.358 2825.358
 scf_env_do_scf_inner_loop          300  5.0    0.063    0.063 2825.358 2825.358
 qs_scf_new_mos                     300  6.0    0.012    0.012 1987.162 1987.162
 eigensolver                        300  7.0    0.050    0.050 1952.005 1952.005
 cp_fm_syevd                        300  8.0 1285.361 1285.361 1287.148 1287.148
 cp_fm_cholesky_restore             900  8.0  663.776  663.776  663.776  663.776
 gspace_mixing                      299  6.0    6.794    6.794  464.840  464.840
 broyden_mixing                     299  7.0  419.498  419.498  419.501  419.501
 rebuild_ks_matrix                  301  7.0    0.001    0.001  193.137  193.137
 qs_ks_build_kohn_sham_matrix       301  8.0    0.080    0.080  193.136  193.136
 qs_ks_update_qs_env                300  6.0    0.004    0.004  192.892  192.892
 pw_transfer                       3912  9.9    0.318    0.318  184.699  184.699
 qs_rho_update_rho                  301  6.0    0.003    0.003  179.422  179.422
 calculate_rho_elec                 301  7.0   85.938   85.938  179.419  179.419
 fft_wrap_pw1pw2                   3310 10.9    0.044    0.044  179.332  179.332
 fft_wrap_pw1pw2_70                1504 11.2   19.162   19.162  164.963  164.963
 density_rs2pw                      301  8.0    0.025    0.025   90.148   90.148
 fft3d_s                           3311 12.9   82.198   82.198   82.222   82.222
 pw_scatter_s                      1804 13.2   61.879   61.879   61.879   61.879
 pw_poisson_solve                   301  9.0   54.654   54.654   59.809   59.809
 -------------------------------------------------------------------------------

 The number of warnings for this run is : 1
 
 -------------------------------------------------------------------------------
  **** **** ******  **  PROGRAM ENDED AT                 2021-02-22 22:01:35.275
 ***** ** ***  *** **   PROGRAM RAN ON                                   gnode68
 **    ****   ******    PROGRAM RAN BY                               mayank.modi
 ***** **    ** ** **   PROGRAM PROCESS ID                                 26061
  **** **  *******  **  PROGRAM STOPPED IN /home/mayank.modi/ab-initio-thermodyn
                                           amics-of-water/mayank/cp2k_energy_cal
                                           culations
