 DBCSR| CPU Multiplication driver                                           XSMM
 DBCSR| Multrec recursion limit                                              512
 DBCSR| Multiplication stack size                                           1000
 DBCSR| Maximum elements for images                                    UNLIMITED
 DBCSR| Multiplicative factor virtual images                                   1
 DBCSR| Use multiplication densification                                       T
 DBCSR| Multiplication size stacks                                             3


  **** **** ******  **  PROGRAM STARTED AT               2021-01-18 05:47:26.673
 ***** ** ***  *** **   PROGRAM STARTED ON                               gnode52
 **    ****   ******    PROGRAM STARTED BY                           mayank.modi
 ***** **    ** ** **   PROGRAM PROCESS ID                                 36414
  **** **  *******  **  PROGRAM STARTED IN /home/mayank.modi/ab-initio-thermodyn
                                           amics-of-water/mayank/cp2k_energy_cal
                                           culations

 CP2K| version string:                                          CP2K version 7.1
 CP2K| source code revision number:                                  git:e635599
 CP2K| cp2kflags: omp libint fftw3 libxc xsmm spglib                            
 CP2K| is freely available from                            https://www.cp2k.org/
 CP2K| Program compiled at                          Mon Dec 23 19:23:12 CET 2019
 CP2K| Program compiled on                                                pc9404
 CP2K| Program compiled for                                Linux-x86-64-gfortran
 CP2K| Data directory path                                        /opt/cp2k/data
 CP2K| Input file name                   input_training_correct_cell/input944.in

 GLOBAL| Force Environment number                                              1
 GLOBAL| Basis set file name                                           BASIS_SET
 GLOBAL| Potential file name                                      GTH_POTENTIALS
 GLOBAL| MM Potential file name                                     MM_POTENTIAL
 GLOBAL| Coordinate file name                                      __STD_INPUT__
 GLOBAL| Method name                                                        CP2K
 GLOBAL| Project name                                                   H2O_bulk
 GLOBAL| Preferred FFT library                                             FFTW3
 GLOBAL| Preferred diagonalization lib.                                       SL
 GLOBAL| Run type                                                   ENERGY_FORCE
 GLOBAL| All-to-all communication in single precision                          F
 GLOBAL| FFTs using library dependent lengths                                  F
 GLOBAL| Global print level                                                  LOW
 GLOBAL| MPI I/O enabled                                                       T
 GLOBAL| Total number of message passing processes                             1
 GLOBAL| Number of threads for this process                                   36
 GLOBAL| This output is from process                                           0
 GLOBAL| CPU model name                Intel(R) Xeon(R) CPU E5-2640 v4 @ 2.40GHz
 GLOBAL| CPUID                                                              1002
 GLOBAL| Compiled for CPUID                                                    0

 MEMORY| system memory details [Kb]
 MEMORY|                        rank 0           min           max       average
 MEMORY| MemTotal            131893316     131893316     131893316     131893316
 MEMORY| MemFree             107071756     107071756     107071756     107071756
 MEMORY| Buffers              13829504      13829504      13829504      13829504
 MEMORY| Cached                2359880       2359880       2359880       2359880
 MEMORY| Slab                  7901892       7901892       7901892       7901892
 MEMORY| SReclaimable          4835664       4835664       4835664       4835664
 MEMORY| MemLikelyFree       128096804     128096804     128096804     128096804


 GENERATE|  Preliminary Number of Bonds generated:                             0
 GENERATE|  Achieved consistency in connectivity generation.

 *******************************************************************************
 *******************************************************************************
 **                                                                           **
 **     #####                         ##              ##                      **
 **    ##   ##            ##          ##              ##                      **
 **   ##     ##                       ##            ######                    **
 **   ##     ##  ##   ##  ##   #####  ##  ##   ####   ##    #####    #####    **
 **   ##     ##  ##   ##  ##  ##      ## ##   ##      ##   ##   ##  ##   ##   **
 **   ##  ## ##  ##   ##  ##  ##      ####     ###    ##   ######   ######    **
 **    ##  ###   ##   ##  ##  ##      ## ##      ##   ##   ##       ##        **
 **     #######   #####   ##   #####  ##  ##  ####    ##    #####   ##        **
 **           ##                                                    ##        **
 **                                                                           **
 **                                                ... make the atoms dance   **
 **                                                                           **
 **            Copyright (C) by CP2K developers group (2000 - 2019)           **
 **                                                                           **
 *******************************************************************************


 TOTAL NUMBERS AND MAXIMUM NUMBERS

  Total number of            - Atomic kinds:                                   2
                             - Atoms:                                        192
                             - Shell sets:                                   384
                             - Shells:                                       704
                             - Primitive Cartesian functions:                960
                             - Cartesian basis functions:                   1536
                             - Spherical basis functions:                   1472

  Maximum angular momentum of- Orbital basis functions:                        2
                             - Local part of the GTH pseudopotential:          2
                             - Non-local part of the GTH pseudopotential:      0


 SCF PARAMETERS         Density guess:                                    ATOMIC
                        --------------------------------------------------------
                        max_scf:                                             300
                        max_scf_history:                                       0
                        max_diis:                                              4
                        --------------------------------------------------------
                        eps_scf:                                        1.00E-07
                        eps_scf_history:                                0.00E+00
                        eps_diis:                                       1.00E-01
                        eps_eigval:                                     1.00E-05
                        --------------------------------------------------------
                        level_shift [a.u.]:                                 0.00
                        --------------------------------------------------------
                        Mixing method:                            BROYDEN_MIXING
                                                charge density mixing in g-space
                        --------------------------------------------------------
                        No outer SCF

 Number of electrons:                                                        512
 Number of occupied orbitals:                                                256
 Number of molecular orbitals:                                               256

 Number of orbital functions:                                               1472
 Number of independent orbital functions:                                   1472

 Extrapolation method: initial_guess


 SCF WAVEFUNCTION OPTIMIZATION

  Step     Update method      Time    Convergence         Total energy    Change
  ------------------------------------------------------------------------------
     1 NoMix/Diag. 0.40E+00    7.3     0.62727908     -1064.4234795087 -1.06E+03
     2 Broy./Diag. 0.40E+00    7.9     1.81524236      -996.7460905659  6.77E+01
     3 Broy./Diag. 0.40E+00    8.2     1.94485444     -1261.4308374038 -2.65E+02
     4 Broy./Diag. 0.40E+00    8.2     1.60766157     -1126.9557867947  1.34E+02
     5 Broy./Diag. 0.40E+00    8.2     1.08412066     -1090.7762860222  3.62E+01
     6 Broy./Diag. 0.40E+00    8.3     1.59404259     -1094.5047824252 -3.73E+00
     7 Broy./Diag. 0.40E+00    8.5     1.69928651     -1097.4174710611 -2.91E+00
     8 Broy./Diag. 0.40E+00    8.7     1.42115434     -1089.0554213151  8.36E+00
     9 Broy./Diag. 0.40E+00    8.9     0.43928563     -1077.7079462352  1.13E+01
    10 Broy./Diag. 0.40E+00    8.8     0.45247056     -1072.1778838334  5.53E+00
    11 Broy./Diag. 0.40E+00    8.7     0.17125804     -1072.3961523868 -2.18E-01
    12 Broy./Diag. 0.40E+00    8.8     0.91221946     -1073.6180910249 -1.22E+00
    13 Broy./Diag. 0.40E+00    8.8     0.96187749     -1076.0116809369 -2.39E+00
    14 Broy./Diag. 0.40E+00    8.8     0.23742097     -1078.6423950734 -2.63E+00
    15 Broy./Diag. 0.40E+00    8.6     0.16013305     -1074.2062545406  4.44E+00
    16 Broy./Diag. 0.40E+00    8.6     0.91898176     -1075.5599266378 -1.35E+00
    17 Broy./Diag. 0.40E+00    8.8     1.17049851     -1080.5078438005 -4.95E+00
    18 Broy./Diag. 0.40E+00    8.7     1.21913467     -1080.1888396237  3.19E-01
    19 Broy./Diag. 0.40E+00    8.6     0.92611991     -1078.0187605246  2.17E+00
    20 Broy./Diag. 0.40E+00    8.6     0.91443741     -1077.2198347258  7.99E-01
    21 Broy./Diag. 0.40E+00    8.6     0.89541477     -1078.5252241873 -1.31E+00
    22 Broy./Diag. 0.40E+00    9.0     0.91913233     -1076.8658511587  1.66E+00
    23 Broy./Diag. 0.40E+00    8.8     0.94652383     -1079.5924192439 -2.73E+00
    24 Broy./Diag. 0.40E+00    8.8     0.18412057     -1075.6324978301  3.96E+00
    25 Broy./Diag. 0.40E+00    8.8     0.12171557     -1076.9594224512 -1.33E+00
    26 Broy./Diag. 0.40E+00    8.7     0.03938622     -1076.1071255014  8.52E-01
    27 Broy./Diag. 0.40E+00    8.4     1.26859449     -1076.1517386886 -4.46E-02
    28 Broy./Diag. 0.40E+00    8.7     1.27420987     -1078.0937840320 -1.94E+00
    29 Broy./Diag. 0.40E+00    8.9     0.14255186     -1076.3317784599  1.76E+00
    30 Broy./Diag. 0.40E+00    8.8     0.20214001     -1076.2169911875  1.15E-01
    31 Broy./Diag. 0.40E+00    8.9     0.14601908     -1076.7648170059 -5.48E-01
    32 Broy./Diag. 0.40E+00    8.9     1.16505914     -1076.4777090560  2.87E-01
    33 Broy./Diag. 0.40E+00    8.9     1.16863472     -1078.4784972446 -2.00E+00
    34 Broy./Diag. 0.40E+00    8.8     1.16527295     -1076.7292290649  1.75E+00
    35 Broy./Diag. 0.40E+00    8.9     1.47523428     -1077.7179664248 -9.89E-01
    36 Broy./Diag. 0.40E+00    8.8     1.52714952     -1077.4308726575  2.87E-01
    37 Broy./Diag. 0.40E+00    8.9     0.21883124     -1075.9461226587  1.48E+00
    38 Broy./Diag. 0.40E+00    8.9     0.10682989     -1077.2445209099 -1.30E+00
    39 Broy./Diag. 0.40E+00    8.9     0.05825813     -1076.3979953674  8.47E-01
    40 Broy./Diag. 0.40E+00    9.0     0.01587782     -1076.4992588955 -1.01E-01
    41 Broy./Diag. 0.40E+00    8.9     0.01864474     -1076.4862321380  1.30E-02
    42 Broy./Diag. 0.40E+00    8.8     0.01259921     -1076.5097398686 -2.35E-02
    43 Broy./Diag. 0.40E+00    8.7     0.01218752     -1076.4647430177  4.50E-02
    44 Broy./Diag. 0.40E+00    8.9     0.04551808     -1076.5041721047 -3.94E-02
    45 Broy./Diag. 0.40E+00    9.0     0.03030673     -1076.5964928812 -9.23E-02
    46 Broy./Diag. 0.40E+00    8.9     0.02211453     -1076.5890725369  7.42E-03
    47 Broy./Diag. 0.40E+00    8.7     0.02264408     -1076.6462297365 -5.72E-02
    48 Broy./Diag. 0.40E+00    8.7     1.15981516     -1076.4093854628  2.37E-01
    49 Broy./Diag. 0.40E+00    9.0     1.17193384     -1078.1200948049 -1.71E+00
    50 Broy./Diag. 0.40E+00    8.8     0.02787799     -1076.4889245640  1.63E+00
    51 Broy./Diag. 0.40E+00    8.9     0.02185853     -1076.4554293925  3.35E-02
    52 Broy./Diag. 0.40E+00    8.7     0.01460596     -1076.4486704159  6.76E-03
    53 Broy./Diag. 0.40E+00    8.4     0.01276832     -1076.5535715382 -1.05E-01
    54 Broy./Diag. 0.40E+00    8.3     0.00503769     -1076.5044218943  4.91E-02
    55 Broy./Diag. 0.40E+00    8.8     0.00391951     -1076.5062430684 -1.82E-03
    56 Broy./Diag. 0.40E+00    8.8     0.00364077     -1076.4794706011  2.68E-02
    57 Broy./Diag. 0.40E+00    8.9     0.00287540     -1076.4948053623 -1.53E-02
    58 Broy./Diag. 0.40E+00    8.8     1.16778068     -1076.5189592958 -2.42E-02
    59 Broy./Diag. 0.40E+00    8.8     1.17432508     -1078.0730845086 -1.55E+00
    60 Broy./Diag. 0.40E+00    8.9     0.02893600     -1076.4966017966  1.58E+00
    61 Broy./Diag. 0.40E+00    8.8     0.02773028     -1076.4706264978  2.60E-02
    62 Broy./Diag. 0.40E+00    8.6     0.00688319     -1076.5009815565 -3.04E-02
    63 Broy./Diag. 0.40E+00    8.3     0.00941875     -1076.4973116232  3.67E-03
    64 Broy./Diag. 0.40E+00    8.8     0.00465373     -1076.5174478862 -2.01E-02
    65 Broy./Diag. 0.40E+00    8.8     0.00289469     -1076.5041859606  1.33E-02
    66 Broy./Diag. 0.40E+00    8.7     0.00335223     -1076.4872768108  1.69E-02
    67 Broy./Diag. 0.40E+00    8.9     0.00236668     -1076.5154495382 -2.82E-02
    68 Broy./Diag. 0.40E+00    8.7     1.16627814     -1076.5089003218  6.55E-03
    69 Broy./Diag. 0.40E+00    9.0     1.17324055     -1078.0613412652 -1.55E+00
    70 Broy./Diag. 0.40E+00    8.8     0.27204661     -1076.4648572581  1.60E+00
    71 Broy./Diag. 0.40E+00    9.0     0.27392823     -1076.8430123667 -3.78E-01
    72 Broy./Diag. 0.40E+00    8.7     0.02849899     -1076.5393914517  3.04E-01
    73 Broy./Diag. 0.40E+00    8.8     0.02239984     -1076.4035927130  1.36E-01
    74 Broy./Diag. 0.40E+00    8.9     0.01049689     -1076.4477103262 -4.41E-02
    75 Broy./Diag. 0.40E+00    8.8     0.00436872     -1076.5044708165 -5.68E-02
    76 Broy./Diag. 0.40E+00    8.7     0.00251830     -1076.5013829620  3.09E-03
    77 Broy./Diag. 0.40E+00    8.7     0.00206593     -1076.4831931626  1.82E-02
    78 Broy./Diag. 0.40E+00    8.6     1.16959761     -1076.4929025403 -9.71E-03
    79 Broy./Diag. 0.40E+00    8.5     1.17825094     -1078.0218513853 -1.53E+00
    80 Broy./Diag. 0.40E+00    8.8     0.03717365     -1076.4715586456  1.55E+00
    81 Broy./Diag. 0.40E+00    8.9     0.03910291     -1076.4609239856  1.06E-02
    82 Broy./Diag. 0.40E+00    8.9     0.01506582     -1076.4372558077  2.37E-02
    83 Broy./Diag. 0.40E+00    9.0     0.00942630     -1076.5399254237 -1.03E-01
    84 Broy./Diag. 0.40E+00    8.9     0.00637714     -1076.4950995161  4.48E-02
    85 Broy./Diag. 0.40E+00    8.7     0.00598555     -1076.4823502022  1.27E-02
    86 Broy./Diag. 0.40E+00    8.7     0.00409941     -1076.4871253349 -4.78E-03
    87 Broy./Diag. 0.40E+00    8.6     0.00279678     -1076.4857341082  1.39E-03
    88 Broy./Diag. 0.40E+00    8.6     1.16901242     -1076.5080446875 -2.23E-02
    89 Broy./Diag. 0.40E+00    8.7     1.17695083     -1078.0804015332 -1.57E+00
    90 Broy./Diag. 0.40E+00    9.0     0.02290363     -1076.4443420596  1.64E+00
    91 Broy./Diag. 0.40E+00    8.8     0.02159172     -1076.5093880841 -6.50E-02
    92 Broy./Diag. 0.40E+00    8.6     0.01251542     -1076.4972355646  1.22E-02
    93 Broy./Diag. 0.40E+00    8.7     0.01224094     -1076.4958008983  1.43E-03
    94 Broy./Diag. 0.40E+00    8.9     0.00818226     -1076.4369498630  5.89E-02
    95 Broy./Diag. 0.40E+00    8.6     0.00466026     -1076.4845019430 -4.76E-02
    96 Broy./Diag. 0.40E+00    8.6     0.00201736     -1076.4891441846 -4.64E-03
    97 Broy./Diag. 0.40E+00    8.9     0.00245911     -1076.4957788083 -6.63E-03
    98 Broy./Diag. 0.40E+00    8.6     1.16973990     -1076.4757394300  2.00E-02
    99 Broy./Diag. 0.40E+00    8.5     1.17964404     -1078.0302231844 -1.55E+00
   100 Broy./Diag. 0.40E+00    8.5     0.04075948     -1076.4975628049  1.53E+00
   101 Broy./Diag. 0.40E+00    8.9     0.02236566     -1076.3981880040  9.94E-02
   102 Broy./Diag. 0.40E+00    8.7     0.01392918     -1076.4969826814 -9.88E-02
   103 Broy./Diag. 0.40E+00    8.4     0.00916183     -1076.5097628473 -1.28E-02
   104 Broy./Diag. 0.40E+00    8.2     0.00738937     -1076.4740585498  3.57E-02
   105 Broy./Diag. 0.40E+00    8.5     0.00500148     -1076.4858827996 -1.18E-02
   106 Broy./Diag. 0.40E+00    8.8     0.00478589     -1076.5140957462 -2.82E-02
   107 Broy./Diag. 0.40E+00    8.8     0.00241437     -1076.4949047913  1.92E-02
   108 Broy./Diag. 0.40E+00    8.7     1.16731173     -1076.4914904042  3.41E-03
   109 Broy./Diag. 0.40E+00    8.6     1.17643719     -1078.1193745336 -1.63E+00
   110 Broy./Diag. 0.40E+00    8.6     0.05244991     -1076.4776682154  1.64E+00
   111 Broy./Diag. 0.40E+00    9.0     0.04486232     -1076.4508140831  2.69E-02
   112 Broy./Diag. 0.40E+00    9.3     0.01163615     -1076.4828730659 -3.21E-02
   113 Broy./Diag. 0.40E+00    8.8     0.00946423     -1076.4879171395 -5.04E-03
   114 Broy./Diag. 0.40E+00    8.7     0.00575274     -1076.4826612800  5.26E-03
   115 Broy./Diag. 0.40E+00    9.1     0.00296594     -1076.4799652663  2.70E-03
   116 Broy./Diag. 0.40E+00    9.1     0.00197985     -1076.4853242917 -5.36E-03
   117 Broy./Diag. 0.40E+00    8.8     0.00188966     -1076.4876636303 -2.34E-03
   118 Broy./Diag. 0.40E+00    8.6     1.16786720     -1076.4775003486  1.02E-02
   119 Broy./Diag. 0.40E+00    8.2     1.17688948     -1077.9488836213 -1.47E+00
   120 Broy./Diag. 0.40E+00    8.7     0.03915694     -1076.4465553028  1.50E+00
   121 Broy./Diag. 0.40E+00    8.9     0.03176267     -1076.3719569032  7.46E-02
   122 Broy./Diag. 0.40E+00    8.8     0.02171241     -1076.6015222303 -2.30E-01
   123 Broy./Diag. 0.40E+00    9.0     0.00897400     -1076.4727191216  1.29E-01
   124 Broy./Diag. 0.40E+00    8.8     0.00548450     -1076.4655777525  7.14E-03
   125 Broy./Diag. 0.40E+00    8.8     0.00366948     -1076.4978784212 -3.23E-02
   126 Broy./Diag. 0.40E+00    8.9     0.00320874     -1076.4963181737  1.56E-03
   127 Broy./Diag. 0.40E+00    8.7     0.00151876     -1076.4979920351 -1.67E-03
   128 Broy./Diag. 0.40E+00    8.3     1.16863072     -1076.4865520220  1.14E-02
   129 Broy./Diag. 0.40E+00    8.7     1.17718117     -1078.0292018659 -1.54E+00
   130 Broy./Diag. 0.40E+00    8.7     0.03026377     -1076.4786371596  1.55E+00
   131 Broy./Diag. 0.40E+00    8.8     0.02811917     -1076.4460702181  3.26E-02
   132 Broy./Diag. 0.40E+00    8.8     0.01043696     -1076.5230391898 -7.70E-02
   133 Broy./Diag. 0.40E+00    8.7     0.00776703     -1076.4533413949  6.97E-02
   134 Broy./Diag. 0.40E+00    8.8     0.00525453     -1076.4779625207 -2.46E-02
   135 Broy./Diag. 0.40E+00    9.0     0.00255341     -1076.4833485653 -5.39E-03
   136 Broy./Diag. 0.40E+00    8.8     0.00135275     -1076.4912028858 -7.85E-03
   137 Broy./Diag. 0.40E+00    8.8     0.00190515     -1076.4830157016  8.19E-03
   138 Broy./Diag. 0.40E+00    8.8     1.16848236     -1076.4837328235 -7.17E-04
   139 Broy./Diag. 0.40E+00    8.7     1.17938332     -1077.9740581100 -1.49E+00
   140 Broy./Diag. 0.40E+00    9.0     0.04918498     -1076.4067323230  1.57E+00
   141 Broy./Diag. 0.40E+00    8.7     0.04570865     -1076.4365080670 -2.98E-02
   142 Broy./Diag. 0.40E+00    9.2     0.01333120     -1076.5354153854 -9.89E-02
   143 Broy./Diag. 0.40E+00    8.8     0.00814655     -1076.4587777472  7.66E-02
   144 Broy./Diag. 0.40E+00    8.7     0.00380438     -1076.4697487034 -1.10E-02
   145 Broy./Diag. 0.40E+00    8.7     0.00532011     -1076.4975808854 -2.78E-02
   146 Broy./Diag. 0.40E+00    8.6     0.00469396     -1076.4982292941 -6.48E-04
   147 Broy./Diag. 0.40E+00    8.9     0.00299423     -1076.4830721343  1.52E-02
   148 Broy./Diag. 0.40E+00    8.9     1.16788236     -1076.4975548158 -1.45E-02
   149 Broy./Diag. 0.40E+00    8.9     1.17469615     -1078.0797173207 -1.58E+00
   150 Broy./Diag. 0.40E+00    8.8     0.02470622     -1076.5117301519  1.57E+00
   151 Broy./Diag. 0.40E+00    8.7     0.02125863     -1076.3179373512  1.94E-01
   152 Broy./Diag. 0.40E+00    8.9     0.00897201     -1076.5223900966 -2.04E-01
   153 Broy./Diag. 0.40E+00    8.9     0.00622932     -1076.4853706191  3.70E-02
   154 Broy./Diag. 0.40E+00    8.6     0.00392367     -1076.4686127950  1.68E-02
   155 Broy./Diag. 0.40E+00    8.6     0.00193833     -1076.4930395311 -2.44E-02
   156 Broy./Diag. 0.40E+00    8.9     0.00141814     -1076.5043235891 -1.13E-02
   157 Broy./Diag. 0.40E+00    8.8     0.00188069     -1076.4830640602  2.13E-02
   158 Broy./Diag. 0.40E+00    8.6     1.16842499     -1076.4889542759 -5.89E-03
   159 Broy./Diag. 0.40E+00    8.4     1.17868751     -1078.0561971171 -1.57E+00
   160 Broy./Diag. 0.40E+00    8.2     0.06389399     -1076.4536459060  1.60E+00
   161 Broy./Diag. 0.40E+00    8.9     0.06563166     -1076.4939256042 -4.03E-02
   162 Broy./Diag. 0.40E+00    8.9     0.01222980     -1076.4694406273  2.45E-02
   163 Broy./Diag. 0.40E+00    8.8     0.00952149     -1076.5110047183 -4.16E-02
   164 Broy./Diag. 0.40E+00    8.8     0.00690682     -1076.4661650999  4.48E-02
   165 Broy./Diag. 0.40E+00    8.9     0.00439996     -1076.5024360665 -3.63E-02
   166 Broy./Diag. 0.40E+00    8.7     0.00326421     -1076.4923003850  1.01E-02
   167 Broy./Diag. 0.40E+00    8.7     0.00300414     -1076.4749384548  1.74E-02
   168 Broy./Diag. 0.40E+00    8.7     1.16903738     -1076.4924810985 -1.75E-02
   169 Broy./Diag. 0.40E+00    9.1     1.17781405     -1078.0730563465 -1.58E+00
   170 Broy./Diag. 0.40E+00    8.7     0.03454010     -1076.4558743542  1.62E+00
   171 Broy./Diag. 0.40E+00    8.8     0.01934118     -1076.4868689387 -3.10E-02
   172 Broy./Diag. 0.40E+00    8.9     0.01472220     -1076.4908336564 -3.96E-03
   173 Broy./Diag. 0.40E+00    8.7     0.00952067     -1076.4792235011  1.16E-02
   174 Broy./Diag. 0.40E+00    8.3     0.00473830     -1076.4570600357  2.22E-02
   175 Broy./Diag. 0.40E+00    8.5     0.00338821     -1076.4978936577 -4.08E-02
   176 Broy./Diag. 0.40E+00    8.8     0.00368859     -1076.4988108879 -9.17E-04
   177 Broy./Diag. 0.40E+00    8.8     0.00199236     -1076.4833671984  1.54E-02
   178 Broy./Diag. 0.40E+00    8.8     1.16818064     -1076.4874361237 -4.07E-03
   179 Broy./Diag. 0.40E+00    8.7     1.18027653     -1078.0462043576 -1.56E+00
   180 Broy./Diag. 0.40E+00    8.8     0.04074699     -1076.4539773331  1.59E+00
   181 Broy./Diag. 0.40E+00    8.8     0.02293511     -1076.4650500060 -1.11E-02
   182 Broy./Diag. 0.40E+00    8.6     0.00893314     -1076.4911594982 -2.61E-02
   183 Broy./Diag. 0.40E+00    8.3     0.00780977     -1076.4854797625  5.68E-03
   184 Broy./Diag. 0.40E+00    8.3     0.00316477     -1076.4694261884  1.61E-02
   185 Broy./Diag. 0.40E+00    8.7     0.00270447     -1076.4941115182 -2.47E-02
   186 Broy./Diag. 0.40E+00    8.8     0.00375535     -1076.4910089440  3.10E-03
   187 Broy./Diag. 0.40E+00    8.6     0.00405223     -1076.4671217159  2.39E-02
   188 Broy./Diag. 0.40E+00    8.6     1.16787068     -1076.4925728077 -2.55E-02
   189 Broy./Diag. 0.40E+00    8.8     1.17411040     -1078.0509000415 -1.56E+00
   190 Broy./Diag. 0.40E+00    8.7     0.05710876     -1076.4421396506  1.61E+00
   191 Broy./Diag. 0.40E+00    8.7     0.04029249     -1076.4475933492 -5.45E-03
   192 Broy./Diag. 0.40E+00    8.8     0.01294424     -1076.5336047127 -8.60E-02
   193 Broy./Diag. 0.40E+00    8.7     0.00841236     -1076.4425296108  9.11E-02
   194 Broy./Diag. 0.40E+00    8.8     0.00560452     -1076.4623349605 -1.98E-02
   195 Broy./Diag. 0.40E+00    8.7     0.00306135     -1076.5061943817 -4.39E-02
   196 Broy./Diag. 0.40E+00    8.5     0.00283011     -1076.4940406294  1.22E-02
   197 Broy./Diag. 0.40E+00    8.7     0.00284397     -1076.4945380087 -4.97E-04
   198 Broy./Diag. 0.40E+00    8.7     1.16970426     -1076.4865367917  8.00E-03
   199 Broy./Diag. 0.40E+00    8.9     1.17794417     -1078.0826710328 -1.60E+00
   200 Broy./Diag. 0.40E+00    8.9     0.04047455     -1076.5660319405  1.52E+00
   201 Broy./Diag. 0.40E+00    9.0     0.02828487     -1076.2938052428  2.72E-01
   202 Broy./Diag. 0.40E+00    8.8     0.00798044     -1076.5169878963 -2.23E-01
   203 Broy./Diag. 0.40E+00    8.8     0.00517073     -1076.4916514670  2.53E-02
   204 Broy./Diag. 0.40E+00    8.6     0.00444368     -1076.4702217877  2.14E-02
   205 Broy./Diag. 0.40E+00    8.4     0.00246012     -1076.4887539557 -1.85E-02
   206 Broy./Diag. 0.40E+00    8.9     0.00261654     -1076.4980217353 -9.27E-03
   207 Broy./Diag. 0.40E+00    8.8     0.00333744     -1076.4907005044  7.32E-03
   208 Broy./Diag. 0.40E+00    9.0     1.16903529     -1076.4822961253  8.40E-03
   209 Broy./Diag. 0.40E+00    8.9     1.17768210     -1078.0791658351 -1.60E+00
   210 Broy./Diag. 0.40E+00    8.6     0.04848941     -1076.4519059074  1.63E+00
   211 Broy./Diag. 0.40E+00    8.3     0.04353177     -1076.4330698321  1.88E-02
   212 Broy./Diag. 0.40E+00    8.2     0.01140531     -1076.5483432078 -1.15E-01
   213 Broy./Diag. 0.40E+00    8.7     0.00555090     -1076.4275326873  1.21E-01
   214 Broy./Diag. 0.40E+00    8.8     0.00335405     -1076.4729322479 -4.54E-02
   215 Broy./Diag. 0.40E+00    8.7     0.00214310     -1076.4934402234 -2.05E-02
   216 Broy./Diag. 0.40E+00    8.9     0.00283333     -1076.4902622053  3.18E-03
   217 Broy./Diag. 0.40E+00    9.2     0.00205124     -1076.4878711291  2.39E-03
   218 Broy./Diag. 0.40E+00   10.2     1.16862092     -1076.4804332544  7.44E-03
   219 Broy./Diag. 0.40E+00    9.0     1.17965941     -1078.0622703315 -1.58E+00
   220 Broy./Diag. 0.40E+00    8.8     0.04981308     -1076.4787200997  1.58E+00
   221 Broy./Diag. 0.40E+00    8.8     0.04743405     -1076.4149790605  6.37E-02
   222 Broy./Diag. 0.40E+00    8.8     0.01115692     -1076.5083972540 -9.34E-02
   223 Broy./Diag. 0.40E+00    8.8     0.01057308     -1076.4643912884  4.40E-02
   224 Broy./Diag. 0.40E+00    8.9     0.00591704     -1076.5048761573 -4.05E-02
   225 Broy./Diag. 0.40E+00    8.9     0.00378166     -1076.4754625449  2.94E-02
   226 Broy./Diag. 0.40E+00    8.9     0.00405739     -1076.4980706906 -2.26E-02
   227 Broy./Diag. 0.40E+00    9.1     0.00306331     -1076.4821499785  1.59E-02
   228 Broy./Diag. 0.40E+00    8.9     1.16852121     -1076.4826766838 -5.27E-04
   229 Broy./Diag. 0.40E+00    9.0     1.17377754     -1078.0569325516 -1.57E+00
   230 Broy./Diag. 0.40E+00    8.7     0.07587032     -1076.4288473035  1.63E+00
   231 Broy./Diag. 0.40E+00    8.8     0.08352044     -1076.6146125158 -1.86E-01
   232 Broy./Diag. 0.40E+00    8.8     0.01443444     -1076.5132267667  1.01E-01
   233 Broy./Diag. 0.40E+00    9.0     0.00855808     -1076.4718198731  4.14E-02
   234 Broy./Diag. 0.40E+00    8.4     0.00625924     -1076.4950730480 -2.33E-02
   235 Broy./Diag. 0.40E+00    8.8     0.00484384     -1076.4777925773  1.73E-02
   236 Broy./Diag. 0.40E+00    8.7     0.00407725     -1076.5039791983 -2.62E-02
   237 Broy./Diag. 0.40E+00    8.8     0.00413410     -1076.5000709966  3.91E-03
   238 Broy./Diag. 0.40E+00    8.7     1.16940293     -1076.4880966734  1.20E-02
   239 Broy./Diag. 0.40E+00    8.7     1.17882777     -1078.0645838565 -1.58E+00
   240 Broy./Diag. 0.40E+00    8.8     0.04348223     -1076.4495988284  1.61E+00
   241 Broy./Diag. 0.40E+00    8.8     0.03670009     -1076.5465052165 -9.69E-02
   242 Broy./Diag. 0.40E+00    8.8     0.00983929     -1076.4800517091  6.65E-02
   243 Broy./Diag. 0.40E+00    8.8     0.00711697     -1076.5103906484 -3.03E-02
   244 Broy./Diag. 0.40E+00    8.8     0.00463539     -1076.4903911081  2.00E-02
   245 Broy./Diag. 0.40E+00    8.8     0.00394862     -1076.4834983493  6.89E-03
   246 Broy./Diag. 0.40E+00    8.8     0.00358904     -1076.4951732845 -1.17E-02
   247 Broy./Diag. 0.40E+00    8.8     0.00205858     -1076.4894613470  5.71E-03
   248 Broy./Diag. 0.40E+00    8.6     1.16852899     -1076.4908877539 -1.43E-03
   249 Broy./Diag. 0.40E+00    8.5     1.17741386     -1078.0778935426 -1.59E+00
   250 Broy./Diag. 0.40E+00    8.8     0.04186729     -1076.4051451078  1.67E+00
   251 Broy./Diag. 0.40E+00    8.7     0.04385762     -1076.7134357285 -3.08E-01
   252 Broy./Diag. 0.40E+00    8.8     0.01519114     -1076.4695672076  2.44E-01
   253 Broy./Diag. 0.40E+00    8.8     0.00932624     -1076.4732026653 -3.64E-03
   254 Broy./Diag. 0.40E+00    8.6     0.00683373     -1076.4553159430  1.79E-02
   255 Broy./Diag. 0.40E+00    8.5     0.00491060     -1076.4903056868 -3.50E-02
   256 Broy./Diag. 0.40E+00    9.0     0.00279778     -1076.4832152125  7.09E-03
   257 Broy./Diag. 0.40E+00    8.8     0.00237498     -1076.4846924674 -1.48E-03
   258 Broy./Diag. 0.40E+00    8.8     1.17053789     -1076.4771226087  7.57E-03
   259 Broy./Diag. 0.40E+00    8.8     1.18172806     -1078.0660937316 -1.59E+00
   260 Broy./Diag. 0.40E+00    8.9     0.04084519     -1076.4990786912  1.57E+00
   261 Broy./Diag. 0.40E+00    8.8     0.02322614     -1076.4321044794  6.70E-02
   262 Broy./Diag. 0.40E+00    8.7     0.02049959     -1076.4424273414 -1.03E-02
   263 Broy./Diag. 0.40E+00    8.8     0.00989409     -1076.5065818482 -6.42E-02
   264 Broy./Diag. 0.40E+00    8.8     0.00584179     -1076.4608198906  4.58E-02
   265 Broy./Diag. 0.40E+00    9.0     0.00406372     -1076.4846121631 -2.38E-02
   266 Broy./Diag. 0.40E+00    8.8     0.00340120     -1076.4753630400  9.25E-03
   267 Broy./Diag. 0.40E+00    8.8     0.00289612     -1076.4797126829 -4.35E-03
   268 Broy./Diag. 0.40E+00    8.9     1.16973834     -1076.4803397983 -6.27E-04
   269 Broy./Diag. 0.40E+00    8.6     1.17661385     -1078.0416617165 -1.56E+00
   270 Broy./Diag. 0.40E+00    8.7     0.04304605     -1076.3889441692  1.65E+00
   271 Broy./Diag. 0.40E+00    8.8     0.03572550     -1076.6306408993 -2.42E-01
   272 Broy./Diag. 0.40E+00    8.8     0.01210509     -1076.4896149351  1.41E-01
   273 Broy./Diag. 0.40E+00    8.6     0.00828999     -1076.4938849273 -4.27E-03
   274 Broy./Diag. 0.40E+00    8.6     0.00561581     -1076.4409441503  5.29E-02
   275 Broy./Diag. 0.40E+00    9.0     0.00358408     -1076.5011434226 -6.02E-02
   276 Broy./Diag. 0.40E+00    8.8     0.00297714     -1076.4906609504  1.05E-02
   277 Broy./Diag. 0.40E+00    9.0     0.00293631     -1076.4875193952  3.14E-03
   278 Broy./Diag. 0.40E+00    8.8     1.16954192     -1076.4849307521  2.59E-03
   279 Broy./Diag. 0.40E+00    8.8     1.17990884     -1078.0675306873 -1.58E+00
   280 Broy./Diag. 0.40E+00    9.0     0.04980643     -1076.5078234076  1.56E+00
   281 Broy./Diag. 0.40E+00    8.8     0.02748246     -1076.4393836889  6.84E-02
   282 Broy./Diag. 0.40E+00    8.6     0.00771505     -1076.4805801967 -4.12E-02
   283 Broy./Diag. 0.40E+00    8.3     0.00641391     -1076.5015447672 -2.10E-02
   284 Broy./Diag. 0.40E+00    8.4     0.00420580     -1076.4602933820  4.13E-02
   285 Broy./Diag. 0.40E+00    8.3     0.00323887     -1076.5002124428 -3.99E-02
   286 Broy./Diag. 0.40E+00    8.7     0.00297687     -1076.4782735266  2.19E-02
   287 Broy./Diag. 0.40E+00    8.7     0.00276318     -1076.4903910951 -1.21E-02
   288 Broy./Diag. 0.40E+00    9.0     1.16883106     -1076.4879411924  2.45E-03
   289 Broy./Diag. 0.40E+00    9.0     1.17701128     -1078.0689884816 -1.58E+00
   290 Broy./Diag. 0.40E+00    8.8     0.05671816     -1076.4339839073  1.64E+00
   291 Broy./Diag. 0.40E+00    8.7     0.04110346     -1076.4932804007 -5.93E-02
   292 Broy./Diag. 0.40E+00    8.8     0.01651043     -1076.4962723704 -2.99E-03
   293 Broy./Diag. 0.40E+00    8.9     0.01504710     -1076.4692620843  2.70E-02
   294 Broy./Diag. 0.40E+00    8.9     0.00546238     -1076.4511494902  1.81E-02
   295 Broy./Diag. 0.40E+00    9.0     0.00223050     -1076.4965877189 -4.54E-02
   296 Broy./Diag. 0.40E+00    8.9     0.00208835     -1076.4829977520  1.36E-02
   297 Broy./Diag. 0.40E+00    8.8     0.00220503     -1076.4907010229 -7.70E-03
   298 Broy./Diag. 0.40E+00    8.9     1.16890706     -1076.4777643853  1.29E-02
   299 Broy./Diag. 0.40E+00    8.9     1.17831581     -1078.0748546502 -1.60E+00
   300 Broy./Diag. 0.40E+00    8.8     0.05631930     -1076.5613614253  1.51E+00

  Leaving inner SCF loop after reaching   300 steps.


  Electronic density on regular grids:       -512.0001408550       -0.0001408550
  Core density on regular grids:              512.0001991425        0.0001991425
  Total charge density on r-space grids:        0.0000582875
  Total charge density g-space grids:           0.0000582875

  Overlap energy of the core charge distribution:               0.00000000000000
  Self energy of the core charge distribution:              -2838.21791979120962
  Core Hamiltonian energy:                                    759.87503998184548
  Hartree energy:                                            1240.60155480051799
  Exchange-correlation energy:                               -238.82003641649987

  Total energy:                                             -1076.56136142534615

 *** WARNING in qs_scf.F:542 :: SCF run NOT converged ***


 ENERGY| Total FORCE_EVAL ( QS ) energy (a.u.):            -1076.521169861080352


 ATOMIC FORCES in [a.u.]

 # Atom   Kind   Element          X              Y              Z
      1      1      O          -0.05386255     0.09330870     0.00472712
      2      2      H          -0.03606406    -0.06015425     0.00511558
      3      2      H           0.05853274    -0.03126053     0.04576908
      4      1      O           0.06629700     0.07279264    -0.14795860
      5      2      H           0.01709009     0.06270011     0.02204657
      6      2      H          -0.02841459    -0.09979990     0.04399151
      7      1      O           0.01242281    -0.06492229     0.06550066
      8      2      H           0.00034229    -0.08833421    -0.09690393
      9      2      H          -0.07658484     0.03715233    -0.04233156
     10      1      O           0.12111894    -0.09129040     0.04183322
     11      2      H          -0.00467944     0.02097199     0.01460150
     12      2      H          -0.09616343    -0.04418271     0.04091262
     13      1      O           0.09304842    -0.01350260     0.04514124
     14      2      H           0.03241524     0.01286646     0.03981380
     15      2      H          -0.02855173     0.08070385    -0.02981187
     16      1      O          -0.05030913     0.03930355     0.12396924
     17      2      H          -0.05694116     0.06725882    -0.07728225
     18      2      H           0.00194036    -0.06162869    -0.05167121
     19      1      O          -0.06754511    -0.12030975    -0.02597919
     20      2      H          -0.00080611     0.11401123    -0.04549712
     21      2      H          -0.02382065    -0.04366146     0.08189065
     22      1      O           0.11966923    -0.13716829    -0.04960384
     23      2      H           0.00429969    -0.00167041     0.05236384
     24      2      H          -0.04861599     0.05952710    -0.09237280
     25      1      O          -0.09321262    -0.13827391    -0.09637184
     26      2      H           0.08475056     0.05057389     0.02360463
     27      2      H          -0.03120192     0.08703347     0.01022479
     28      1      O           0.01002178    -0.09836847    -0.03566045
     29      2      H          -0.02476997    -0.00686389    -0.06693984
     30      2      H          -0.03946717     0.08434674     0.03804012
     31      1      O           0.03928039     0.07567385     0.02664959
     32      2      H          -0.00723482    -0.07819276    -0.01472423
     33      2      H           0.01457922     0.05502910    -0.01163490
     34      1      O           0.02774478    -0.11178417     0.01973388
     35      2      H          -0.04830521     0.00893251    -0.04604877
     36      2      H           0.03601304     0.04213581     0.03833244
     37      1      O           0.04252015     0.06737110    -0.15464852
     38      2      H          -0.08176678    -0.05690553     0.01960822
     39      2      H           0.07270163    -0.02250262     0.07169316
     40      1      O          -0.08090842    -0.00210840    -0.04084782
     41      2      H          -0.08105441    -0.05349102    -0.00649769
     42      2      H           0.07830472    -0.00391001    -0.05634986
     43      1      O          -0.00408479    -0.12106152    -0.07289409
     44      2      H           0.06097460     0.09871422    -0.00925853
     45      2      H           0.00506089    -0.01295252     0.03044223
     46      1      O          -0.08114255     0.01115640     0.01634819
     47      2      H          -0.03723345     0.06155046    -0.02241588
     48      2      H           0.04357433     0.01774628    -0.06869663
     49      1      O          -0.03922838    -0.07386907     0.08738679
     50      2      H           0.05410631     0.02806011    -0.08229400
     51      2      H          -0.07040554    -0.05019814     0.00398415
     52      1      O          -0.00005958    -0.04271570    -0.04427127
     53      2      H          -0.02479279     0.04626193     0.03235053
     54      2      H           0.09899913     0.00441913    -0.04130384
     55      1      O           0.01456876     0.11806485     0.07335814
     56      2      H          -0.01289708    -0.04292801    -0.03250978
     57      2      H           0.03537918     0.00507251    -0.00156590
     58      1      O           0.01129292    -0.05446426     0.00582456
     59      2      H          -0.02519805     0.04394082    -0.01337959
     60      2      H           0.02794657     0.01362993     0.08968427
     61      1      O           0.12179594    -0.00802088    -0.00146107
     62      2      H          -0.05860488     0.01656513    -0.05176473
     63      2      H          -0.02948042    -0.00431262     0.09620729
     64      1      O           0.07968263    -0.02442369    -0.05678013
     65      2      H          -0.01221038    -0.04568043     0.04789885
     66      2      H           0.00166558     0.06483273    -0.02162857
     67      1      O          -0.02564591    -0.05276679     0.14811132
     68      2      H           0.05561271    -0.04420947    -0.02359679
     69      2      H          -0.05663418     0.01617110    -0.04929577
     70      1      O          -0.03172492    -0.09314558    -0.07393289
     71      2      H          -0.07879921     0.02376057     0.00205461
     72      2      H           0.07570482     0.03198383     0.06242977
     73      1      O          -0.03262769    -0.06115926     0.07605488
     74      2      H           0.03423627     0.04423246     0.05456881
     75      2      H           0.00212867    -0.01301866    -0.08606920
     76      1      O          -0.02413741     0.09666947     0.01410572
     77      2      H          -0.01586558    -0.00457592     0.06657285
     78      2      H          -0.03853408    -0.01145792    -0.03868043
     79      1      O           0.12253951     0.05599613    -0.03792231
     80      2      H           0.02676421    -0.11103357     0.05273416
     81      2      H          -0.09710327     0.00846127    -0.04298941
     82      1      O          -0.09675577    -0.03622246     0.07205990
     83      2      H           0.02920692     0.02576671    -0.00944645
     84      2      H           0.01060940    -0.01992707    -0.02069136
     85      1      O           0.10061161     0.07303935     0.05497372
     86      2      H           0.02636208     0.00699804    -0.07266303
     87      2      H          -0.06992239    -0.06395594     0.05189299
     88      1      O           0.12315732     0.08709650     0.02207543
     89      2      H          -0.00530960    -0.03227591    -0.09478850
     90      2      H          -0.08036032    -0.04248509     0.01628937
     91      1      O          -0.01971625     0.10913292     0.05963949
     92      2      H           0.00151672    -0.02310597    -0.04175262
     93      2      H           0.04429118    -0.03402618     0.03633164
     94      1      O           0.10266315     0.06860292    -0.10227932
     95      2      H          -0.04821634    -0.01525571     0.03964992
     96      2      H          -0.00993328    -0.04418071    -0.04505639
     97      1      O          -0.01239191    -0.03726257     0.00555077
     98      2      H           0.05056811     0.00629032     0.01294139
     99      2      H          -0.01977345     0.06889156    -0.07730428
    100      1      O          -0.15730866    -0.02427905    -0.00696808
    101      2      H           0.07422720     0.03153729     0.00144953
    102      2      H           0.03983721    -0.08546774     0.00486375
    103      1      O           0.08290490     0.13563919     0.08464576
    104      2      H          -0.00454818    -0.06209112    -0.10051785
    105      2      H          -0.04761829    -0.07376016     0.05722547
    106      1      O           0.00782106    -0.09180712    -0.06998972
    107      2      H           0.02313110     0.08831660     0.01096239
    108      2      H          -0.09459060    -0.01434746     0.03696153
    109      1      O           0.03132553    -0.08419218     0.12219072
    110      2      H          -0.08596441    -0.02566282    -0.01851029
    111      2      H           0.01863886    -0.01516483    -0.10760897
    112      1      O          -0.08560045    -0.04356751     0.01889567
    113      2      H           0.04093950    -0.03310666     0.05706814
    114      2      H           0.03232690     0.06815827     0.01444570
    115      1      O           0.11116779     0.06902906    -0.00473748
    116      2      H          -0.04027287     0.06875118    -0.01675363
    117      2      H          -0.06615982    -0.06214768    -0.00287520
    118      1      O           0.04248472    -0.03845063    -0.00078710
    119      2      H           0.05571483     0.02555590    -0.03263134
    120      2      H          -0.09665916     0.02008831    -0.03787112
    121      1      O          -0.06637746    -0.05211387     0.12938561
    122      2      H          -0.02566629     0.08876955    -0.07469480
    123      2      H           0.05990383    -0.00650429    -0.01340511
    124      1      O           0.03037531     0.00140727     0.13160712
    125      2      H          -0.07124024    -0.06557984    -0.03150029
    126      2      H           0.08419533    -0.01741290    -0.02780885
    127      1      O          -0.08166391    -0.06926413     0.01707473
    128      2      H           0.04560886    -0.00968185    -0.05764739
    129      2      H           0.01027970     0.09499711     0.01099347
    130      1      O           0.09879724     0.05606594     0.05560263
    131      2      H          -0.03229154     0.03166819     0.04856513
    132      2      H          -0.03559467    -0.03355279     0.00353542
    133      1      O           0.08457894     0.02868347     0.00856066
    134      2      H          -0.04619459     0.01706067    -0.03110307
    135      2      H           0.03442299    -0.05644627    -0.02482107
    136      1      O           0.03370424    -0.01846898    -0.01666086
    137      2      H          -0.05596423     0.01126036     0.05539738
    138      2      H          -0.02641335    -0.04223273    -0.06814543
    139      1      O          -0.06052340    -0.00067377    -0.11811573
    140      2      H          -0.01162187     0.10854014     0.02511402
    141      2      H           0.01517045    -0.09287162     0.06196164
    142      1      O           0.03676977     0.08750050     0.01612741
    143      2      H           0.04661829    -0.08300773     0.04254972
    144      2      H          -0.04621144     0.00215731    -0.04822021
    145      1      O          -0.07710718    -0.06327568     0.04722297
    146      2      H           0.00911659    -0.06865178    -0.04871392
    147      2      H          -0.00427020     0.04885447    -0.06030660
    148      1      O          -0.03165859     0.03497429    -0.00269657
    149      2      H           0.05004070     0.02986792     0.02222404
    150      2      H           0.04889688    -0.09325607     0.02471002
    151      1      O           0.02825934    -0.09183695     0.02507015
    152      2      H           0.05790895    -0.04771961    -0.04565823
    153      2      H          -0.04858348     0.08220859    -0.01571120
    154      1      O           0.02720455    -0.01387059     0.02003787
    155      2      H          -0.03856267    -0.01166163    -0.01219101
    156      2      H          -0.00099935     0.04927021    -0.07046710
    157      1      O          -0.03804877    -0.12206246    -0.10433171
    158      2      H          -0.06301987     0.00630155     0.03852829
    159      2      H          -0.02755078     0.05076128    -0.02422857
    160      1      O          -0.03619047     0.02556405    -0.09685665
    161      2      H           0.06069430     0.03283689     0.06826623
    162      2      H          -0.01761731    -0.02257194    -0.05260608
    163      1      O           0.05133952    -0.01346922    -0.04194680
    164      2      H          -0.08393952     0.01084536    -0.04841394
    165      2      H           0.01285596    -0.06013510     0.01506555
    166      1      O           0.02334581    -0.07832741    -0.07147731
    167      2      H          -0.02460017    -0.02310117     0.03468176
    168      2      H          -0.03319441     0.00700846    -0.04316959
    169      1      O           0.08500087    -0.03392587    -0.07014927
    170      2      H           0.05831503     0.06445490     0.04676356
    171      2      H          -0.08885382     0.02630524    -0.06350276
    172      1      O          -0.00055073     0.10077438     0.13321277
    173      2      H           0.05571509     0.00465022    -0.05479820
    174      2      H          -0.03389997     0.01923502    -0.04466916
    175      1      O           0.11477532    -0.04482772    -0.06152382
    176      2      H          -0.09440877    -0.04368538    -0.01063631
    177      2      H           0.03466149     0.02123622     0.06743230
    178      1      O          -0.05984868     0.00222299    -0.02869460
    179      2      H           0.03003859     0.01128981     0.04522078
    180      2      H          -0.02465485     0.03152560    -0.01645359
    181      1      O          -0.01670310     0.03476976    -0.07041595
    182      2      H          -0.00058423     0.02686608     0.04645640
    183      2      H           0.07810203    -0.04093173    -0.02465581
    184      1      O           0.01655477    -0.07566596    -0.02571664
    185      2      H          -0.05442776     0.04721624     0.03528436
    186      2      H           0.04450481     0.03850347    -0.03003039
    187      1      O           0.01213276     0.05530289     0.07811903
    188      2      H           0.05195090     0.04454345    -0.03389539
    189      2      H           0.01077055    -0.04677871     0.00031770
    190      1      O           0.04239529    -0.00534437    -0.05053139
    191      2      H          -0.00856124     0.08109266     0.06033538
    192      2      H          -0.04385951    -0.04202425     0.00575848
 SUM OF ATOMIC FORCES           0.03038692    -0.48748806    -0.72467474     0.87391159

 -------------------------------------------------------------------------------
 -                                                                             -
 -                                DBCSR STATISTICS                             -
 -                                                                             -
 -------------------------------------------------------------------------------
 COUNTER                                    TOTAL       BLAS       SMM       ACC
 flops     5 x     5 x   256           7089152000       0.0%    100.0%      0.0%
 flops     5 x    13 x   256           8524705280       0.0%    100.0%      0.0%
 flops    13 x     5 x   256           8745085440       0.0%    100.0%      0.0%
 flops    13 x    13 x   256          11746262528       0.0%    100.0%      0.0%
 flops inhomo. stacks                           0       0.0%      0.0%      0.0%
 flops total                        36.105205E+09       0.0%    100.0%      0.0%
 flops max/rank                     36.105205E+09       0.0%    100.0%      0.0%
 matmuls inhomo. stacks                         0       0.0%      0.0%      0.0%
 matmuls total                            1208515       0.0%    100.0%      0.0%
 number of processed stacks                 42140       0.0%    100.0%      0.0%
 average stack size                                     0.0      28.7       0.0
 marketing flops                   333.927416E+09
 -------------------------------------------------------------------------------
 # multiplications                            301
 max memory usage/rank               3.561218E+09
 # max total images/rank                        1
 # max 3D layers                                1
 # MPI messages exchanged                       0
 MPI messages size (bytes):
  total size                         0.000000E+00
  min size                           0.000000E+00
  max size                           0.000000E+00
  average size                       0.000000E+00
 MPI breakdown and total messages size (bytes):
             size <=      128                   0                        0
       128 < size <=     8192                   0                        0
      8192 < size <=    32768                   0                        0
     32768 < size <=   131072                   0                        0
    131072 < size <=  4194304                   0                        0
   4194304 < size <= 16777216                   0                        0
  16777216 < size                               0                        0
 -------------------------------------------------------------------------------

 MEMORY| Estimated peak process memory [MiB]                                3400

 -------------------------------------------------------------------------------
 -                                                                             -
 -                           R E F E R E N C E S                               -
 -                                                                             -
 -------------------------------------------------------------------------------
 
 CP2K version 7.1, the CP2K developers group (2019).
 CP2K is freely available from https://www.cp2k.org/ .

 Schuett, Ole; Messmer, Peter; Hutter, Juerg; VandeVondele, Joost. 
 Electronic Structure Calculations on Graphics Processing Units, John
 Wiley & Sons, Ltd, 173-190 (2016). 
 GPU-Accelerated Sparse Matrix-Matrix Multiplication for
 Linear Scaling Density Functional Theory.
 https://dx.doi.org/10.1002/9781118670712.ch8

 Borstnik, U; VandeVondele, J; Weber, V; Hutter, J. 
 PARALLEL COMPUTING, 40 (5-6), 47-58 (2014). 
 Sparse matrix multiplication: The distributed block-compressed sparse
 row library.
 https://dx.doi.org/10.1016/j.parco.2014.03.012

 Hutter, J; Iannuzzi, M; Schiffmann, F; VandeVondele, J. 
 WIREs Comput Mol Sci., 4 (1), 15-25 (2014). 
 CP2K: atomistic simulations of condensed matter systems.
 https://dx.doi.org/10.1002/wcms.1159

 Krack, M. 
 THEORETICAL CHEMISTRY ACCOUNTS, 114 (1-3), 145-152 (2005). 
 Pseudopotentials for H to Kr optimized for gradient-corrected
 exchange-correlation functionals.
 https://dx.doi.org/10.1007/s00214-005-0655-y

 VandeVondele, J; Krack, M; Mohamed, F; Parrinello, M; Chassaing, T;
 Hutter, J. COMPUTER PHYSICS COMMUNICATIONS, 167 (2), 103-128 (2005). 
 QUICKSTEP: Fast and accurate density functional calculations using a
 mixed Gaussian and plane waves approach.
 https://dx.doi.org/10.1016/j.cpc.2004.12.014

 Frigo, M; Johnson, SG. 
 PROCEEDINGS OF THE IEEE, 93 (2), 216-231 (2005). 
 The design and implementation of FFTW3.
 https://dx.doi.org/10.1109/JPROC.2004.840301

 Hartwigsen, C; Goedecker, S; Hutter, J. 
 PHYSICAL REVIEW B, 58 (7), 3641-3662 (1998). 
 Relativistic separable dual-space Gaussian pseudopotentials from H to Rn.
 https://dx.doi.org/10.1103/PhysRevB.58.3641

 Lippert, G; Hutter, J; Parrinello, M. 
 MOLECULAR PHYSICS, 92 (3), 477-487 (1997). 
 A hybrid Gaussian and plane wave density functional scheme.
 https://dx.doi.org/10.1080/002689797170220

 Goedecker, S; Teter, M; Hutter, J. 
 PHYSICAL REVIEW B, 54 (3), 1703-1710 (1996). 
 Separable dual-space Gaussian pseudopotentials.
 https://dx.doi.org/10.1103/PhysRevB.54.1703


 -------------------------------------------------------------------------------
 -                                                                             -
 -                                T I M I N G                                  -
 -                                                                             -
 -------------------------------------------------------------------------------
 SUBROUTINE                       CALLS  ASD         SELF TIME        TOTAL TIME
                                MAXIMUM       AVERAGE  MAXIMUM  AVERAGE  MAXIMUM
 CP2K                                 1  1.0    0.139    0.139 2629.665 2629.665
 qs_forces                            1  2.0    0.000    0.000 2628.188 2628.188
 qs_energies                          1  3.0    0.000    0.000 2627.585 2627.585
 scf_env_do_scf                       1  4.0    0.000    0.000 2625.474 2625.474
 scf_env_do_scf_inner_loop          300  5.0    0.058    0.058 2625.474 2625.474
 qs_scf_new_mos                     300  6.0    0.010    0.010 2013.131 2013.131
 eigensolver                        300  7.0    0.049    0.049 1978.315 1978.315
 cp_fm_syevd                        300  8.0 1269.384 1269.384 1271.221 1271.221
 cp_fm_cholesky_restore             900  8.0  705.969  705.969  705.969  705.969
 gspace_mixing                      299  6.0    4.620    4.620  332.898  332.898
 broyden_mixing                     299  7.0  300.858  300.858  300.862  300.862
 qs_ks_update_qs_env                300  6.0    0.003    0.003  142.879  142.879
 rebuild_ks_matrix                  301  7.0    0.001    0.001  142.741  142.741
 qs_ks_build_kohn_sham_matrix       301  8.0    0.069    0.069  142.740  142.740
 qs_rho_update_rho                  301  6.0    0.003    0.003  135.178  135.178
 calculate_rho_elec                 301  7.0   66.488   66.488  135.174  135.174
 pw_transfer                       3912  9.9    0.322    0.322  132.831  132.831
 fft_wrap_pw1pw2                   3310 10.9    0.032    0.032  128.500  128.500
 fft_wrap_pw1pw2_70                1504 11.2   15.070   15.070  119.093  119.093
 density_rs2pw                      301  8.0    0.028    0.028   65.864   65.864
 fft3d_s                           3311 12.9   59.781   59.781   59.809   59.809
 -------------------------------------------------------------------------------

 The number of warnings for this run is : 1
 
 -------------------------------------------------------------------------------
  **** **** ******  **  PROGRAM ENDED AT                 2021-01-18 06:31:16.616
 ***** ** ***  *** **   PROGRAM RAN ON                                   gnode52
 **    ****   ******    PROGRAM RAN BY                               mayank.modi
 ***** **    ** ** **   PROGRAM PROCESS ID                                 36414
  **** **  *******  **  PROGRAM STOPPED IN /home/mayank.modi/ab-initio-thermodyn
                                           amics-of-water/mayank/cp2k_energy_cal
                                           culations
