 DBCSR| CPU Multiplication driver                                           XSMM
 DBCSR| Multrec recursion limit                                              512
 DBCSR| Multiplication stack size                                           1000
 DBCSR| Maximum elements for images                                    UNLIMITED
 DBCSR| Multiplicative factor virtual images                                   1
 DBCSR| Use multiplication densification                                       T
 DBCSR| Multiplication size stacks                                             3


  **** **** ******  **  PROGRAM STARTED AT               2021-01-15 02:13:27.844
 ***** ** ***  *** **   PROGRAM STARTED ON                               gnode52
 **    ****   ******    PROGRAM STARTED BY                           mayank.modi
 ***** **    ** ** **   PROGRAM PROCESS ID                                 23123
  **** **  *******  **  PROGRAM STARTED IN /home/mayank.modi/ab-initio-thermodyn
                                           amics-of-water/mayank/cp2k_energy_cal
                                           culations

 CP2K| version string:                                          CP2K version 7.1
 CP2K| source code revision number:                                  git:e635599
 CP2K| cp2kflags: omp libint fftw3 libxc xsmm spglib                            
 CP2K| is freely available from                            https://www.cp2k.org/
 CP2K| Program compiled at                          Mon Dec 23 19:23:12 CET 2019
 CP2K| Program compiled on                                                pc9404
 CP2K| Program compiled for                                Linux-x86-64-gfortran
 CP2K| Data directory path                                        /opt/cp2k/data
 CP2K| Input file name                   input_training_correct_cell/input536.in

 GLOBAL| Force Environment number                                              1
 GLOBAL| Basis set file name                                           BASIS_SET
 GLOBAL| Potential file name                                      GTH_POTENTIALS
 GLOBAL| MM Potential file name                                     MM_POTENTIAL
 GLOBAL| Coordinate file name                                      __STD_INPUT__
 GLOBAL| Method name                                                        CP2K
 GLOBAL| Project name                                                   H2O_bulk
 GLOBAL| Preferred FFT library                                             FFTW3
 GLOBAL| Preferred diagonalization lib.                                       SL
 GLOBAL| Run type                                                   ENERGY_FORCE
 GLOBAL| All-to-all communication in single precision                          F
 GLOBAL| FFTs using library dependent lengths                                  F
 GLOBAL| Global print level                                                  LOW
 GLOBAL| MPI I/O enabled                                                       T
 GLOBAL| Total number of message passing processes                             1
 GLOBAL| Number of threads for this process                                   36
 GLOBAL| This output is from process                                           0
 GLOBAL| CPU model name                Intel(R) Xeon(R) CPU E5-2640 v4 @ 2.40GHz
 GLOBAL| CPUID                                                              1002
 GLOBAL| Compiled for CPUID                                                    0

 MEMORY| system memory details [Kb]
 MEMORY|                        rank 0           min           max       average
 MEMORY| MemTotal            131893316     131893316     131893316     131893316
 MEMORY| MemFree             107603952     107603952     107603952     107603952
 MEMORY| Buffers              13823296      13823296      13823296      13823296
 MEMORY| Cached                1827976       1827976       1827976       1827976
 MEMORY| Slab                  7912348       7912348       7912348       7912348
 MEMORY| SReclaimable          4852492       4852492       4852492       4852492
 MEMORY| MemLikelyFree       128107716     128107716     128107716     128107716


 GENERATE|  Preliminary Number of Bonds generated:                             0
 GENERATE|  Achieved consistency in connectivity generation.

 *******************************************************************************
 *******************************************************************************
 **                                                                           **
 **     #####                         ##              ##                      **
 **    ##   ##            ##          ##              ##                      **
 **   ##     ##                       ##            ######                    **
 **   ##     ##  ##   ##  ##   #####  ##  ##   ####   ##    #####    #####    **
 **   ##     ##  ##   ##  ##  ##      ## ##   ##      ##   ##   ##  ##   ##   **
 **   ##  ## ##  ##   ##  ##  ##      ####     ###    ##   ######   ######    **
 **    ##  ###   ##   ##  ##  ##      ## ##      ##   ##   ##       ##        **
 **     #######   #####   ##   #####  ##  ##  ####    ##    #####   ##        **
 **           ##                                                    ##        **
 **                                                                           **
 **                                                ... make the atoms dance   **
 **                                                                           **
 **            Copyright (C) by CP2K developers group (2000 - 2019)           **
 **                                                                           **
 *******************************************************************************


 TOTAL NUMBERS AND MAXIMUM NUMBERS

  Total number of            - Atomic kinds:                                   2
                             - Atoms:                                        192
                             - Shell sets:                                   384
                             - Shells:                                       704
                             - Primitive Cartesian functions:                960
                             - Cartesian basis functions:                   1536
                             - Spherical basis functions:                   1472

  Maximum angular momentum of- Orbital basis functions:                        2
                             - Local part of the GTH pseudopotential:          2
                             - Non-local part of the GTH pseudopotential:      0


 SCF PARAMETERS         Density guess:                                    ATOMIC
                        --------------------------------------------------------
                        max_scf:                                             300
                        max_scf_history:                                       0
                        max_diis:                                              4
                        --------------------------------------------------------
                        eps_scf:                                        1.00E-07
                        eps_scf_history:                                0.00E+00
                        eps_diis:                                       1.00E-01
                        eps_eigval:                                     1.00E-05
                        --------------------------------------------------------
                        level_shift [a.u.]:                                 0.00
                        --------------------------------------------------------
                        Mixing method:                            BROYDEN_MIXING
                                                charge density mixing in g-space
                        --------------------------------------------------------
                        No outer SCF

 Number of electrons:                                                        512
 Number of occupied orbitals:                                                256
 Number of molecular orbitals:                                               256

 Number of orbital functions:                                               1472
 Number of independent orbital functions:                                   1472

 Extrapolation method: initial_guess


 SCF WAVEFUNCTION OPTIMIZATION

  Step     Update method      Time    Convergence         Total energy    Change
  ------------------------------------------------------------------------------
     1 NoMix/Diag. 0.40E+00    7.2     0.66496690     -1063.5758698920 -1.06E+03
     2 Broy./Diag. 0.40E+00    8.0     1.88264499      -990.5987411813  7.30E+01
     3 Broy./Diag. 0.40E+00    8.1     1.93331877     -1282.9494329430 -2.92E+02
     4 Broy./Diag. 0.40E+00    8.2     1.81670981     -1127.5507534607  1.55E+02
     5 Broy./Diag. 0.40E+00    8.3     1.54769074     -1093.9760614406  3.36E+01
     6 Broy./Diag. 0.40E+00    8.3     1.85503933     -1099.8815017141 -5.91E+00
     7 Broy./Diag. 0.40E+00    8.8     1.63346774     -1103.8520437255 -3.97E+00
     8 Broy./Diag. 0.40E+00    9.4     1.80960071     -1087.5106056785  1.63E+01
     9 Broy./Diag. 0.40E+00    9.5     1.00306206     -1076.2724740920  1.12E+01
    10 Broy./Diag. 0.40E+00    9.7     1.12809889     -1070.1862499705  6.09E+00
    11 Broy./Diag. 0.40E+00    9.3     1.15844922     -1073.2561191774 -3.07E+00
    12 Broy./Diag. 0.40E+00    9.7     0.98842922     -1070.7086398319  2.55E+00
    13 Broy./Diag. 0.40E+00    9.5     1.08161529     -1071.3982172342 -6.90E-01
    14 Broy./Diag. 0.40E+00    9.5     0.39166082     -1074.8951348233 -3.50E+00
    15 Broy./Diag. 0.40E+00    9.5     0.97548507     -1074.9079486550 -1.28E-02
    16 Broy./Diag. 0.40E+00    9.5     1.20751131     -1074.6605501924  2.47E-01
    17 Broy./Diag. 0.40E+00    9.6     1.19032472     -1074.8206099809 -1.60E-01
    18 Broy./Diag. 0.40E+00    9.8     1.07002856     -1076.7044237062 -1.88E+00
    19 Broy./Diag. 0.40E+00    9.4     1.37192286     -1074.2749956559  2.43E+00
    20 Broy./Diag. 0.40E+00    9.6     1.43783225     -1078.0769744420 -3.80E+00
    21 Broy./Diag. 0.40E+00    9.6     0.42482657     -1076.0760227408  2.00E+00
    22 Broy./Diag. 0.40E+00    9.5     1.18088038     -1075.4788162982  5.97E-01
    23 Broy./Diag. 0.40E+00    9.6     1.24560741     -1075.6037215520 -1.25E-01
    24 Broy./Diag. 0.40E+00    9.6     0.22027114     -1073.4617968674  2.14E+00
    25 Broy./Diag. 0.40E+00    9.8     1.04249266     -1075.8880122543 -2.43E+00
    26 Broy./Diag. 0.40E+00    9.4     0.98349955     -1076.5044195254 -6.16E-01
    27 Broy./Diag. 0.40E+00    9.6     0.11132275     -1074.3973936620  2.11E+00
    28 Broy./Diag. 0.40E+00    9.7     1.54581433     -1075.4680470377 -1.07E+00
    29 Broy./Diag. 0.40E+00    9.3     1.55932376     -1076.0695975804 -6.02E-01
    30 Broy./Diag. 0.40E+00    9.5     1.41082416     -1076.5970252859 -5.27E-01
    31 Broy./Diag. 0.40E+00    9.7     1.08214710     -1074.2263836617  2.37E+00
    32 Broy./Diag. 0.40E+00    9.5     1.29242141     -1076.9361441549 -2.71E+00
    33 Broy./Diag. 0.40E+00    9.6     1.55878247     -1079.7130498035 -2.78E+00
    34 Broy./Diag. 0.40E+00    9.7     1.58053109     -1076.3848668222  3.33E+00
    35 Broy./Diag. 0.40E+00    9.6     1.19030795     -1075.5168085519  8.68E-01
    36 Broy./Diag. 0.40E+00    9.4     1.27147019     -1076.1102791804 -5.93E-01
    37 Broy./Diag. 0.40E+00    9.5     1.17599532     -1073.2218975593  2.89E+00
    38 Broy./Diag. 0.40E+00    9.6     1.30963109     -1077.5734441695 -4.35E+00
    39 Broy./Diag. 0.40E+00    9.3     1.43823135     -1076.4256645604  1.15E+00
    40 Broy./Diag. 0.40E+00    9.5     1.45921859     -1078.8888844067 -2.46E+00
    41 Broy./Diag. 0.40E+00    9.5     1.34718094     -1075.4685274679  3.42E+00
    42 Broy./Diag. 0.40E+00    9.7     1.20578271     -1076.1574700047 -6.89E-01
    43 Broy./Diag. 0.40E+00    9.7     1.31411559     -1073.0775953264  3.08E+00
    44 Broy./Diag. 0.40E+00    9.7     1.52705938     -1078.2647859661 -5.19E+00
    45 Broy./Diag. 0.40E+00    9.5     1.62270812     -1075.6839367528  2.58E+00
    46 Broy./Diag. 0.40E+00    9.4     0.22790880     -1073.7955899261  1.89E+00
    47 Broy./Diag. 0.40E+00   10.2     1.66045419     -1074.7277668504 -9.32E-01
    48 Broy./Diag. 0.40E+00    9.6     1.69634989     -1077.7390984651 -3.01E+00
    49 Broy./Diag. 0.40E+00    9.5     1.37067640     -1073.9097805075  3.83E+00
    50 Broy./Diag. 0.40E+00    9.5     1.39638774     -1076.7547139856 -2.84E+00
    51 Broy./Diag. 0.40E+00    9.4     0.15050962     -1074.6555371252  2.10E+00
    52 Broy./Diag. 0.40E+00    9.5     0.09047031     -1074.4497624267  2.06E-01
    53 Broy./Diag. 0.40E+00    9.6     1.22923203     -1074.2663468598  1.83E-01
    54 Broy./Diag. 0.40E+00    9.6     1.27453468     -1077.6690896864 -3.40E+00
    55 Broy./Diag. 0.40E+00    9.3     0.99851240     -1074.5536319501  3.12E+00
    56 Broy./Diag. 0.40E+00    9.1     0.88085335     -1076.3237866076 -1.77E+00
    57 Broy./Diag. 0.40E+00    8.9     1.08193727     -1074.6944022513  1.63E+00
    58 Broy./Diag. 0.40E+00    9.0     1.10111305     -1078.2342944687 -3.54E+00
    59 Broy./Diag. 0.40E+00    9.5     0.98304711     -1074.5346817110  3.70E+00
    60 Broy./Diag. 0.40E+00    9.4     1.31037035     -1077.6124084112 -3.08E+00
    61 Broy./Diag. 0.40E+00    9.5     1.43431095     -1076.2715543780  1.34E+00
    62 Broy./Diag. 0.40E+00   10.0     0.95114454     -1074.2949704896  1.98E+00
    63 Broy./Diag. 0.40E+00    9.6     1.31466920     -1076.6197520829 -2.32E+00
    64 Broy./Diag. 0.40E+00    9.5     1.53734406     -1077.3353938348 -7.16E-01
    65 Broy./Diag. 0.40E+00    9.5     1.17170333     -1076.0888299769  1.25E+00
    66 Broy./Diag. 0.40E+00    9.6     1.02784891     -1075.9964724802  9.24E-02
    67 Broy./Diag. 0.40E+00    9.6     0.22938173     -1074.0306736985  1.97E+00
    68 Broy./Diag. 0.40E+00    9.4     1.08206518     -1075.0628627593 -1.03E+00
    69 Broy./Diag. 0.40E+00    9.4     1.10050523     -1076.0028205590 -9.40E-01
    70 Broy./Diag. 0.40E+00    9.6     1.55026042     -1074.3183023586  1.68E+00
    71 Broy./Diag. 0.40E+00    9.5     1.56540360     -1076.7442685184 -2.43E+00
    72 Broy./Diag. 0.40E+00    9.3     0.85284347     -1075.2822181681  1.46E+00
    73 Broy./Diag. 0.40E+00    9.0     1.32201414     -1076.2673321639 -9.85E-01
    74 Broy./Diag. 0.40E+00    8.8     1.40028392     -1076.3150546746 -4.77E-02
    75 Broy./Diag. 0.40E+00    8.9     1.07254128     -1075.8215703495  4.93E-01
    76 Broy./Diag. 0.40E+00    9.0     0.31174984     -1073.6878538430  2.13E+00
    77 Broy./Diag. 0.40E+00    8.7     1.27554152     -1075.6049815624 -1.92E+00
    78 Broy./Diag. 0.40E+00    8.8     1.30859650     -1076.1668656014 -5.62E-01
    79 Broy./Diag. 0.40E+00    9.5     1.11427459     -1076.1503011276  1.66E-02
    80 Broy./Diag. 0.40E+00    9.5     1.56081538     -1074.3750873914  1.78E+00
    81 Broy./Diag. 0.40E+00    9.6     1.55900413     -1076.9471621562 -2.57E+00
    82 Broy./Diag. 0.40E+00    9.8     1.69182390     -1075.0006483666  1.95E+00
    83 Broy./Diag. 0.40E+00    9.5     1.69781958     -1078.0504549087 -3.05E+00
    84 Broy./Diag. 0.40E+00    9.8     1.49170390     -1077.0231581839  1.03E+00
    85 Broy./Diag. 0.40E+00    9.7     1.06859949     -1075.8616413597  1.16E+00
    86 Broy./Diag. 0.40E+00    9.4     0.33250805     -1073.6835690027  2.18E+00
    87 Broy./Diag. 0.40E+00    9.4     0.24780359     -1075.4843238335 -1.80E+00
    88 Broy./Diag. 0.40E+00    9.7     1.10135284     -1074.6803022114  8.04E-01
    89 Broy./Diag. 0.40E+00    9.7     1.11354687     -1076.2146433300 -1.53E+00
    90 Broy./Diag. 0.40E+00    9.8     0.93894370     -1074.4069296330  1.81E+00
    91 Broy./Diag. 0.40E+00    9.5     1.31772089     -1076.7394882384 -2.33E+00
    92 Broy./Diag. 0.40E+00    9.3     1.38058496     -1076.5059451758  2.34E-01
    93 Broy./Diag. 0.40E+00    9.1     1.06494324     -1074.7924030256  1.71E+00
    94 Broy./Diag. 0.40E+00    8.9     1.54522386     -1076.9034302329 -2.11E+00
    95 Broy./Diag. 0.40E+00    9.0     1.59242310     -1076.0742705849  8.29E-01
    96 Broy./Diag. 0.40E+00    9.1     0.16864498     -1074.2263438707  1.85E+00
    97 Broy./Diag. 0.40E+00    9.5     0.80934492     -1075.1558364007 -9.29E-01
    98 Broy./Diag. 0.40E+00    9.5     1.10466889     -1075.9024290708 -7.47E-01
    99 Broy./Diag. 0.40E+00    9.7     1.13559987     -1076.0198874071 -1.17E-01
   100 Broy./Diag. 0.40E+00    9.6     1.01310038     -1074.4135226833  1.61E+00
   101 Broy./Diag. 0.40E+00    9.7     1.34012253     -1077.1115084355 -2.70E+00
   102 Broy./Diag. 0.40E+00    9.7     1.39048398     -1076.1900048213  9.22E-01
   103 Broy./Diag. 0.40E+00    9.3     1.08998143     -1076.1142876605  7.57E-02
   104 Broy./Diag. 0.40E+00    9.6     1.56240956     -1076.2124440137 -9.82E-02
   105 Broy./Diag. 0.40E+00    9.5     1.59433768     -1077.2363820188 -1.02E+00
   106 Broy./Diag. 0.40E+00    9.3     1.15692542     -1073.4028838435  3.83E+00
   107 Broy./Diag. 0.40E+00    9.1     1.44270057     -1077.5187282366 -4.12E+00
   108 Broy./Diag. 0.40E+00    8.9     1.24292055     -1077.1982259232  3.21E-01
   109 Broy./Diag. 0.40E+00    8.7     1.61176439     -1076.4618324561  7.36E-01
   110 Broy./Diag. 0.40E+00    9.0     1.67996125     -1076.0641677111  3.98E-01
   111 Broy./Diag. 0.40E+00    9.4     1.74536963     -1075.3947524129  6.69E-01
   112 Broy./Diag. 0.40E+00    9.6     1.56899305     -1075.8255713698 -4.31E-01
   113 Broy./Diag. 0.40E+00    9.4     0.99534303     -1075.4300248750  3.96E-01
   114 Broy./Diag. 0.40E+00    9.6     1.11718112     -1075.9514804574 -5.21E-01
   115 Broy./Diag. 0.40E+00    9.4     1.26566047     -1075.6673778070  2.84E-01
   116 Broy./Diag. 0.40E+00    9.8     0.34515507     -1071.2905960794  4.38E+00
   117 Broy./Diag. 0.40E+00    9.6     1.19211508     -1076.2486943892 -4.96E+00
   118 Broy./Diag. 0.40E+00    9.5     1.37749078     -1077.0097494207 -7.61E-01
   119 Broy./Diag. 0.40E+00    9.5     0.79732419     -1074.1169305752  2.89E+00
   120 Broy./Diag. 0.40E+00    9.5     0.81397318     -1076.0608546329 -1.94E+00
   121 Broy./Diag. 0.40E+00    9.5     1.40341761     -1074.4686736821  1.59E+00
   122 Broy./Diag. 0.40E+00    9.5     1.43567049     -1076.9971387531 -2.53E+00
   123 Broy./Diag. 0.40E+00    9.6     1.44821300     -1076.7453501338  2.52E-01
   124 Broy./Diag. 0.40E+00    9.4     1.08907185     -1078.2786659970 -1.53E+00
   125 Broy./Diag. 0.40E+00    9.7     0.24436107     -1074.0015557526  4.28E+00
   126 Broy./Diag. 0.40E+00    9.8     0.13750308     -1074.5816725409 -5.80E-01
   127 Broy./Diag. 0.40E+00    9.6     1.14141382     -1074.3967310043  1.85E-01
   128 Broy./Diag. 0.40E+00    9.5     1.51237027     -1077.0358856348 -2.64E+00
   129 Broy./Diag. 0.40E+00    9.7     1.12691975     -1076.0475579220  9.88E-01
   130 Broy./Diag. 0.40E+00    9.4     0.14432664     -1074.1413128469  1.91E+00
   131 Broy./Diag. 0.40E+00    9.7     1.36554337     -1074.7251443726 -5.84E-01
   132 Broy./Diag. 0.40E+00    9.8     1.40440949     -1076.6918372499 -1.97E+00
   133 Broy./Diag. 0.40E+00    9.6     1.07875995     -1076.7926829952 -1.01E-01
   134 Broy./Diag. 0.40E+00    9.5     0.16440726     -1074.4249808548  2.37E+00
   135 Broy./Diag. 0.40E+00    9.6     0.11765768     -1074.5578539320 -1.33E-01
   136 Broy./Diag. 0.40E+00    9.9     1.53586498     -1074.3936190402  1.64E-01
   137 Broy./Diag. 0.40E+00    9.6     1.53356441     -1076.6008394480 -2.21E+00
   138 Broy./Diag. 0.40E+00    9.3     1.52655111     -1077.6248446897 -1.02E+00
   139 Broy./Diag. 0.40E+00    9.5     1.15488811     -1076.0841303651  1.54E+00
   140 Broy./Diag. 0.40E+00    9.8     0.23027804     -1074.0977188806  1.99E+00
   141 Broy./Diag. 0.40E+00    9.8     1.54607138     -1075.0346647980 -9.37E-01
   142 Broy./Diag. 0.40E+00    9.4     1.55743026     -1076.4101721499 -1.38E+00
   143 Broy./Diag. 0.40E+00    9.9     1.05284266     -1077.6758542497 -1.27E+00
   144 Broy./Diag. 0.40E+00    9.4     1.55610952     -1074.2888226646  3.39E+00
   145 Broy./Diag. 0.40E+00    9.9     1.56099677     -1076.0487144427 -1.76E+00
   146 Broy./Diag. 0.40E+00    9.5     0.98561387     -1076.1952252789 -1.47E-01
   147 Broy./Diag. 0.40E+00    9.4     1.05845907     -1075.9421695902  2.53E-01
   148 Broy./Diag. 0.40E+00    9.3     1.33587616     -1074.3938945883  1.55E+00
   149 Broy./Diag. 0.40E+00    9.4     1.37170662     -1076.6220686338 -2.23E+00
   150 Broy./Diag. 0.40E+00    9.4     0.15942391     -1074.9253622196  1.70E+00
   151 Broy./Diag. 0.40E+00    9.4     1.68187631     -1074.4003240904  5.25E-01
   152 Broy./Diag. 0.40E+00    9.4     1.70171981     -1076.5770444393 -2.18E+00
   153 Broy./Diag. 0.40E+00    9.7     1.44958543     -1077.1111289623 -5.34E-01
   154 Broy./Diag. 0.40E+00    9.6     1.56532307     -1076.1975798391  9.14E-01
   155 Broy./Diag. 0.40E+00    9.5     1.60682510     -1075.5566185075  6.41E-01
   156 Broy./Diag. 0.40E+00    9.5     1.12275964     -1073.9007473447  1.66E+00
   157 Broy./Diag. 0.40E+00    9.4     1.20844355     -1077.6081501963 -3.71E+00
   158 Broy./Diag. 0.40E+00    9.2     0.36135585     -1075.2073680237  2.40E+00
   159 Broy./Diag. 0.40E+00    9.7     0.13744013     -1074.7609210722  4.46E-01
   160 Broy./Diag. 0.40E+00    9.4     0.17897252     -1073.9374905390  8.23E-01
   161 Broy./Diag. 0.40E+00    9.4     0.89165392     -1074.9558832191 -1.02E+00
   162 Broy./Diag. 0.40E+00    9.4     1.04221012     -1076.3350258220 -1.38E+00
   163 Broy./Diag. 0.40E+00    9.9     1.45097452     -1076.8888574551 -5.54E-01
   164 Broy./Diag. 0.40E+00    9.6     1.14151446     -1076.1579250352  7.31E-01
   165 Broy./Diag. 0.40E+00    9.6     1.33533486     -1074.2072963486  1.95E+00
   166 Broy./Diag. 0.40E+00    9.6     1.37899706     -1076.8700871800 -2.66E+00
   167 Broy./Diag. 0.40E+00    9.7     1.22028193     -1077.1044489391 -2.34E-01
   168 Broy./Diag. 0.40E+00    9.8     1.08163034     -1074.6633948783  2.44E+00
   169 Broy./Diag. 0.40E+00    9.2     1.11391718     -1076.0619725304 -1.40E+00
   170 Broy./Diag. 0.40E+00    9.6     0.25277292     -1074.7000787578  1.36E+00
   171 Broy./Diag. 0.40E+00    9.5     0.89921457     -1074.3416486576  3.58E-01
   172 Broy./Diag. 0.40E+00    9.5     1.01049534     -1076.2248541114 -1.88E+00
   173 Broy./Diag. 0.40E+00    9.7     1.39672729     -1076.8598998782 -6.35E-01
   174 Broy./Diag. 0.40E+00    9.6     1.16181282     -1076.1553520628  7.05E-01
   175 Broy./Diag. 0.40E+00    9.3     1.55651114     -1074.2686786204  1.89E+00
   176 Broy./Diag. 0.40E+00    9.3     1.55920556     -1078.3056193886 -4.04E+00
   177 Broy./Diag. 0.40E+00    9.3     1.15630060     -1077.0667759364  1.24E+00
   178 Broy./Diag. 0.40E+00    9.5     1.68434339     -1074.3194261157  2.75E+00
   179 Broy./Diag. 0.40E+00    9.7     1.70611160     -1078.2031251052 -3.88E+00
   180 Broy./Diag. 0.40E+00    9.5     1.37958570     -1074.8190227091  3.38E+00
   181 Broy./Diag. 0.40E+00    9.4     1.39089943     -1075.5905441926 -7.72E-01
   182 Broy./Diag. 0.40E+00    9.2     1.06152793     -1073.7484878637  1.84E+00
   183 Broy./Diag. 0.40E+00    8.9     1.13341517     -1077.9205664894 -4.17E+00
   184 Broy./Diag. 0.40E+00    9.2     0.90474753     -1075.0429217770  2.88E+00
   185 Broy./Diag. 0.40E+00    9.5     0.94164404     -1075.9571104577 -9.14E-01
   186 Broy./Diag. 0.40E+00    9.3     0.98882582     -1074.3604458428  1.60E+00
   187 Broy./Diag. 0.40E+00    9.1     1.42090845     -1076.8285670623 -2.47E+00
   188 Broy./Diag. 0.40E+00    9.6     0.99681205     -1076.0010377303  8.28E-01
   189 Broy./Diag. 0.40E+00    9.6     0.17891081     -1074.3136064335  1.69E+00
   190 Broy./Diag. 0.40E+00    9.8     1.54950768     -1074.8388917496 -5.25E-01
   191 Broy./Diag. 0.40E+00    9.7     1.56034591     -1076.2175087643 -1.38E+00
   192 Broy./Diag. 0.40E+00    9.7     1.11204418     -1074.7722234689  1.45E+00
   193 Broy./Diag. 0.40E+00    9.3     1.14042164     -1078.1676764005 -3.40E+00
   194 Broy./Diag. 0.40E+00    9.4     1.39315782     -1074.2235212405  3.94E+00
   195 Broy./Diag. 0.40E+00    9.3     1.37127767     -1076.9794703537 -2.76E+00
   196 Broy./Diag. 0.40E+00    9.6     1.11202216     -1075.0733445337  1.91E+00
   197 Broy./Diag. 0.40E+00    9.5     1.13136207     -1078.6674885270 -3.59E+00
   198 Broy./Diag. 0.40E+00    9.5     1.70091761     -1074.5093258203  4.16E+00
   199 Broy./Diag. 0.40E+00    9.4     1.72033174     -1077.6898233508 -3.18E+00
   200 Broy./Diag. 0.40E+00    9.4     1.01320756     -1073.9895064578  3.70E+00
   201 Broy./Diag. 0.40E+00    9.2     1.12645109     -1077.2198432009 -3.23E+00
   202 Broy./Diag. 0.40E+00    9.7     0.15906072     -1075.6731793533  1.55E+00
   203 Broy./Diag. 0.40E+00    9.6     0.20715489     -1074.0578779767  1.62E+00
   204 Broy./Diag. 0.40E+00    9.4     1.36990419     -1074.7436026397 -6.86E-01
   205 Broy./Diag. 0.40E+00    9.4     1.38491589     -1076.6444253455 -1.90E+00
   206 Broy./Diag. 0.40E+00    9.5     1.01581666     -1074.7606930677  1.88E+00
   207 Broy./Diag. 0.40E+00    9.7     0.97432680     -1079.3885217417 -4.63E+00
   208 Broy./Diag. 0.40E+00    9.5     1.54825163     -1074.8734511212  4.52E+00
   209 Broy./Diag. 0.40E+00    9.3     1.56693728     -1077.7695905971 -2.90E+00
   210 Broy./Diag. 0.40E+00    9.1     0.79205511     -1074.7115448777  3.06E+00
   211 Broy./Diag. 0.40E+00    9.4     1.25578334     -1076.2521789243 -1.54E+00
   212 Broy./Diag. 0.40E+00    9.4     1.19629027     -1076.0716286258  1.81E-01
   213 Broy./Diag. 0.40E+00    9.1     1.68084234     -1075.8748537688  1.97E-01
   214 Broy./Diag. 0.40E+00    9.1     1.76608106     -1077.9611882613 -2.09E+00
   215 Broy./Diag. 0.40E+00    9.5     1.51296564     -1077.4469696010  5.14E-01
   216 Broy./Diag. 0.40E+00    9.6     1.20799448     -1076.3939581492  1.05E+00
   217 Broy./Diag. 0.40E+00    9.8     0.68335268     -1072.8984469569  3.50E+00
   218 Broy./Diag. 0.40E+00    9.5     0.60063333     -1076.0698690582 -3.17E+00
   219 Broy./Diag. 0.40E+00    9.4     0.89102780     -1074.7334221824  1.34E+00
   220 Broy./Diag. 0.40E+00    9.5     1.25607707     -1076.3947290982 -1.66E+00
   221 Broy./Diag. 0.40E+00   10.1     1.54703018     -1076.3037197953  9.10E-02
   222 Broy./Diag. 0.40E+00    9.6     1.60260718     -1076.1222436814  1.81E-01
   223 Broy./Diag. 0.40E+00    9.5     1.36199920     -1074.1356070081  1.99E+00
   224 Broy./Diag. 0.40E+00    9.5     1.39715471     -1078.4916100536 -4.36E+00
   225 Broy./Diag. 0.40E+00    9.6     1.35334902     -1076.4700895116  2.02E+00
   226 Broy./Diag. 0.40E+00    9.4     1.43663602     -1076.8177606598 -3.48E-01
   227 Broy./Diag. 0.40E+00    9.3     1.34121507     -1075.8704839172  9.47E-01
   228 Broy./Diag. 0.40E+00    9.7     0.26917132     -1075.1230551850  7.47E-01
   229 Broy./Diag. 0.40E+00    9.4     1.08768927     -1074.1753288104  9.48E-01
   230 Broy./Diag. 0.40E+00    9.8     1.12080377     -1076.7433631980 -2.57E+00
   231 Broy./Diag. 0.40E+00    9.7     1.11821059     -1077.1685012985 -4.25E-01
   232 Broy./Diag. 0.40E+00    9.6     1.68141613     -1074.5771773900  2.59E+00
   233 Broy./Diag. 0.40E+00    9.5     1.69411303     -1076.6697153256 -2.09E+00
   234 Broy./Diag. 0.40E+00    9.5     1.56444241     -1074.9221714225  1.75E+00
   235 Broy./Diag. 0.40E+00    9.7     1.58379772     -1078.0097892542 -3.09E+00
   236 Broy./Diag. 0.40E+00    9.6     1.41328007     -1075.4981901554  2.51E+00
   237 Broy./Diag. 0.40E+00    9.4     1.46911420     -1075.6785838810 -1.80E-01
   238 Broy./Diag. 0.40E+00    9.4     0.99839165     -1073.4827411274  2.20E+00
   239 Broy./Diag. 0.40E+00    9.6     1.68954396     -1077.2793989304 -3.80E+00
   240 Broy./Diag. 0.40E+00    9.6     1.70279843     -1077.2423832127  3.70E-02
   241 Broy./Diag. 0.40E+00    9.5     1.58345070     -1078.1200926717 -8.78E-01
   242 Broy./Diag. 0.40E+00    9.6     1.58950572     -1076.0947580106  2.03E+00
   243 Broy./Diag. 0.40E+00    9.6     1.55850480     -1077.2001924296 -1.11E+00
   244 Broy./Diag. 0.40E+00    9.6     1.29385810     -1074.5384365701  2.66E+00
   245 Broy./Diag. 0.40E+00    9.6     1.18536536     -1078.5174778379 -3.98E+00
   246 Broy./Diag. 0.40E+00    9.6     1.27467458     -1073.5739836359  4.94E+00
   247 Broy./Diag. 0.40E+00    9.5     1.60910984     -1077.4251160646 -3.85E+00
   248 Broy./Diag. 0.40E+00    9.4     1.63269788     -1076.7255796330  7.00E-01
   249 Broy./Diag. 0.40E+00    9.1     0.96381761     -1074.1700627889  2.56E+00
   250 Broy./Diag. 0.40E+00    8.9     1.00418389     -1076.5010747174 -2.33E+00
   251 Broy./Diag. 0.40E+00    9.1     0.24547392     -1074.2708012203  2.23E+00
   252 Broy./Diag. 0.40E+00    8.8     1.06915544     -1074.7401429682 -4.69E-01
   253 Broy./Diag. 0.40E+00    8.8     1.10821833     -1075.7080547686 -9.68E-01
   254 Broy./Diag. 0.40E+00    8.9     1.08069897     -1073.8379364542  1.87E+00
   255 Broy./Diag. 0.40E+00    9.6     1.45109244     -1077.5853425895 -3.75E+00
   256 Broy./Diag. 0.40E+00    9.6     1.14986797     -1076.8361155151  7.49E-01
   257 Broy./Diag. 0.40E+00    9.5     1.63305998     -1077.6477002217 -8.12E-01
   258 Broy./Diag. 0.40E+00    9.3     1.66603290     -1076.0425470091  1.61E+00
   259 Broy./Diag. 0.40E+00    9.7     1.32157109     -1075.3837896994  6.59E-01
   260 Broy./Diag. 0.40E+00    9.7     1.46742042     -1075.8030431265 -4.19E-01
   261 Broy./Diag. 0.40E+00    9.4     0.40569253     -1073.7921949891  2.01E+00
   262 Broy./Diag. 0.40E+00    9.3     0.19525627     -1074.8306722423 -1.04E+00
   263 Broy./Diag. 0.40E+00    9.6     0.12921110     -1074.0879448706  7.43E-01
   264 Broy./Diag. 0.40E+00    9.7     0.89190542     -1075.0228192667 -9.35E-01
   265 Broy./Diag. 0.40E+00    9.5     1.00155613     -1076.6272700414 -1.60E+00
   266 Broy./Diag. 0.40E+00    9.6     1.02702195     -1074.4342671671  2.19E+00
   267 Broy./Diag. 0.40E+00    9.8     1.54583963     -1077.0397182747 -2.61E+00
   268 Broy./Diag. 0.40E+00    9.6     1.57340081     -1076.4021671430  6.38E-01
   269 Broy./Diag. 0.40E+00    9.4     1.34408404     -1074.7967869729  1.61E+00
   270 Broy./Diag. 0.40E+00    9.5     1.36698871     -1077.8812885349 -3.08E+00
   271 Broy./Diag. 0.40E+00    9.8     1.11203890     -1074.2381638972  3.64E+00
   272 Broy./Diag. 0.40E+00    9.7     1.09997054     -1078.6941350874 -4.46E+00
   273 Broy./Diag. 0.40E+00    9.6     1.67148145     -1074.8979690637  3.80E+00
   274 Broy./Diag. 0.40E+00    9.5     1.69838289     -1076.2187857642 -1.32E+00
   275 Broy./Diag. 0.40E+00    9.4     1.10343261     -1076.4668720325 -2.48E-01
   276 Broy./Diag. 0.40E+00    9.5     1.15779763     -1074.0388279375  2.43E+00
   277 Broy./Diag. 0.40E+00    9.6     1.56617843     -1077.6515433880 -3.61E+00
   278 Broy./Diag. 0.40E+00    9.6     1.58664743     -1076.3076368234  1.34E+00
   279 Broy./Diag. 0.40E+00    9.3     1.38955730     -1074.7479771227  1.56E+00
   280 Broy./Diag. 0.40E+00    9.2     1.38479881     -1076.3621967680 -1.61E+00
   281 Broy./Diag. 0.40E+00    9.5     1.07990692     -1074.5434134969  1.82E+00
   282 Broy./Diag. 0.40E+00    9.5     1.10367418     -1077.5310284262 -2.99E+00
   283 Broy./Diag. 0.40E+00    9.4     1.61075904     -1074.1862508522  3.34E+00
   284 Broy./Diag. 0.40E+00    9.6     1.62998404     -1077.0497489840 -2.86E+00
   285 Broy./Diag. 0.40E+00    9.6     1.35996293     -1076.8838678183  1.66E-01
   286 Broy./Diag. 0.40E+00    9.9     1.10571444     -1076.3249241204  5.59E-01
   287 Broy./Diag. 0.40E+00    9.5     1.70119412     -1076.8383759166 -5.13E-01
   288 Broy./Diag. 0.40E+00    9.4     1.76756140     -1075.6356790313  1.20E+00
   289 Broy./Diag. 0.40E+00    9.4     0.43188274     -1073.3937838194  2.24E+00
   290 Broy./Diag. 0.40E+00    9.5     0.29246046     -1075.7396730460 -2.35E+00
   291 Broy./Diag. 0.40E+00    9.6     1.05226908     -1074.1956751882  1.54E+00
   292 Broy./Diag. 0.40E+00    9.3     1.05070581     -1077.6362611412 -3.44E+00
   293 Broy./Diag. 0.40E+00    9.1     1.33796355     -1074.5785160311  3.06E+00
   294 Broy./Diag. 0.40E+00    9.7     1.35919717     -1076.3588083731 -1.78E+00
   295 Broy./Diag. 0.40E+00    9.7     1.39048897     -1076.7445908401 -3.86E-01
   296 Broy./Diag. 0.40E+00    9.6     1.09475657     -1076.0913454562  6.53E-01
   297 Broy./Diag. 0.40E+00    9.6     1.48797670     -1076.4090069152 -3.18E-01
   298 Broy./Diag. 0.40E+00    9.3     1.17942103     -1075.6713530369  7.38E-01
   299 Broy./Diag. 0.40E+00    9.4     0.28234089     -1073.6549425293  2.02E+00
   300 Broy./Diag. 0.40E+00   10.1     0.21049226     -1075.5214041056 -1.87E+00

  Leaving inner SCF loop after reaching   300 steps.


  Electronic density on regular grids:       -511.9999872433        0.0000127567
  Core density on regular grids:              512.0000683872        0.0000683872
  Total charge density on r-space grids:        0.0000811439
  Total charge density g-space grids:           0.0000811439

  Overlap energy of the core charge distribution:               0.00000000000000
  Self energy of the core charge distribution:              -2838.21791979120962
  Core Hamiltonian energy:                                    759.06442149008694
  Hartree energy:                                            1241.60270827078034
  Exchange-correlation energy:                               -237.97061407530606

  Total energy:                                             -1075.52140410564812

 *** WARNING in qs_scf.F:542 :: SCF run NOT converged ***


 ENERGY| Total FORCE_EVAL ( QS ) energy (a.u.):            -1074.974056985102379


 ATOMIC FORCES in [a.u.]

 # Atom   Kind   Element          X              Y              Z
      1      1      O          -0.10330180     0.01682098     0.05050348
      2      2      H           0.00097678    -0.06282018    -0.07252950
      3      2      H           0.07987797    -0.01269172     0.04044882
      4      1      O          -0.01515950    -0.00244433     0.10620964
      5      2      H          -0.03522634    -0.06093015    -0.04021725
      6      2      H           0.01771090     0.07254412    -0.03725413
      7      1      O           0.08288853     0.06018497    -0.03087256
      8      2      H          -0.03858473     0.05061635     0.06252069
      9      2      H          -0.02352862    -0.06342812    -0.05697443
     10      1      O          -0.00237429    -0.13906164     0.03104812
     11      2      H          -0.06327920     0.05823849     0.00921889
     12      2      H           0.03737746     0.03588255     0.02235765
     13      1      O          -0.08846991     0.01380754     0.09403781
     14      2      H          -0.00612565     0.00557190    -0.05163283
     15      2      H           0.08578880    -0.00196045     0.01085739
     16      1      O          -0.03123536    -0.02227675     0.03589291
     17      2      H           0.03900547    -0.02446643     0.02977954
     18      2      H          -0.01232685     0.08837560    -0.02754151
     19      1      O          -0.01855529    -0.04334564     0.03877549
     20      2      H          -0.03791275     0.01543503    -0.02112145
     21      2      H           0.03434286    -0.05689002    -0.06912908
     22      1      O          -0.03619331     0.00459644    -0.02965543
     23      2      H          -0.07065685    -0.03435705     0.04531882
     24      2      H           0.03607604    -0.00721455     0.05173034
     25      1      O          -0.05127030    -0.06230738    -0.00439566
     26      2      H           0.03024803     0.04314515    -0.05358331
     27      2      H          -0.04552288     0.06373376     0.01292694
     28      1      O           0.10828160     0.05370311     0.02901095
     29      2      H          -0.05180211     0.05403035    -0.08507176
     30      2      H          -0.04342488    -0.08075448     0.01633980
     31      1      O          -0.08063373    -0.08839263     0.00009194
     32      2      H           0.00539748     0.05447717     0.04056466
     33      2      H           0.06523265    -0.01907187    -0.01706068
     34      1      O          -0.02122865    -0.00069500    -0.05562346
     35      2      H           0.07963357     0.03595135    -0.01823020
     36      2      H          -0.00055957    -0.04887502     0.06612357
     37      1      O           0.06375983     0.02067247    -0.05023381
     38      2      H          -0.04865473     0.01717249    -0.06230429
     39      2      H          -0.02212186     0.01888286     0.06517087
     40      1      O           0.00257528    -0.05137354     0.07880131
     41      2      H           0.00694579     0.08578867     0.03032469
     42      2      H           0.04329396     0.00331856    -0.04852110
     43      1      O           0.00929062    -0.02469953     0.07036626
     44      2      H          -0.06307468     0.02102309    -0.03684657
     45      2      H           0.05817969    -0.03955253    -0.01589323
     46      1      O          -0.01428532    -0.06180000    -0.03380967
     47      2      H          -0.06085530     0.05952704    -0.02212993
     48      2      H           0.06445859     0.00457962    -0.02160107
     49      1      O           0.06613732     0.02628217     0.09471389
     50      2      H          -0.01265879    -0.06907513    -0.02428594
     51      2      H          -0.04559198     0.05734951    -0.02223317
     52      1      O          -0.07885456    -0.07370646     0.06388875
     53      2      H           0.03597245     0.08150870     0.01092557
     54      2      H           0.03732008    -0.01504382    -0.04266891
     55      1      O          -0.03318757    -0.04909667     0.07277809
     56      2      H          -0.00128241     0.01141952    -0.08280960
     57      2      H           0.06613495     0.03679942     0.03947739
     58      1      O          -0.00419214    -0.02256827     0.06384965
     59      2      H          -0.01141309    -0.03802583    -0.08313585
     60      2      H          -0.00399582     0.08060647    -0.00511543
     61      1      O          -0.12087291     0.04164715    -0.02777941
     62      2      H           0.04535588     0.07577361     0.00288705
     63      2      H           0.03981937    -0.06528501     0.02072530
     64      1      O           0.07936675    -0.01791016     0.00486279
     65      2      H          -0.04870015     0.02674793    -0.01563725
     66      2      H           0.00133513     0.03358626     0.01397688
     67      1      O          -0.11681021     0.00737141    -0.02658798
     68      2      H           0.03358356    -0.06313566     0.02194704
     69      2      H           0.04117216     0.08414722    -0.02063219
     70      1      O          -0.05619393     0.03883937     0.02680860
     71      2      H           0.01510022    -0.05607283    -0.02161390
     72      2      H           0.06642432     0.04887484     0.04044261
     73      1      O          -0.10386305     0.01742273    -0.06380245
     74      2      H           0.02547113     0.03475329     0.03462815
     75      2      H           0.04828411    -0.02684205    -0.00559572
     76      1      O          -0.02170889     0.01535003     0.08874671
     77      2      H           0.06922140    -0.00262977    -0.06173305
     78      2      H          -0.04693056     0.01230088    -0.02628043
     79      1      O          -0.03511391    -0.00358611    -0.04534084
     80      2      H           0.01123527     0.08495452     0.01831113
     81      2      H           0.03299246    -0.08303345    -0.01054463
     82      1      O           0.10785262    -0.08256749     0.04803136
     83      2      H          -0.05943526     0.03287610     0.01007227
     84      2      H           0.00028514     0.02549924    -0.06118626
     85      1      O           0.03434236    -0.00934681     0.04333834
     86      2      H           0.00721600    -0.05302387    -0.06564145
     87      2      H          -0.01717954     0.06653723    -0.01151105
     88      1      O           0.04525477     0.00601070     0.04319327
     89      2      H          -0.01544056     0.05487372    -0.02592469
     90      2      H          -0.07767318    -0.01855311     0.03519482
     91      1      O           0.07650860    -0.00686449    -0.00406569
     92      2      H          -0.03315458     0.01870910     0.00867726
     93      2      H           0.02007032     0.00170536    -0.06064187
     94      1      O          -0.01657603    -0.03759625     0.00190657
     95      2      H          -0.01448932     0.06106813    -0.05057561
     96      2      H           0.00150918     0.01239519     0.07044027
     97      1      O          -0.06957703    -0.03399485    -0.07386022
     98      2      H          -0.01368842     0.03548342     0.06654480
     99      2      H           0.02182654    -0.00012056     0.00248937
    100      1      O           0.03133122    -0.03417477     0.13641547
    101      2      H          -0.04862509    -0.06880320    -0.06598033
    102      2      H           0.03642700     0.06062843    -0.05127910
    103      1      O          -0.01072056    -0.00750651     0.03586866
    104      2      H           0.04000397     0.04161058    -0.06141097
    105      2      H           0.02222540    -0.06447623     0.05131473
    106      1      O           0.05002488    -0.02223843     0.10808059
    107      2      H          -0.06494459    -0.00425906    -0.06570672
    108      2      H           0.05295926     0.04276764     0.00965726
    109      1      O           0.04372301    -0.02474244     0.00068801
    110      2      H          -0.05935444     0.05348436     0.00824033
    111      2      H           0.05264820     0.02966573    -0.03733853
    112      1      O          -0.07071375    -0.05592530     0.03495479
    113      2      H           0.02612686     0.03337602    -0.04513319
    114      2      H           0.03635609    -0.05040064     0.03873806
    115      1      O           0.01589449    -0.07025475     0.04420347
    116      2      H           0.03434690    -0.00990348    -0.06789098
    117      2      H          -0.04021324     0.06091831     0.02162017
    118      1      O           0.03849442    -0.09593879     0.02082696
    119      2      H          -0.03521778    -0.00648521     0.06609931
    120      2      H          -0.02329467     0.02271847    -0.03613669
    121      1      O          -0.08954844    -0.01476269     0.05694325
    122      2      H          -0.02229716    -0.01589923    -0.05977359
    123      2      H           0.04137736     0.02075354    -0.01446060
    124      1      O          -0.11022879     0.02320608    -0.00096520
    125      2      H           0.04475028     0.02165001    -0.05313769
    126      2      H           0.04935989    -0.05290611     0.02292459
    127      1      O           0.04838796    -0.10591699    -0.02181760
    128      2      H           0.01481355     0.01274377    -0.05115737
    129      2      H          -0.04552883     0.02232634     0.05580486
    130      1      O           0.01372924     0.11387057     0.04514475
    131      2      H           0.06305399    -0.01044362     0.01701389
    132      2      H          -0.05049013    -0.02071609    -0.06033914
    133      1      O          -0.04086815    -0.08924882    -0.01200648
    134      2      H           0.02548385     0.06044709    -0.03324543
    135      2      H          -0.02680499     0.04169152     0.02376593
    136      1      O          -0.07503312    -0.00852353    -0.01668179
    137      2      H          -0.00240358     0.03953768     0.03890204
    138      2      H           0.03551633    -0.00777457    -0.06058174
    139      1      O          -0.08505402    -0.04073470     0.05276248
    140      2      H           0.07825850     0.04248498    -0.02767223
    141      2      H           0.03953207    -0.05105341    -0.02685790
    142      1      O           0.00301271    -0.04577574    -0.11886894
    143      2      H          -0.02375516     0.04049900     0.06403277
    144      2      H           0.04849752    -0.04000045     0.03910607
    145      1      O          -0.01801469     0.01859521     0.11608769
    146      2      H           0.06214474     0.00952078    -0.03782882
    147      2      H          -0.07044844    -0.00816371    -0.01369980
    148      1      O          -0.00643585    -0.09405810    -0.08390885
    149      2      H          -0.06886388     0.03151404     0.01122587
    150      2      H           0.04793326     0.07717297    -0.00540801
    151      1      O          -0.10539416    -0.06998101    -0.03733223
    152      2      H           0.04920627     0.00016857     0.07660758
    153      2      H           0.02699836     0.01840067    -0.08705483
    154      1      O           0.02208480    -0.02734460     0.09755098
    155      2      H           0.02710561     0.05655459    -0.05792515
    156      2      H          -0.04217547     0.00779763    -0.04239054
    157      1      O          -0.06820097    -0.06860751     0.04846941
    158      2      H           0.00214626     0.06800415    -0.03241298
    159      2      H           0.06132294    -0.01526863    -0.02635843
    160      1      O          -0.06188709     0.00711121     0.03139347
    161      2      H           0.05499210    -0.02671622     0.01803818
    162      2      H          -0.02628703    -0.00967278    -0.06093330
    163      1      O          -0.09282019     0.02683198     0.01703943
    164      2      H           0.02193733     0.07690034     0.00336787
    165      2      H           0.02249417    -0.05300062    -0.02593505
    166      1      O           0.03768062    -0.12791678    -0.00331370
    167      2      H          -0.05558667     0.04018375     0.04833743
    168      2      H           0.06776667     0.04482979     0.00073226
    169      1      O           0.04332904     0.04430779     0.04149328
    170      2      H          -0.01651649    -0.07862123    -0.00730321
    171      2      H          -0.07020470     0.03877940     0.00752254
    172      1      O          -0.05042826     0.09844107    -0.03346537
    173      2      H          -0.02442344    -0.04468083     0.06749445
    174      2      H           0.04034241    -0.02754056    -0.04381634
    175      1      O           0.03080889    -0.08451238    -0.03803917
    176      2      H           0.04562167     0.06884469    -0.02038906
    177      2      H          -0.05963352     0.06097254    -0.00474624
    178      1      O          -0.02785780    -0.07445485    -0.10421908
    179      2      H          -0.01825961     0.06171215     0.00520655
    180      2      H           0.01841402     0.01102518     0.07656523
    181      1      O           0.00216662    -0.11571728     0.08391547
    182      2      H           0.05105927     0.03085108     0.00101993
    183      2      H          -0.01385686     0.04033253    -0.04297338
    184      1      O          -0.07449033    -0.07544807     0.02841247
    185      2      H           0.01030105     0.08905437    -0.05529109
    186      2      H           0.06264772    -0.03411251     0.05015679
    187      1      O          -0.06114061    -0.05207671     0.00535256
    188      2      H           0.01111236     0.04040099     0.06931015
    189      2      H           0.04128707     0.04380605    -0.05593921
    190      1      O           0.06214107    -0.00196056     0.06257159
    191      2      H           0.04908920     0.00197863    -0.08565895
    192      2      H          -0.07750832     0.06309270     0.01789452
 SUM OF ATOMIC FORCES          -0.24087675     0.10433050     0.06993116     0.27165572

 -------------------------------------------------------------------------------
 -                                                                             -
 -                                DBCSR STATISTICS                             -
 -                                                                             -
 -------------------------------------------------------------------------------
 COUNTER                                    TOTAL       BLAS       SMM       ACC
 flops     5 x     5 x   256           5266777600       0.0%    100.0%      0.0%
 flops    13 x     5 x   256           6551301120       0.0%    100.0%      0.0%
 flops     5 x    13 x   256           6651473920       0.0%    100.0%      0.0%
 flops    13 x    13 x   256           8803185664       0.0%    100.0%      0.0%
 flops inhomo. stacks                           0       0.0%      0.0%      0.0%
 flops total                        27.272738E+09       0.0%    100.0%      0.0%
 flops max/rank                     27.272738E+09       0.0%    100.0%      0.0%
 matmuls inhomo. stacks                         0       0.0%      0.0%      0.0%
 matmuls total                             909923       0.0%    100.0%      0.0%
 number of processed stacks                 42140       0.0%    100.0%      0.0%
 average stack size                                     0.0      21.6       0.0
 marketing flops                   333.927416E+09
 -------------------------------------------------------------------------------
 # multiplications                            301
 max memory usage/rank               4.993855E+09
 # max total images/rank                        1
 # max 3D layers                                1
 # MPI messages exchanged                       0
 MPI messages size (bytes):
  total size                         0.000000E+00
  min size                           0.000000E+00
  max size                           0.000000E+00
  average size                       0.000000E+00
 MPI breakdown and total messages size (bytes):
             size <=      128                   0                        0
       128 < size <=     8192                   0                        0
      8192 < size <=    32768                   0                        0
     32768 < size <=   131072                   0                        0
    131072 < size <=  4194304                   0                        0
   4194304 < size <= 16777216                   0                        0
  16777216 < size                               0                        0
 -------------------------------------------------------------------------------

 MEMORY| Estimated peak process memory [MiB]                                4757

 -------------------------------------------------------------------------------
 -                                                                             -
 -                           R E F E R E N C E S                               -
 -                                                                             -
 -------------------------------------------------------------------------------
 
 CP2K version 7.1, the CP2K developers group (2019).
 CP2K is freely available from https://www.cp2k.org/ .

 Schuett, Ole; Messmer, Peter; Hutter, Juerg; VandeVondele, Joost. 
 Electronic Structure Calculations on Graphics Processing Units, John
 Wiley & Sons, Ltd, 173-190 (2016). 
 GPU-Accelerated Sparse Matrix-Matrix Multiplication for
 Linear Scaling Density Functional Theory.
 https://dx.doi.org/10.1002/9781118670712.ch8

 Borstnik, U; VandeVondele, J; Weber, V; Hutter, J. 
 PARALLEL COMPUTING, 40 (5-6), 47-58 (2014). 
 Sparse matrix multiplication: The distributed block-compressed sparse
 row library.
 https://dx.doi.org/10.1016/j.parco.2014.03.012

 Hutter, J; Iannuzzi, M; Schiffmann, F; VandeVondele, J. 
 WIREs Comput Mol Sci., 4 (1), 15-25 (2014). 
 CP2K: atomistic simulations of condensed matter systems.
 https://dx.doi.org/10.1002/wcms.1159

 Krack, M. 
 THEORETICAL CHEMISTRY ACCOUNTS, 114 (1-3), 145-152 (2005). 
 Pseudopotentials for H to Kr optimized for gradient-corrected
 exchange-correlation functionals.
 https://dx.doi.org/10.1007/s00214-005-0655-y

 VandeVondele, J; Krack, M; Mohamed, F; Parrinello, M; Chassaing, T;
 Hutter, J. COMPUTER PHYSICS COMMUNICATIONS, 167 (2), 103-128 (2005). 
 QUICKSTEP: Fast and accurate density functional calculations using a
 mixed Gaussian and plane waves approach.
 https://dx.doi.org/10.1016/j.cpc.2004.12.014

 Frigo, M; Johnson, SG. 
 PROCEEDINGS OF THE IEEE, 93 (2), 216-231 (2005). 
 The design and implementation of FFTW3.
 https://dx.doi.org/10.1109/JPROC.2004.840301

 Hartwigsen, C; Goedecker, S; Hutter, J. 
 PHYSICAL REVIEW B, 58 (7), 3641-3662 (1998). 
 Relativistic separable dual-space Gaussian pseudopotentials from H to Rn.
 https://dx.doi.org/10.1103/PhysRevB.58.3641

 Lippert, G; Hutter, J; Parrinello, M. 
 MOLECULAR PHYSICS, 92 (3), 477-487 (1997). 
 A hybrid Gaussian and plane wave density functional scheme.
 https://dx.doi.org/10.1080/002689797170220

 Goedecker, S; Teter, M; Hutter, J. 
 PHYSICAL REVIEW B, 54 (3), 1703-1710 (1996). 
 Separable dual-space Gaussian pseudopotentials.
 https://dx.doi.org/10.1103/PhysRevB.54.1703


 -------------------------------------------------------------------------------
 -                                                                             -
 -                                T I M I N G                                  -
 -                                                                             -
 -------------------------------------------------------------------------------
 SUBROUTINE                       CALLS  ASD         SELF TIME        TOTAL TIME
                                MAXIMUM       AVERAGE  MAXIMUM  AVERAGE  MAXIMUM
 CP2K                                 1  1.0    0.181    0.181 2841.283 2841.283
 qs_forces                            1  2.0    0.000    0.000 2839.221 2839.221
 qs_energies                          1  3.0    0.000    0.000 2838.510 2838.510
 scf_env_do_scf                       1  4.0    0.000    0.000 2836.045 2836.045
 scf_env_do_scf_inner_loop          300  5.0    0.060    0.060 2836.045 2836.045
 qs_scf_new_mos                     300  6.0    0.009    0.009 1994.466 1994.466
 eigensolver                        300  7.0    0.047    0.047 1958.528 1958.528
 cp_fm_syevd                        300  8.0 1267.693 1267.693 1269.456 1269.456
 cp_fm_cholesky_restore             900  8.0  687.967  687.967  687.967  687.967
 gspace_mixing                      299  6.0    6.783    6.783  467.739  467.739
 broyden_mixing                     299  7.0  422.374  422.374  422.378  422.378
 rebuild_ks_matrix                  301  7.0    0.001    0.001  193.531  193.531
 qs_ks_build_kohn_sham_matrix       301  8.0    0.077    0.077  193.529  193.529
 qs_ks_update_qs_env                300  6.0    0.003    0.003  193.343  193.343
 pw_transfer                       3912  9.9    0.340    0.340  184.992  184.992
 fft_wrap_pw1pw2                   3310 10.9    0.035    0.035  179.817  179.817
 qs_rho_update_rho                  301  6.0    0.003    0.003  179.479  179.479
 calculate_rho_elec                 301  7.0   84.954   84.954  179.475  179.475
 fft_wrap_pw1pw2_70                1504 11.2   19.358   19.358  165.998  165.998
 density_rs2pw                      301  8.0    0.045    0.045   91.556   91.556
 fft3d_s                           3311 12.9   81.893   81.893   81.918   81.918
 pw_scatter_s                      1804 13.2   62.538   62.538   62.538   62.538
 pw_poisson_solve                   301  9.0   56.108   56.108   61.051   61.051
 -------------------------------------------------------------------------------

 The number of warnings for this run is : 1
 
 -------------------------------------------------------------------------------
  **** **** ******  **  PROGRAM ENDED AT                 2021-01-15 03:00:49.400
 ***** ** ***  *** **   PROGRAM RAN ON                                   gnode52
 **    ****   ******    PROGRAM RAN BY                               mayank.modi
 ***** **    ** ** **   PROGRAM PROCESS ID                                 23123
  **** **  *******  **  PROGRAM STOPPED IN /home/mayank.modi/ab-initio-thermodyn
                                           amics-of-water/mayank/cp2k_energy_cal
                                           culations
