 DBCSR| CPU Multiplication driver                                           XSMM
 DBCSR| Multrec recursion limit                                              512
 DBCSR| Multiplication stack size                                           1000
 DBCSR| Maximum elements for images                                    UNLIMITED
 DBCSR| Multiplicative factor virtual images                                   1
 DBCSR| Use multiplication densification                                       T
 DBCSR| Multiplication size stacks                                             3


  **** **** ******  **  PROGRAM STARTED AT               2021-02-21 15:35:23.981
 ***** ** ***  *** **   PROGRAM STARTED ON                               gnode68
 **    ****   ******    PROGRAM STARTED BY                           mayank.modi
 ***** **    ** ** **   PROGRAM PROCESS ID                                  7323
  **** **  *******  **  PROGRAM STARTED IN /home/mayank.modi/ab-initio-thermodyn
                                           amics-of-water/mayank/cp2k_energy_cal
                                           culations

 CP2K| version string:                                          CP2K version 7.1
 CP2K| source code revision number:                                  git:e635599
 CP2K| cp2kflags: omp libint fftw3 libxc xsmm spglib                            
 CP2K| is freely available from                            https://www.cp2k.org/
 CP2K| Program compiled at                          Mon Dec 23 19:23:12 CET 2019
 CP2K| Program compiled on                                                pc9404
 CP2K| Program compiled for                                Linux-x86-64-gfortran
 CP2K| Data directory path                                        /opt/cp2k/data
 CP2K| Input file name                  input_training_correct_cell/input1208.in

 GLOBAL| Force Environment number                                              1
 GLOBAL| Basis set file name                                           BASIS_SET
 GLOBAL| Potential file name                                      GTH_POTENTIALS
 GLOBAL| MM Potential file name                                     MM_POTENTIAL
 GLOBAL| Coordinate file name                                      __STD_INPUT__
 GLOBAL| Method name                                                        CP2K
 GLOBAL| Project name                                                   H2O_bulk
 GLOBAL| Preferred FFT library                                             FFTW3
 GLOBAL| Preferred diagonalization lib.                                       SL
 GLOBAL| Run type                                                   ENERGY_FORCE
 GLOBAL| All-to-all communication in single precision                          F
 GLOBAL| FFTs using library dependent lengths                                  F
 GLOBAL| Global print level                                                  LOW
 GLOBAL| MPI I/O enabled                                                       T
 GLOBAL| Total number of message passing processes                             1
 GLOBAL| Number of threads for this process                                   36
 GLOBAL| This output is from process                                           0
 GLOBAL| CPU model name                Intel(R) Xeon(R) CPU E5-2640 v4 @ 2.40GHz
 GLOBAL| CPUID                                                              1002
 GLOBAL| Compiled for CPUID                                                    0

 MEMORY| system memory details [Kb]
 MEMORY|                        rank 0           min           max       average
 MEMORY| MemTotal            131893512     131893512     131893512     131893512
 MEMORY| MemFree             119715800     119715800     119715800     119715800
 MEMORY| Buffers               1024160       1024160       1024160       1024160
 MEMORY| Cached                9696896       9696896       9696896       9696896
 MEMORY| Slab                  1012856       1012856       1012856       1012856
 MEMORY| SReclaimable           622044        622044        622044        622044
 MEMORY| MemLikelyFree       131058900     131058900     131058900     131058900


 GENERATE|  Preliminary Number of Bonds generated:                             0
 GENERATE|  Achieved consistency in connectivity generation.

 *******************************************************************************
 *******************************************************************************
 **                                                                           **
 **     #####                         ##              ##                      **
 **    ##   ##            ##          ##              ##                      **
 **   ##     ##                       ##            ######                    **
 **   ##     ##  ##   ##  ##   #####  ##  ##   ####   ##    #####    #####    **
 **   ##     ##  ##   ##  ##  ##      ## ##   ##      ##   ##   ##  ##   ##   **
 **   ##  ## ##  ##   ##  ##  ##      ####     ###    ##   ######   ######    **
 **    ##  ###   ##   ##  ##  ##      ## ##      ##   ##   ##       ##        **
 **     #######   #####   ##   #####  ##  ##  ####    ##    #####   ##        **
 **           ##                                                    ##        **
 **                                                                           **
 **                                                ... make the atoms dance   **
 **                                                                           **
 **            Copyright (C) by CP2K developers group (2000 - 2019)           **
 **                                                                           **
 *******************************************************************************


 TOTAL NUMBERS AND MAXIMUM NUMBERS

  Total number of            - Atomic kinds:                                   2
                             - Atoms:                                        192
                             - Shell sets:                                   384
                             - Shells:                                       704
                             - Primitive Cartesian functions:                960
                             - Cartesian basis functions:                   1536
                             - Spherical basis functions:                   1472

  Maximum angular momentum of- Orbital basis functions:                        2
                             - Local part of the GTH pseudopotential:          2
                             - Non-local part of the GTH pseudopotential:      0


 SCF PARAMETERS         Density guess:                                    ATOMIC
                        --------------------------------------------------------
                        max_scf:                                             300
                        max_scf_history:                                       0
                        max_diis:                                              4
                        --------------------------------------------------------
                        eps_scf:                                        1.00E-07
                        eps_scf_history:                                0.00E+00
                        eps_diis:                                       1.00E-01
                        eps_eigval:                                     1.00E-05
                        --------------------------------------------------------
                        level_shift [a.u.]:                                 0.00
                        --------------------------------------------------------
                        Mixing method:                            BROYDEN_MIXING
                                                charge density mixing in g-space
                        --------------------------------------------------------
                        No outer SCF

 Number of electrons:                                                        512
 Number of occupied orbitals:                                                256
 Number of molecular orbitals:                                               256

 Number of orbital functions:                                               1472
 Number of independent orbital functions:                                   1472

 Extrapolation method: initial_guess


 SCF WAVEFUNCTION OPTIMIZATION

  Step     Update method      Time    Convergence         Total energy    Change
  ------------------------------------------------------------------------------
     1 NoMix/Diag. 0.40E+00    7.2     0.61657432     -1064.1274951384 -1.06E+03
     2 Broy./Diag. 0.40E+00    7.8     1.77251828      -994.6058573485  6.95E+01
     3 Broy./Diag. 0.40E+00    8.0     1.82504434     -1267.9203580785 -2.73E+02
     4 Broy./Diag. 0.40E+00    8.0     1.75160867     -1113.0104659115  1.55E+02
     5 Broy./Diag. 0.40E+00    8.2     1.45478585     -1095.1221913749  1.79E+01
     6 Broy./Diag. 0.40E+00    8.5     1.64295185     -1098.6529741290 -3.53E+00
     7 Broy./Diag. 0.40E+00    8.8     1.75229249     -1097.0913153725  1.56E+00
     8 Broy./Diag. 0.40E+00    9.3     0.51477143     -1081.7708244555  1.53E+01
     9 Broy./Diag. 0.40E+00    9.4     0.22517568     -1073.4635227561  8.31E+00
    10 Broy./Diag. 0.40E+00    9.5     0.24146387     -1073.8570046328 -3.93E-01
    11 Broy./Diag. 0.40E+00    9.6     0.28523224     -1074.8896566369 -1.03E+00
    12 Broy./Diag. 0.40E+00    9.6     0.20036224     -1074.6263859375  2.63E-01
    13 Broy./Diag. 0.40E+00    9.5     0.17525243     -1071.8418466113  2.78E+00
    14 Broy./Diag. 0.40E+00    9.4     0.19429529     -1077.3910830885 -5.55E+00
    15 Broy./Diag. 0.40E+00    9.5     0.10345857     -1077.0646523779  3.26E-01
    16 Broy./Diag. 0.40E+00    9.4     0.07591257     -1076.6028723379  4.62E-01
    17 Broy./Diag. 0.40E+00    9.2     0.03944824     -1076.2720093031  3.31E-01
    18 Broy./Diag. 0.40E+00    9.3     0.02814154     -1076.4927718044 -2.21E-01
    19 Broy./Diag. 0.40E+00    9.4     0.02091491     -1076.1547061447  3.38E-01
    20 Broy./Diag. 0.40E+00    9.6     0.02133976     -1075.9157738848  2.39E-01
    21 Broy./Diag. 0.40E+00    9.6     0.03045665     -1075.9871048934 -7.13E-02
    22 Broy./Diag. 0.40E+00    9.6     1.28379026     -1076.0152341721 -2.81E-02
    23 Broy./Diag. 0.40E+00    9.6     1.29843840     -1077.4316541287 -1.42E+00
    24 Broy./Diag. 0.40E+00    9.5     0.03764857     -1075.9220784115  1.51E+00
    25 Broy./Diag. 0.40E+00    9.5     0.02664376     -1076.0718582958 -1.50E-01
    26 Broy./Diag. 0.40E+00    9.3     0.01053820     -1075.9202358754  1.52E-01
    27 Broy./Diag. 0.40E+00    9.5     0.00511534     -1076.0088201486 -8.86E-02
    28 Broy./Diag. 0.40E+00    9.4     0.00534487     -1075.9675353751  4.13E-02
    29 Broy./Diag. 0.40E+00    9.6     0.00656305     -1075.9577309129  9.80E-03
    30 Broy./Diag. 0.40E+00    9.5     0.00428365     -1076.0038766079 -4.61E-02
    31 Broy./Diag. 0.40E+00    9.4     1.28382825     -1075.9835018733  2.04E-02
    32 Broy./Diag. 0.40E+00    9.7     1.29892789     -1077.4930563211 -1.51E+00
    33 Broy./Diag. 0.40E+00    9.6     0.30940487     -1076.1888068575  1.30E+00
    34 Broy./Diag. 0.40E+00    9.6     0.84847308     -1075.7717978756  4.17E-01
    35 Broy./Diag. 0.40E+00    9.4     1.28567772     -1077.6297250297 -1.86E+00
    36 Broy./Diag. 0.40E+00    9.6     1.30036661     -1077.5146363587  1.15E-01
    37 Broy./Diag. 0.40E+00    9.6     1.31364528     -1077.4434420600  7.12E-02
    38 Broy./Diag. 0.40E+00    9.4     1.30837832     -1077.5324051773 -8.90E-02
    39 Broy./Diag. 0.40E+00    9.5     0.15227159     -1075.8806678290  1.65E+00
    40 Broy./Diag. 0.40E+00    9.5     0.06280148     -1075.7446568115  1.36E-01
    41 Broy./Diag. 0.40E+00    9.4     0.02066526     -1076.0126298326 -2.68E-01
    42 Broy./Diag. 0.40E+00    9.6     1.32517627     -1075.9207413529  9.19E-02
    43 Broy./Diag. 0.40E+00    9.6     1.33562921     -1077.4991132407 -1.58E+00
    44 Broy./Diag. 0.40E+00    9.3     0.06292529     -1075.8874764019  1.61E+00
    45 Broy./Diag. 0.40E+00    9.4     0.03343301     -1075.9821100862 -9.46E-02
    46 Broy./Diag. 0.40E+00    9.6     0.01197975     -1075.9764885103  5.62E-03
    47 Broy./Diag. 0.40E+00    9.6     0.01480742     -1075.9473742892  2.91E-02
    48 Broy./Diag. 0.40E+00    9.3     0.01062032     -1075.9651848964 -1.78E-02
    49 Broy./Diag. 0.40E+00    9.5     0.00449165     -1075.9611893123  4.00E-03
    50 Broy./Diag. 0.40E+00    9.3     0.00454799     -1075.9727614490 -1.16E-02
    51 Broy./Diag. 0.40E+00    9.3     0.00408130     -1075.9451884548  2.76E-02
    52 Broy./Diag. 0.40E+00    9.4     1.28279645     -1075.9619702370 -1.68E-02
    53 Broy./Diag. 0.40E+00    9.6     1.30000093     -1079.0465708852 -3.08E+00
    54 Broy./Diag. 0.40E+00    9.6     0.67768167     -1076.5505386095  2.50E+00
    55 Broy./Diag. 0.40E+00    9.6     0.27276126     -1075.5726965411  9.78E-01
    56 Broy./Diag. 0.40E+00    9.6     0.11314207     -1075.6862966883 -1.14E-01
    57 Broy./Diag. 0.40E+00    9.4     0.05394935     -1076.1128511536 -4.27E-01
    58 Broy./Diag. 0.40E+00    9.6     0.02369328     -1075.6897977714  4.23E-01
    59 Broy./Diag. 0.40E+00    9.6     0.01304578     -1075.8186697798 -1.29E-01
    60 Broy./Diag. 0.40E+00    9.5     0.00792191     -1075.8804128276 -6.17E-02
    61 Broy./Diag. 0.40E+00    9.6     0.00917099     -1075.8912974094 -1.09E-02
    62 Broy./Diag. 0.40E+00    9.3     0.10221706     -1075.8924102968 -1.11E-03
    63 Broy./Diag. 0.40E+00    9.6     0.05683152     -1076.0551837650 -1.63E-01
    64 Broy./Diag. 0.40E+00    9.6     0.11085813     -1076.0311103575  2.41E-02
    65 Broy./Diag. 0.40E+00    9.3     0.15033875     -1076.0615198385 -3.04E-02
    66 Broy./Diag. 0.40E+00    9.3     1.28599436     -1075.9856484167  7.59E-02
    67 Broy./Diag. 0.40E+00    9.5     1.29963391     -1077.5155435248 -1.53E+00
    68 Broy./Diag. 0.40E+00    9.6     0.02963331     -1075.9460483766  1.57E+00
    69 Broy./Diag. 0.40E+00    9.5     0.02219893     -1076.0701271413 -1.24E-01
    70 Broy./Diag. 0.40E+00    9.5     0.01011713     -1075.9426265141  1.28E-01
    71 Broy./Diag. 0.40E+00    9.5     0.00741893     -1076.0059089066 -6.33E-02
    72 Broy./Diag. 0.40E+00    9.5     0.00314138     -1075.9921677391  1.37E-02
    73 Broy./Diag. 0.40E+00    9.6     0.01828530     -1075.9780422584  1.41E-02
    74 Broy./Diag. 0.40E+00    9.5     0.02049019     -1075.9865202978 -8.48E-03
    75 Broy./Diag. 0.40E+00    9.3     0.01293662     -1076.0012370798 -1.47E-02
    76 Broy./Diag. 0.40E+00    9.3     1.28263388     -1075.9959547125  5.28E-03
    77 Broy./Diag. 0.40E+00    9.3     1.30786352     -1077.4746334333 -1.48E+00
    78 Broy./Diag. 0.40E+00    9.6     0.02686449     -1075.9919290701  1.48E+00
    79 Broy./Diag. 0.40E+00    9.6     0.02984387     -1075.8201304584  1.72E-01
    80 Broy./Diag. 0.40E+00    9.4     0.01133945     -1075.9923982471 -1.72E-01
    81 Broy./Diag. 0.40E+00    9.3     0.00903622     -1075.9811723153  1.12E-02
    82 Broy./Diag. 0.40E+00    9.2     0.00524927     -1075.9528539494  2.83E-02
    83 Broy./Diag. 0.40E+00    8.7     0.00286643     -1075.9652940122 -1.24E-02
    84 Broy./Diag. 0.40E+00    9.5     0.00130626     -1075.9712727834 -5.98E-03
    85 Broy./Diag. 0.40E+00    9.6     0.00110901     -1075.9637888679  7.48E-03
    86 Broy./Diag. 0.40E+00    9.5     1.28379350     -1075.9693432118 -5.55E-03
    87 Broy./Diag. 0.40E+00    9.4     1.29697370     -1079.0488061779 -3.08E+00
    88 Broy./Diag. 0.40E+00    9.4     1.35658467     -1077.4101459278  1.64E+00
    89 Broy./Diag. 0.40E+00    9.4     0.16479349     -1075.8038789311  1.61E+00
    90 Broy./Diag. 0.40E+00    9.6     0.08703404     -1075.5048934366  2.99E-01
    91 Broy./Diag. 0.40E+00    9.5     0.04077470     -1075.9931572669 -4.88E-01
    92 Broy./Diag. 0.40E+00    9.4     0.02662725     -1075.8134371207  1.80E-01
    93 Broy./Diag. 0.40E+00    9.4     0.01377673     -1075.8967842614 -8.33E-02
    94 Broy./Diag. 0.40E+00    9.4     0.01128258     -1075.9060590776 -9.27E-03
    95 Broy./Diag. 0.40E+00    9.5     0.00519378     -1075.8989347264  7.12E-03
    96 Broy./Diag. 0.40E+00    9.4     0.01624599     -1075.9115746299 -1.26E-02
    97 Broy./Diag. 0.40E+00    9.8     1.28109510     -1075.9846403108 -7.31E-02
    98 Broy./Diag. 0.40E+00    9.6     1.30019676     -1078.9866326507 -3.00E+00
    99 Broy./Diag. 0.40E+00    9.5     1.57763924     -1077.4026962498  1.58E+00
   100 Broy./Diag. 0.40E+00    9.6     1.59477166     -1079.1587120957 -1.76E+00
   101 Broy./Diag. 0.40E+00    9.4     1.59751949     -1077.1672846738  1.99E+00
   102 Broy./Diag. 0.40E+00    9.5     1.57202503     -1076.8640601620  3.03E-01
   103 Broy./Diag. 0.40E+00    9.4     0.15838106     -1075.8966631326  9.67E-01
   104 Broy./Diag. 0.40E+00    9.3     0.05461597     -1075.6920323903  2.05E-01
   105 Broy./Diag. 0.40E+00    9.3     0.04377035     -1075.4944797062  1.98E-01
   106 Broy./Diag. 0.40E+00    9.5     0.05134512     -1075.7420750794 -2.48E-01
   107 Broy./Diag. 0.40E+00    9.4     0.03309515     -1075.8055910457 -6.35E-02
   108 Broy./Diag. 0.40E+00    9.5     0.21606365     -1076.0223135667 -2.17E-01
   109 Broy./Diag. 0.40E+00    9.3     0.20801328     -1076.2488838668 -2.27E-01
   110 Broy./Diag. 0.40E+00    9.2     0.05413208     -1075.6768588281  5.72E-01
   111 Broy./Diag. 0.40E+00    9.2     0.84000814     -1075.9442289495 -2.67E-01
   112 Broy./Diag. 0.40E+00    9.6     0.86325044     -1077.4612849881 -1.52E+00
   113 Broy./Diag. 0.40E+00    9.6     0.03435444     -1075.9351962966  1.53E+00
   114 Broy./Diag. 0.40E+00    9.4     0.02840809     -1075.8600143945  7.52E-02
   115 Broy./Diag. 0.40E+00    9.7     1.28805426     -1075.9875880287 -1.28E-01
   116 Broy./Diag. 0.40E+00    9.7     1.29781844     -1077.4880090402 -1.50E+00
   117 Broy./Diag. 0.40E+00    9.5     0.22524225     -1075.9326292634  1.56E+00
   118 Broy./Diag. 0.40E+00    9.3     0.24030970     -1076.2075496313 -2.75E-01
   119 Broy./Diag. 0.40E+00    9.5     0.02845098     -1076.0100512371  1.97E-01
   120 Broy./Diag. 0.40E+00    9.7     0.01721285     -1075.9535784386  5.65E-02
   121 Broy./Diag. 0.40E+00    9.5     0.01893975     -1075.9531407151  4.38E-04
   122 Broy./Diag. 0.40E+00    9.3     0.01062744     -1075.9875050595 -3.44E-02
   123 Broy./Diag. 0.40E+00    9.6     0.00359048     -1075.9813956732  6.11E-03
   124 Broy./Diag. 0.40E+00    9.6     0.00796510     -1075.9735496284  7.85E-03
   125 Broy./Diag. 0.40E+00    9.3     0.01263387     -1075.9879492001 -1.44E-02
   126 Broy./Diag. 0.40E+00    9.4     0.00971132     -1076.0300727418 -4.21E-02
   127 Broy./Diag. 0.40E+00    9.4     1.29455532     -1075.9814336068  4.86E-02
   128 Broy./Diag. 0.40E+00    9.4     1.30994772     -1077.4546341337 -1.47E+00
   129 Broy./Diag. 0.40E+00    9.5     0.02778130     -1075.9430263564  1.51E+00
   130 Broy./Diag. 0.40E+00    9.6     0.01951912     -1076.0401437687 -9.71E-02
   131 Broy./Diag. 0.40E+00    9.4     0.01209588     -1075.9648615784  7.53E-02
   132 Broy./Diag. 0.40E+00    9.3     0.00588087     -1075.9682356171 -3.37E-03
   133 Broy./Diag. 0.40E+00    9.1     0.00252081     -1075.9699267604 -1.69E-03
   134 Broy./Diag. 0.40E+00    9.2     0.00134134     -1075.9751096778 -5.18E-03
   135 Broy./Diag. 0.40E+00    9.7     1.28411775     -1075.9756876286 -5.78E-04
   136 Broy./Diag. 0.40E+00    9.7     1.29640131     -1077.4908310775 -1.52E+00
   137 Broy./Diag. 0.40E+00    9.6     0.97596918     -1075.9389226240  1.55E+00
   138 Broy./Diag. 0.40E+00    9.3     0.99233918     -1077.0699753786 -1.13E+00
   139 Broy./Diag. 0.40E+00    9.1     0.04030456     -1075.9592533261  1.11E+00
   140 Broy./Diag. 0.40E+00    9.1     0.02164969     -1075.9733587979 -1.41E-02
   141 Broy./Diag. 0.40E+00    9.3     0.00931689     -1075.9182272163  5.51E-02
   142 Broy./Diag. 0.40E+00    9.3     0.00530838     -1075.9718410300 -5.36E-02
   143 Broy./Diag. 0.40E+00    9.0     0.00306485     -1075.9638938089  7.95E-03
   144 Broy./Diag. 0.40E+00    9.5     0.00131278     -1075.9560512723  7.84E-03
   145 Broy./Diag. 0.40E+00    9.5     0.00903804     -1075.9671207830 -1.11E-02
   146 Broy./Diag. 0.40E+00    9.3     0.00376896     -1075.9862369848 -1.91E-02
   147 Broy./Diag. 0.40E+00    9.4     1.28420634     -1075.9814226406  4.81E-03
   148 Broy./Diag. 0.40E+00    9.6     1.31014817     -1077.5835936976 -1.60E+00
   149 Broy./Diag. 0.40E+00    9.6     0.12452560     -1076.0118638459  1.57E+00
   150 Broy./Diag. 0.40E+00    9.4     0.09635877     -1075.7245272480  2.87E-01
   151 Broy./Diag. 0.40E+00    9.7     0.01808351     -1075.9163112433 -1.92E-01
   152 Broy./Diag. 0.40E+00    9.6     0.00646410     -1075.9502800209 -3.40E-02
   153 Broy./Diag. 0.40E+00    9.5     0.01149735     -1075.9493688936  9.11E-04
   154 Broy./Diag. 0.40E+00    9.6     0.00799600     -1075.9802313712 -3.09E-02
   155 Broy./Diag. 0.40E+00    9.3     0.00689719     -1075.9750550452  5.18E-03
   156 Broy./Diag. 0.40E+00    9.1     0.00505366     -1075.9647913652  1.03E-02
   157 Broy./Diag. 0.40E+00    9.6     1.28461305     -1075.9682155856 -3.42E-03
   158 Broy./Diag. 0.40E+00    9.3     1.30715537     -1077.4871230371 -1.52E+00
   159 Broy./Diag. 0.40E+00    9.4     0.86974242     -1076.0367855910  1.45E+00
   160 Broy./Diag. 0.40E+00    9.4     0.87636590     -1077.2635903424 -1.23E+00
   161 Broy./Diag. 0.40E+00    9.8     1.32863206     -1075.7651677906  1.50E+00
   162 Broy./Diag. 0.40E+00    9.5     1.32028048     -1077.9870965092 -2.22E+00
   163 Broy./Diag. 0.40E+00    9.5     0.15789553     -1076.0762971417  1.91E+00
   164 Broy./Diag. 0.40E+00    9.6     0.07859503     -1075.8049396462  2.71E-01
   165 Broy./Diag. 0.40E+00    9.4     0.03819414     -1075.8559401247 -5.10E-02
   166 Broy./Diag. 0.40E+00    9.4     0.01207591     -1075.9239681050 -6.80E-02
   167 Broy./Diag. 0.40E+00    9.6     0.06030113     -1075.9609342046 -3.70E-02
   168 Broy./Diag. 0.40E+00    9.4     0.06039325     -1076.0687264736 -1.08E-01
   169 Broy./Diag. 0.40E+00    9.3     0.03228368     -1075.9516394893  1.17E-01
   170 Broy./Diag. 0.40E+00    9.6     0.02754783     -1075.9683594762 -1.67E-02
   171 Broy./Diag. 0.40E+00    9.5     0.05301050     -1075.9570554423  1.13E-02
   172 Broy./Diag. 0.40E+00    9.4     1.04020646     -1076.0873437018 -1.30E-01
   173 Broy./Diag. 0.40E+00    9.5     1.05883480     -1077.1949309138 -1.11E+00
   174 Broy./Diag. 0.40E+00   10.0     0.02065220     -1076.0177980111  1.18E+00
   175 Broy./Diag. 0.40E+00    9.4     0.02016280     -1075.8846205409  1.33E-01
   176 Broy./Diag. 0.40E+00    9.4     0.00965329     -1076.0036979757 -1.19E-01
   177 Broy./Diag. 0.40E+00    9.4     0.00747112     -1075.9779668962  2.57E-02
   178 Broy./Diag. 0.40E+00    9.4     0.00436962     -1075.9850842431 -7.12E-03
   179 Broy./Diag. 0.40E+00    9.3     0.00449428     -1075.9703773434  1.47E-02
   180 Broy./Diag. 0.40E+00    9.5     0.00204769     -1075.9679944786  2.38E-03
   181 Broy./Diag. 0.40E+00    9.7     1.28432993     -1075.9782731646 -1.03E-02
   182 Broy./Diag. 0.40E+00    9.5     1.31225398     -1077.5065506369 -1.53E+00
   183 Broy./Diag. 0.40E+00    9.6     1.34080562     -1077.4561530836  5.04E-02
   184 Broy./Diag. 0.40E+00    9.5     0.88479331     -1075.7769850462  1.68E+00
   185 Broy./Diag. 0.40E+00    9.6     0.87986198     -1077.6013477318 -1.82E+00
   186 Broy./Diag. 0.40E+00    9.4     0.11038558     -1075.8548433045  1.75E+00
   187 Broy./Diag. 0.40E+00    9.9     0.08915005     -1076.0653660739 -2.11E-01
   188 Broy./Diag. 0.40E+00    9.6     0.02156621     -1075.8791676746  1.86E-01
   189 Broy./Diag. 0.40E+00    9.3     0.00922117     -1075.9139793927 -3.48E-02
   190 Broy./Diag. 0.40E+00    9.5     0.00418407     -1075.9321181777 -1.81E-02
   191 Broy./Diag. 0.40E+00    9.5     0.01817210     -1075.9261962707  5.92E-03
   192 Broy./Diag. 0.40E+00    9.7     0.34339947     -1075.9738945116 -4.77E-02
   193 Broy./Diag. 0.40E+00    9.3     0.34196810     -1076.4059853672 -4.32E-01
   194 Broy./Diag. 0.40E+00    9.7     0.02977395     -1075.9401281207  4.66E-01
   195 Broy./Diag. 0.40E+00    9.6     0.01930879     -1076.0085262340 -6.84E-02
   196 Broy./Diag. 0.40E+00    9.3     0.00874162     -1075.9501280114  5.84E-02
   197 Broy./Diag. 0.40E+00    9.1     0.00880603     -1075.9844244308 -3.43E-02
   198 Broy./Diag. 0.40E+00    9.5     0.00436908     -1075.9455407800  3.89E-02
   199 Broy./Diag. 0.40E+00    9.3     0.00243897     -1075.9667444610 -2.12E-02
   200 Broy./Diag. 0.40E+00    9.5     1.28444400     -1075.9679305072 -1.19E-03
   201 Broy./Diag. 0.40E+00    9.4     1.29802476     -1077.4870167121 -1.52E+00
   202 Broy./Diag. 0.40E+00    9.3     0.71886131     -1075.9300141275  1.56E+00
   203 Broy./Diag. 0.40E+00    9.6     0.73862715     -1076.8756428498 -9.46E-01
   204 Broy./Diag. 0.40E+00    9.6     0.05383581     -1075.9388017051  9.37E-01
   205 Broy./Diag. 0.40E+00    9.4     0.03338632     -1076.0000308382 -6.12E-02
   206 Broy./Diag. 0.40E+00    9.5     0.00800411     -1075.9059808987  9.40E-02
   207 Broy./Diag. 0.40E+00    9.6     0.00455571     -1075.9416202010 -3.56E-02
   208 Broy./Diag. 0.40E+00    9.9     0.00363932     -1075.9615812937 -2.00E-02
   209 Broy./Diag. 0.40E+00    9.7     0.00174816     -1075.9523412230  9.24E-03
   210 Broy./Diag. 0.40E+00    9.3     0.01213890     -1075.9514699543  8.71E-04
   211 Broy./Diag. 0.40E+00    9.3     0.00556773     -1075.9794403135 -2.80E-02
   212 Broy./Diag. 0.40E+00    9.5     1.28385668     -1075.9739302780  5.51E-03
   213 Broy./Diag. 0.40E+00    9.6     1.29614230     -1079.0041864355 -3.03E+00
   214 Broy./Diag. 0.40E+00    9.5     1.57578160     -1076.3081212872  2.70E+00
   215 Broy./Diag. 0.40E+00    9.6     1.58132024     -1077.3538014193 -1.05E+00
   216 Broy./Diag. 0.40E+00    9.3     0.31922719     -1075.0444639299  2.31E+00
   217 Broy./Diag. 0.40E+00    9.4     0.10148556     -1076.1935344120 -1.15E+00
   218 Broy./Diag. 0.40E+00    9.6     0.04304927     -1075.9345414436  2.59E-01
   219 Broy./Diag. 0.40E+00    9.7     0.03225827     -1075.7622628689  1.72E-01
   220 Broy./Diag. 0.40E+00    9.4     0.02360653     -1075.8974150609 -1.35E-01
   221 Broy./Diag. 0.40E+00    9.5     0.02754438     -1075.9553683366 -5.80E-02
   222 Broy./Diag. 0.40E+00    9.4     0.04255951     -1076.0412838345 -8.59E-02
   223 Broy./Diag. 0.40E+00    9.5     0.03113948     -1076.1933622149 -1.52E-01
   224 Broy./Diag. 0.40E+00    9.6     0.03316793     -1075.9881170852  2.05E-01
   225 Broy./Diag. 0.40E+00    9.5     0.02585565     -1075.9924724589 -4.36E-03
   226 Broy./Diag. 0.40E+00    9.4     1.02820521     -1076.0286339990 -3.62E-02
   227 Broy./Diag. 0.40E+00    9.4     1.05269471     -1077.1245377493 -1.10E+00
   228 Broy./Diag. 0.40E+00    9.5     0.04898550     -1075.9724746049  1.15E+00
   229 Broy./Diag. 0.40E+00    9.6     0.03161228     -1075.9092271687  6.32E-02
   230 Broy./Diag. 0.40E+00    9.4     0.00938811     -1075.9859690369 -7.67E-02
   231 Broy./Diag. 0.40E+00    9.3     0.00628432     -1075.9802376872  5.73E-03
   232 Broy./Diag. 0.40E+00    9.3     0.00582758     -1075.9485694077  3.17E-02
   233 Broy./Diag. 0.40E+00    9.5     0.00471872     -1075.9553496472 -6.78E-03
   234 Broy./Diag. 0.40E+00    9.6     0.00203204     -1075.9742118125 -1.89E-02
   235 Broy./Diag. 0.40E+00    9.4     0.00175544     -1075.9619384717  1.23E-02
   236 Broy./Diag. 0.40E+00    9.4     1.28580519     -1075.9635539229 -1.62E-03
   237 Broy./Diag. 0.40E+00    9.4     0.86406363     -1079.0171983463 -3.05E+00
   238 Broy./Diag. 0.40E+00    9.4     1.31287496     -1077.4814020539  1.54E+00
   239 Broy./Diag. 0.40E+00    9.6     1.61549366     -1078.7523609216 -1.27E+00
   240 Broy./Diag. 0.40E+00    9.4     0.17038055     -1076.9325801927  1.82E+00
   241 Broy./Diag. 0.40E+00    9.3     1.60642444     -1076.5236931154  4.09E-01
   242 Broy./Diag. 0.40E+00    9.6     1.62610125     -1074.6727108544  1.85E+00
   243 Broy./Diag. 0.40E+00    9.6     1.59084670     -1077.8899848496 -3.22E+00
   244 Broy./Diag. 0.40E+00    9.6     0.18727651     -1076.1836375717  1.71E+00
   245 Broy./Diag. 0.40E+00    9.7     0.11131673     -1075.5222001574  6.61E-01
   246 Broy./Diag. 0.40E+00    9.4     0.15149212     -1075.6130044055 -9.08E-02
   247 Broy./Diag. 0.40E+00    9.3     0.09196513     -1075.9944979382 -3.81E-01
   248 Broy./Diag. 0.40E+00    9.3     1.33108352     -1076.1786586695 -1.84E-01
   249 Broy./Diag. 0.40E+00    9.5     1.33421692     -1079.0633788974 -2.88E+00
   250 Broy./Diag. 0.40E+00    9.4     0.08090258     -1075.8753172576  3.19E+00
   251 Broy./Diag. 0.40E+00    9.6     0.06649517     -1076.0149463379 -1.40E-01
   252 Broy./Diag. 0.40E+00    9.7     0.02490781     -1075.8856012705  1.29E-01
   253 Broy./Diag. 0.40E+00    9.4     0.02230339     -1076.0448578810 -1.59E-01
   254 Broy./Diag. 0.40E+00    9.5     0.01220813     -1075.9079935663  1.37E-01
   255 Broy./Diag. 0.40E+00    9.5     0.00830249     -1075.8732779905  3.47E-02
   256 Broy./Diag. 0.40E+00    9.5     0.00464795     -1075.9494012648 -7.61E-02
   257 Broy./Diag. 0.40E+00    9.6     1.28317227     -1075.8929719706  5.64E-02
   258 Broy./Diag. 0.40E+00    9.7     1.29825952     -1077.4493467634 -1.56E+00
   259 Broy./Diag. 0.40E+00    9.5     0.90486349     -1077.5953064477 -1.46E-01
   260 Broy./Diag. 0.40E+00    9.3     0.25602987     -1076.0580822038  1.54E+00
   261 Broy./Diag. 0.40E+00    9.5     0.23537592     -1075.6532162562  4.05E-01
   262 Broy./Diag. 0.40E+00    9.8     0.05124207     -1076.0179169018 -3.65E-01
   263 Broy./Diag. 0.40E+00    9.7     0.03015083     -1075.9064482872  1.11E-01
   264 Broy./Diag. 0.40E+00    9.5     0.01885885     -1075.9367254912 -3.03E-02
   265 Broy./Diag. 0.40E+00    9.6     0.01419826     -1076.0036773877 -6.70E-02
   266 Broy./Diag. 0.40E+00    9.4     0.01086885     -1075.8927912152  1.11E-01
   267 Broy./Diag. 0.40E+00    9.6     0.00483792     -1075.9896847038 -9.69E-02
   268 Broy./Diag. 0.40E+00    9.3     1.28466095     -1075.9658419551  2.38E-02
   269 Broy./Diag. 0.40E+00    9.1     1.31424620     -1077.5445613872 -1.58E+00
   270 Broy./Diag. 0.40E+00   10.1     0.05281861     -1075.9757913047  1.57E+00
   271 Broy./Diag. 0.40E+00    9.7     0.04965586     -1075.8674199174  1.08E-01
   272 Broy./Diag. 0.40E+00    9.6     0.02644636     -1076.0447954579 -1.77E-01
   273 Broy./Diag. 0.40E+00    9.5     0.00644830     -1075.9844409062  6.04E-02
   274 Broy./Diag. 0.40E+00    9.4     0.00508529     -1075.9613221904  2.31E-02
   275 Broy./Diag. 0.40E+00    9.5     0.00327629     -1075.9800057644 -1.87E-02
   276 Broy./Diag. 0.40E+00    9.5     0.00234165     -1075.9825078607 -2.50E-03
   277 Broy./Diag. 0.40E+00    9.4     1.28437647     -1075.9892129844 -6.71E-03
   278 Broy./Diag. 0.40E+00    9.7     1.29851642     -1077.4761013900 -1.49E+00
   279 Broy./Diag. 0.40E+00    9.5     1.31215592     -1077.3316806688  1.44E-01
   280 Broy./Diag. 0.40E+00    9.7     0.08564974     -1075.8663188779  1.47E+00
   281 Broy./Diag. 0.40E+00    9.6     0.04962811     -1075.7940397209  7.23E-02
   282 Broy./Diag. 0.40E+00    9.5     0.01019879     -1075.9651040043 -1.71E-01
   283 Broy./Diag. 0.40E+00    9.8     0.00709003     -1075.9778732591 -1.28E-02
   284 Broy./Diag. 0.40E+00    9.3     0.00466604     -1075.9308935717  4.70E-02
   285 Broy./Diag. 0.40E+00    9.1     0.00320977     -1075.9480337903 -1.71E-02
   286 Broy./Diag. 0.40E+00    9.6     0.00168364     -1075.9668584389 -1.88E-02
   287 Broy./Diag. 0.40E+00    9.4     0.00717673     -1075.9495031227  1.74E-02
   288 Broy./Diag. 0.40E+00    9.4     1.28088459     -1075.9681220944 -1.86E-02
   289 Broy./Diag. 0.40E+00    9.5     1.29760064     -1077.5294038090 -1.56E+00
   290 Broy./Diag. 0.40E+00    9.6     0.85964817     -1075.9589994331  1.57E+00
   291 Broy./Diag. 0.40E+00    9.6     0.86942385     -1077.5408530974 -1.58E+00
   292 Broy./Diag. 0.40E+00    9.5     0.07470914     -1076.0283675002  1.51E+00
   293 Broy./Diag. 0.40E+00    9.4     0.05586350     -1075.7987871337  2.30E-01
   294 Broy./Diag. 0.40E+00    9.6     0.22967446     -1075.9210034230 -1.22E-01
   295 Broy./Diag. 0.40E+00    9.6     0.22638361     -1076.1958446261 -2.75E-01
   296 Broy./Diag. 0.40E+00    9.4     0.00818187     -1075.9943706198  2.01E-01
   297 Broy./Diag. 0.40E+00    9.7     0.00551301     -1075.9280560724  6.63E-02
   298 Broy./Diag. 0.40E+00    9.6     1.29236858     -1075.9668450772 -3.88E-02
   299 Broy./Diag. 0.40E+00    9.7     1.30399905     -1077.5085682226 -1.54E+00
   300 Broy./Diag. 0.40E+00    9.3     0.03440061     -1075.9402504239  1.57E+00

  Leaving inner SCF loop after reaching   300 steps.


  Electronic density on regular grids:       -512.0001096105       -0.0001096105
  Core density on regular grids:              511.9999101387       -0.0000898613
  Total charge density on r-space grids:       -0.0001994719
  Total charge density g-space grids:          -0.0001994719

  Overlap energy of the core charge distribution:               0.00000000000000
  Self energy of the core charge distribution:              -2838.21791979120962
  Core Hamiltonian energy:                                    759.85031443945695
  Hartree energy:                                            1240.96072939285227
  Exchange-correlation energy:                               -238.53337446498756

  Total energy:                                             -1075.94025042388830

 *** WARNING in qs_scf.F:542 :: SCF run NOT converged ***


 ENERGY| Total FORCE_EVAL ( QS ) energy (a.u.):            -1076.000835525396951


 ATOMIC FORCES in [a.u.]

 # Atom   Kind   Element          X              Y              Z
      1      1      O           0.02543930    -0.12231916    -0.06814993
      2      2      H           0.04601454    -0.00406410     0.01427135
      3      2      H          -0.00809769     0.05339062     0.00583965
      4      1      O           0.07724417     0.11843548    -0.04703737
      5      2      H          -0.00075525    -0.09771025    -0.02041809
      6      2      H          -0.01620623     0.01708136     0.05821308
      7      1      O          -0.06622834    -0.03841180     0.09699638
      8      2      H          -0.01330838    -0.04952369    -0.07779370
      9      2      H           0.02110947     0.07655110     0.01020041
     10      1      O           0.01359077     0.03375735    -0.01987744
     11      2      H           0.00857943     0.00415515     0.08239377
     12      2      H           0.01307116    -0.04065556    -0.00846420
     13      1      O           0.09328053    -0.02018538     0.02328864
     14      2      H          -0.06385866     0.00689494    -0.03865575
     15      2      H           0.01320084     0.03598423     0.02835836
     16      1      O          -0.03806536    -0.01294234    -0.02730628
     17      2      H           0.02479729    -0.06995949    -0.04198589
     18      2      H           0.05862831     0.03950684     0.01782761
     19      1      O           0.04566932    -0.11942655     0.05522726
     20      2      H          -0.08121254     0.00290404    -0.03606567
     21      2      H           0.01722085     0.05800500     0.04748259
     22      1      O           0.05779297     0.02204953     0.07331799
     23      2      H          -0.02761058    -0.03343290    -0.07944577
     24      2      H           0.03600443    -0.04424680    -0.02673277
     25      1      O          -0.08150410    -0.12536804    -0.01821246
     26      2      H           0.05811050     0.03188660     0.04845969
     27      2      H           0.02669943     0.03710146    -0.03441963
     28      1      O          -0.02396705    -0.02453528     0.14305101
     29      2      H          -0.03584950     0.00472381    -0.01228915
     30      2      H           0.08101096     0.01898637    -0.05403140
     31      1      O           0.13223430     0.11107582    -0.03979323
     32      2      H          -0.04384491    -0.03236345     0.08666264
     33      2      H           0.01320829    -0.00361495    -0.04315887
     34      1      O          -0.05236633    -0.07488804     0.01143836
     35      2      H           0.06870853    -0.02375028     0.03298899
     36      2      H           0.00256570     0.02151521     0.02178384
     37      1      O          -0.04814150    -0.04371647    -0.00455533
     38      2      H           0.00306855     0.05477431     0.04161917
     39      2      H           0.00954031     0.06384353    -0.08177362
     40      1      O          -0.05072443    -0.04277171     0.02517016
     41      2      H           0.10567699    -0.01791917    -0.01241462
     42      2      H          -0.03860271     0.08528922    -0.02612345
     43      1      O           0.04872446     0.07005448     0.02398180
     44      2      H          -0.03743252     0.06542399    -0.07869477
     45      2      H          -0.01969734    -0.08472765    -0.02214957
     46      1      O          -0.09609410     0.04115244    -0.05534535
     47      2      H          -0.01964857    -0.09986110     0.02915016
     48      2      H           0.06136943    -0.02365423    -0.04129584
     49      1      O          -0.04012586     0.03295135    -0.01814033
     50      2      H           0.04138632     0.00263496     0.03607964
     51      2      H          -0.06414137    -0.01910543     0.03160135
     52      1      O          -0.09513951    -0.07510414     0.03647703
     53      2      H           0.06668512    -0.00547103    -0.07168889
     54      2      H           0.00932915     0.02580066     0.04560116
     55      1      O          -0.06078532     0.01985803     0.07298884
     56      2      H           0.03837456    -0.06260061     0.00525728
     57      2      H           0.05626246     0.03734629    -0.06111233
     58      1      O           0.06483483    -0.10096272    -0.04887497
     59      2      H           0.02250554     0.01292919    -0.03197299
     60      2      H          -0.02522358     0.03116157     0.06399543
     61      1      O          -0.03953168    -0.06678272    -0.04748871
     62      2      H          -0.02523131     0.00632881     0.09145983
     63      2      H          -0.01314553     0.04846577    -0.06427722
     64      1      O           0.10255100     0.01960119    -0.01370295
     65      2      H          -0.02782416    -0.09553060    -0.02109598
     66      2      H          -0.03319959     0.04144253    -0.04613358
     67      1      O          -0.06154067    -0.09790507    -0.05115211
     68      2      H           0.01179246     0.00907479     0.03719413
     69      2      H          -0.02216492     0.04917863    -0.04982413
     70      1      O           0.08896491     0.00283016    -0.09138035
     71      2      H           0.01067063    -0.08698979    -0.03428617
     72      2      H          -0.05789633     0.01002673     0.07217697
     73      1      O           0.02482041     0.12981741     0.06023869
     74      2      H           0.05149504    -0.03050158    -0.00084972
     75      2      H          -0.03714288    -0.09858232    -0.00701745
     76      1      O          -0.01700442    -0.00590039    -0.02502112
     77      2      H           0.06529151     0.00391186     0.04396886
     78      2      H           0.01982939    -0.01798966    -0.05245070
     79      1      O           0.01842987    -0.09991595     0.08240326
     80      2      H          -0.01404261     0.08444310    -0.02436111
     81      2      H          -0.04023328    -0.02622685    -0.08545790
     82      1      O          -0.10930776    -0.11799625     0.08510172
     83      2      H          -0.03551048     0.03772136    -0.01370797
     84      2      H           0.09811182    -0.02015595    -0.00592212
     85      1      O           0.04867545    -0.09541661    -0.05754406
     86      2      H          -0.03946546    -0.00061087     0.10019219
     87      2      H          -0.03358554     0.06337592    -0.02659615
     88      1      O          -0.01013351    -0.03204537    -0.01030602
     89      2      H          -0.00158052     0.03485898     0.04867930
     90      2      H          -0.07514287     0.04854895    -0.03350483
     91      1      O           0.06727377    -0.04638242     0.00176091
     92      2      H          -0.05192474     0.07835836    -0.02017057
     93      2      H          -0.02520076    -0.09296152     0.08036880
     94      1      O           0.10542345    -0.07488310    -0.11691516
     95      2      H          -0.00822865    -0.02327907     0.05626218
     96      2      H          -0.00747169     0.04476478     0.02663095
     97      1      O           0.00791662    -0.10131170     0.06304879
     98      2      H          -0.07532310     0.00411657    -0.00623996
     99      2      H           0.03382923     0.01510293    -0.06547229
    100      1      O           0.04391991    -0.01764547     0.01585606
    101      2      H          -0.05094061     0.01147998    -0.04426530
    102      2      H           0.00479557     0.05112107     0.01779685
    103      1      O          -0.04544999     0.00782981    -0.03555118
    104      2      H           0.02363350     0.08055548    -0.01752692
    105      2      H           0.02958666    -0.02247193     0.04705318
    106      1      O           0.05355169    -0.02459648    -0.06673578
    107      2      H          -0.09736328     0.04491442     0.05334636
    108      2      H           0.03826474    -0.07059165     0.01167425
    109      1      O           0.10487190    -0.06820618    -0.02887573
    110      2      H          -0.03506540     0.00911572     0.01531080
    111      2      H           0.01906793     0.05273016    -0.02994282
    112      1      O          -0.00998708     0.01641919     0.00610781
    113      2      H           0.02255480     0.09942638     0.02001850
    114      2      H          -0.03486548    -0.02748170     0.03245939
    115      1      O           0.05147363    -0.08205338    -0.06162112
    116      2      H          -0.04507116     0.05631169     0.07330496
    117      2      H           0.02222838    -0.04027612     0.04633419
    118      1      O           0.06221068    -0.11353760    -0.01113827
    119      2      H          -0.01005572     0.00430069    -0.06869164
    120      2      H           0.03197433     0.03941099     0.02792607
    121      1      O          -0.03735712    -0.07032751     0.05664469
    122      2      H          -0.00872731    -0.01458404    -0.00081594
    123      2      H           0.09353022     0.01415431    -0.02012221
    124      1      O           0.01103111    -0.01425384    -0.08090475
    125      2      H          -0.02535590     0.05485409     0.00460239
    126      2      H           0.00420906    -0.00306761     0.07745338
    127      1      O          -0.05702397    -0.09322065     0.02496745
    128      2      H          -0.05266187     0.01076984    -0.08702287
    129      2      H           0.04230470     0.06428741     0.00940340
    130      1      O           0.06838503    -0.05154856    -0.08544945
    131      2      H          -0.04022403     0.04316666     0.01651710
    132      2      H           0.04216519     0.03347864     0.01330659
    133      1      O          -0.11661331     0.03684053     0.07730412
    134      2      H           0.01356405    -0.08231903     0.03877056
    135      2      H          -0.01103824     0.01953954    -0.08894581
    136      1      O           0.10422335    -0.02578399     0.03316986
    137      2      H          -0.06848846    -0.01907867     0.04371196
    138      2      H          -0.02916122     0.08361127    -0.06619396
    139      1      O          -0.00035854    -0.05513536    -0.02545137
    140      2      H           0.07330784     0.00733406    -0.03922087
    141      2      H          -0.01360240     0.04702320    -0.00942390
    142      1      O          -0.06807061    -0.03793537     0.09886948
    143      2      H           0.01597949    -0.08904663     0.00645347
    144      2      H          -0.02459945     0.07109498    -0.06551959
    145      1      O           0.05203938    -0.10549689    -0.02409594
    146      2      H           0.01016090     0.02427079    -0.02385288
    147      2      H          -0.03061592     0.05870738    -0.02038540
    148      1      O          -0.09646250    -0.08369810    -0.07327438
    149      2      H           0.04426140     0.04433177    -0.04584498
    150      2      H          -0.01902750    -0.02272675     0.07822495
    151      1      O          -0.10560556    -0.07197152    -0.14815459
    152      2      H          -0.02010387    -0.04800761     0.09991547
    153      2      H           0.09090258     0.03078533     0.03774480
    154      1      O          -0.02530084    -0.04958113     0.00613727
    155      2      H           0.02754407     0.02142920     0.08685561
    156      2      H           0.04325371    -0.01252313    -0.04480457
    157      1      O           0.01174518    -0.07462620     0.02571892
    158      2      H          -0.07579304     0.04568315    -0.06178180
    159      2      H           0.03605121     0.00308073     0.05282799
    160      1      O          -0.04089988     0.05326537     0.02913836
    161      2      H          -0.03880088    -0.01873731     0.00567056
    162      2      H           0.06577284    -0.00057180    -0.03521913
    163      1      O           0.06316250    -0.09776976     0.00612387
    164      2      H          -0.04205168     0.01714291    -0.01265559
    165      2      H           0.01146410     0.09063400     0.01551029
    166      1      O           0.03636104    -0.00081716     0.04450563
    167      2      H           0.03267158     0.04370923     0.01211943
    168      2      H          -0.01796969    -0.02201981    -0.02458776
    169      1      O           0.12114317    -0.04329581     0.05407528
    170      2      H          -0.02585827     0.04956291     0.01961087
    171      2      H          -0.02163099    -0.07224717    -0.00427639
    172      1      O          -0.03895685     0.06892309    -0.01722321
    173      2      H          -0.01293614    -0.02261207    -0.02820850
    174      2      H           0.01924610    -0.05197600     0.08312194
    175      1      O           0.01865886     0.08099589     0.01563481
    176      2      H           0.06121671    -0.06715351     0.01882527
    177      2      H          -0.02361766     0.03145648    -0.06724306
    178      1      O           0.05713575    -0.00532651     0.03033653
    179      2      H          -0.04863202    -0.01127702    -0.04714783
    180      2      H           0.03687266     0.02630153     0.03341934
    181      1      O          -0.09244540    -0.03650627    -0.02170615
    182      2      H          -0.01433961     0.03253817     0.02620129
    183      2      H           0.05658694    -0.07550657     0.00273943
    184      1      O          -0.02212394    -0.07367764     0.01432556
    185      2      H           0.03999812     0.05668310    -0.02694011
    186      2      H          -0.05174918    -0.00726226     0.04950676
    187      1      O           0.02040094    -0.03492332     0.02735047
    188      2      H          -0.03723283     0.01836362    -0.04948852
    189      2      H           0.02146787     0.04778647     0.04473207
    190      1      O           0.06353413    -0.02680950     0.05874001
    191      2      H          -0.09567897     0.00873221     0.01116820
    192      2      H           0.08283058     0.00339188    -0.07568664
 SUM OF ATOMIC FORCES           0.42795193    -1.11820368    -0.02700075     1.19760234

 -------------------------------------------------------------------------------
 -                                                                             -
 -                                DBCSR STATISTICS                             -
 -                                                                             -
 -------------------------------------------------------------------------------
 COUNTER                                    TOTAL       BLAS       SMM       ACC
 flops     5 x     5 x   256           5004787200       0.0%    100.0%      0.0%
 flops     5 x    13 x   256           5970298880       0.0%    100.0%      0.0%
 flops    13 x     5 x   256           6050437120       0.0%    100.0%      0.0%
 flops    13 x    13 x   256           7683253760       0.0%    100.0%      0.0%
 flops inhomo. stacks                           0       0.0%      0.0%      0.0%
 flops total                        24.708777E+09       0.0%    100.0%      0.0%
 flops max/rank                     24.708777E+09       0.0%    100.0%      0.0%
 matmuls inhomo. stacks                         0       0.0%      0.0%      0.0%
 matmuls total                             840994       0.0%    100.0%      0.0%
 number of processed stacks                 42140       0.0%    100.0%      0.0%
 average stack size                                     0.0      20.0       0.0
 marketing flops                   333.927416E+09
 -------------------------------------------------------------------------------
 # multiplications                            301
 max memory usage/rank               4.992639E+09
 # max total images/rank                        1
 # max 3D layers                                1
 # MPI messages exchanged                       0
 MPI messages size (bytes):
  total size                         0.000000E+00
  min size                           0.000000E+00
  max size                           0.000000E+00
  average size                       0.000000E+00
 MPI breakdown and total messages size (bytes):
             size <=      128                   0                        0
       128 < size <=     8192                   0                        0
      8192 < size <=    32768                   0                        0
     32768 < size <=   131072                   0                        0
    131072 < size <=  4194304                   0                        0
   4194304 < size <= 16777216                   0                        0
  16777216 < size                               0                        0
 -------------------------------------------------------------------------------

 MEMORY| Estimated peak process memory [MiB]                                4756

 -------------------------------------------------------------------------------
 -                                                                             -
 -                           R E F E R E N C E S                               -
 -                                                                             -
 -------------------------------------------------------------------------------
 
 CP2K version 7.1, the CP2K developers group (2019).
 CP2K is freely available from https://www.cp2k.org/ .

 Schuett, Ole; Messmer, Peter; Hutter, Juerg; VandeVondele, Joost. 
 Electronic Structure Calculations on Graphics Processing Units, John
 Wiley & Sons, Ltd, 173-190 (2016). 
 GPU-Accelerated Sparse Matrix-Matrix Multiplication for
 Linear Scaling Density Functional Theory.
 https://dx.doi.org/10.1002/9781118670712.ch8

 Borstnik, U; VandeVondele, J; Weber, V; Hutter, J. 
 PARALLEL COMPUTING, 40 (5-6), 47-58 (2014). 
 Sparse matrix multiplication: The distributed block-compressed sparse
 row library.
 https://dx.doi.org/10.1016/j.parco.2014.03.012

 Hutter, J; Iannuzzi, M; Schiffmann, F; VandeVondele, J. 
 WIREs Comput Mol Sci., 4 (1), 15-25 (2014). 
 CP2K: atomistic simulations of condensed matter systems.
 https://dx.doi.org/10.1002/wcms.1159

 Krack, M. 
 THEORETICAL CHEMISTRY ACCOUNTS, 114 (1-3), 145-152 (2005). 
 Pseudopotentials for H to Kr optimized for gradient-corrected
 exchange-correlation functionals.
 https://dx.doi.org/10.1007/s00214-005-0655-y

 VandeVondele, J; Krack, M; Mohamed, F; Parrinello, M; Chassaing, T;
 Hutter, J. COMPUTER PHYSICS COMMUNICATIONS, 167 (2), 103-128 (2005). 
 QUICKSTEP: Fast and accurate density functional calculations using a
 mixed Gaussian and plane waves approach.
 https://dx.doi.org/10.1016/j.cpc.2004.12.014

 Frigo, M; Johnson, SG. 
 PROCEEDINGS OF THE IEEE, 93 (2), 216-231 (2005). 
 The design and implementation of FFTW3.
 https://dx.doi.org/10.1109/JPROC.2004.840301

 Hartwigsen, C; Goedecker, S; Hutter, J. 
 PHYSICAL REVIEW B, 58 (7), 3641-3662 (1998). 
 Relativistic separable dual-space Gaussian pseudopotentials from H to Rn.
 https://dx.doi.org/10.1103/PhysRevB.58.3641

 Lippert, G; Hutter, J; Parrinello, M. 
 MOLECULAR PHYSICS, 92 (3), 477-487 (1997). 
 A hybrid Gaussian and plane wave density functional scheme.
 https://dx.doi.org/10.1080/002689797170220

 Goedecker, S; Teter, M; Hutter, J. 
 PHYSICAL REVIEW B, 54 (3), 1703-1710 (1996). 
 Separable dual-space Gaussian pseudopotentials.
 https://dx.doi.org/10.1103/PhysRevB.54.1703


 -------------------------------------------------------------------------------
 -                                                                             -
 -                                T I M I N G                                  -
 -                                                                             -
 -------------------------------------------------------------------------------
 SUBROUTINE                       CALLS  ASD         SELF TIME        TOTAL TIME
                                MAXIMUM       AVERAGE  MAXIMUM  AVERAGE  MAXIMUM
 CP2K                                 1  1.0    0.182    0.182 2840.040 2840.040
 qs_forces                            1  2.0    0.000    0.000 2838.033 2838.033
 qs_energies                          1  3.0    0.000    0.000 2837.270 2837.270
 scf_env_do_scf                       1  4.0    0.001    0.001 2834.863 2834.863
 scf_env_do_scf_inner_loop          300  5.0    0.067    0.067 2834.862 2834.862
 qs_scf_new_mos                     300  6.0    0.010    0.010 1987.809 1987.809
 eigensolver                        300  7.0    0.053    0.053 1951.209 1951.209
 cp_fm_syevd                        300  8.0 1272.263 1272.263 1274.055 1274.055
 cp_fm_cholesky_restore             900  8.0  676.072  676.072  676.072  676.072
 gspace_mixing                      299  6.0    6.793    6.793  469.489  469.489
 broyden_mixing                     299  7.0  423.790  423.790  423.793  423.793
 rebuild_ks_matrix                  301  7.0    0.001    0.001  195.570  195.570
 qs_ks_build_kohn_sham_matrix       301  8.0    0.080    0.080  195.569  195.569
 qs_ks_update_qs_env                300  6.0    0.004    0.004  195.284  195.284
 pw_transfer                       3912  9.9    0.318    0.318  186.400  186.400
 qs_rho_update_rho                  301  6.0    0.003    0.003  181.119  181.119
 calculate_rho_elec                 301  7.0   86.463   86.463  181.116  181.116
 fft_wrap_pw1pw2                   3310 10.9    0.041    0.041  180.756  180.756
 fft_wrap_pw1pw2_70                1504 11.2   19.505   19.505  166.260  166.260
 density_rs2pw                      301  8.0    0.026    0.026   91.190   91.190
 fft3d_s                           3311 12.9   82.902   82.902   82.936   82.936
 pw_scatter_s                      1804 13.2   61.748   61.748   61.748   61.748
 pw_poisson_solve                   301  9.0   55.365   55.365   60.796   60.796
 -------------------------------------------------------------------------------

 The number of warnings for this run is : 1
 
 -------------------------------------------------------------------------------
  **** **** ******  **  PROGRAM ENDED AT                 2021-02-21 16:22:44.210
 ***** ** ***  *** **   PROGRAM RAN ON                                   gnode68
 **    ****   ******    PROGRAM RAN BY                               mayank.modi
 ***** **    ** ** **   PROGRAM PROCESS ID                                  7323
  **** **  *******  **  PROGRAM STOPPED IN /home/mayank.modi/ab-initio-thermodyn
                                           amics-of-water/mayank/cp2k_energy_cal
                                           culations
