 DBCSR| CPU Multiplication driver                                           XSMM
 DBCSR| Multrec recursion limit                                              512
 DBCSR| Multiplication stack size                                           1000
 DBCSR| Maximum elements for images                                    UNLIMITED
 DBCSR| Multiplicative factor virtual images                                   1
 DBCSR| Use multiplication densification                                       T
 DBCSR| Multiplication size stacks                                             3


  **** **** ******  **  PROGRAM STARTED AT               2021-01-17 23:53:34.031
 ***** ** ***  *** **   PROGRAM STARTED ON                               gnode52
 **    ****   ******    PROGRAM STARTED BY                           mayank.modi
 ***** **    ** ** **   PROGRAM PROCESS ID                                 30907
  **** **  *******  **  PROGRAM STARTED IN /home/mayank.modi/ab-initio-thermodyn
                                           amics-of-water/mayank/cp2k_energy_cal
                                           culations

 CP2K| version string:                                          CP2K version 7.1
 CP2K| source code revision number:                                  git:e635599
 CP2K| cp2kflags: omp libint fftw3 libxc xsmm spglib                            
 CP2K| is freely available from                            https://www.cp2k.org/
 CP2K| Program compiled at                          Mon Dec 23 19:23:12 CET 2019
 CP2K| Program compiled on                                                pc9404
 CP2K| Program compiled for                                Linux-x86-64-gfortran
 CP2K| Data directory path                                        /opt/cp2k/data
 CP2K| Input file name                   input_training_correct_cell/input912.in

 GLOBAL| Force Environment number                                              1
 GLOBAL| Basis set file name                                           BASIS_SET
 GLOBAL| Potential file name                                      GTH_POTENTIALS
 GLOBAL| MM Potential file name                                     MM_POTENTIAL
 GLOBAL| Coordinate file name                                      __STD_INPUT__
 GLOBAL| Method name                                                        CP2K
 GLOBAL| Project name                                                   H2O_bulk
 GLOBAL| Preferred FFT library                                             FFTW3
 GLOBAL| Preferred diagonalization lib.                                       SL
 GLOBAL| Run type                                                   ENERGY_FORCE
 GLOBAL| All-to-all communication in single precision                          F
 GLOBAL| FFTs using library dependent lengths                                  F
 GLOBAL| Global print level                                                  LOW
 GLOBAL| MPI I/O enabled                                                       T
 GLOBAL| Total number of message passing processes                             1
 GLOBAL| Number of threads for this process                                   36
 GLOBAL| This output is from process                                           0
 GLOBAL| CPU model name                Intel(R) Xeon(R) CPU E5-2640 v4 @ 2.40GHz
 GLOBAL| CPUID                                                              1002
 GLOBAL| Compiled for CPUID                                                    0

 MEMORY| system memory details [Kb]
 MEMORY|                        rank 0           min           max       average
 MEMORY| MemTotal            131893316     131893316     131893316     131893316
 MEMORY| MemFree             106384108     106384108     106384108     106384108
 MEMORY| Buffers              13830676      13830676      13830676      13830676
 MEMORY| Cached                3024032       3024032       3024032       3024032
 MEMORY| Slab                  7915744       7915744       7915744       7915744
 MEMORY| SReclaimable          4845728       4845728       4845728       4845728
 MEMORY| MemLikelyFree       128084544     128084544     128084544     128084544


 GENERATE|  Preliminary Number of Bonds generated:                             0
 GENERATE|  Achieved consistency in connectivity generation.

 *******************************************************************************
 *******************************************************************************
 **                                                                           **
 **     #####                         ##              ##                      **
 **    ##   ##            ##          ##              ##                      **
 **   ##     ##                       ##            ######                    **
 **   ##     ##  ##   ##  ##   #####  ##  ##   ####   ##    #####    #####    **
 **   ##     ##  ##   ##  ##  ##      ## ##   ##      ##   ##   ##  ##   ##   **
 **   ##  ## ##  ##   ##  ##  ##      ####     ###    ##   ######   ######    **
 **    ##  ###   ##   ##  ##  ##      ## ##      ##   ##   ##       ##        **
 **     #######   #####   ##   #####  ##  ##  ####    ##    #####   ##        **
 **           ##                                                    ##        **
 **                                                                           **
 **                                                ... make the atoms dance   **
 **                                                                           **
 **            Copyright (C) by CP2K developers group (2000 - 2019)           **
 **                                                                           **
 *******************************************************************************


 TOTAL NUMBERS AND MAXIMUM NUMBERS

  Total number of            - Atomic kinds:                                   2
                             - Atoms:                                        192
                             - Shell sets:                                   384
                             - Shells:                                       704
                             - Primitive Cartesian functions:                960
                             - Cartesian basis functions:                   1536
                             - Spherical basis functions:                   1472

  Maximum angular momentum of- Orbital basis functions:                        2
                             - Local part of the GTH pseudopotential:          2
                             - Non-local part of the GTH pseudopotential:      0


 SCF PARAMETERS         Density guess:                                    ATOMIC
                        --------------------------------------------------------
                        max_scf:                                             300
                        max_scf_history:                                       0
                        max_diis:                                              4
                        --------------------------------------------------------
                        eps_scf:                                        1.00E-07
                        eps_scf_history:                                0.00E+00
                        eps_diis:                                       1.00E-01
                        eps_eigval:                                     1.00E-05
                        --------------------------------------------------------
                        level_shift [a.u.]:                                 0.00
                        --------------------------------------------------------
                        Mixing method:                            BROYDEN_MIXING
                                                charge density mixing in g-space
                        --------------------------------------------------------
                        No outer SCF

 Number of electrons:                                                        512
 Number of occupied orbitals:                                                256
 Number of molecular orbitals:                                               256

 Number of orbital functions:                                               1472
 Number of independent orbital functions:                                   1472

 Extrapolation method: initial_guess


 SCF WAVEFUNCTION OPTIMIZATION

  Step     Update method      Time    Convergence         Total energy    Change
  ------------------------------------------------------------------------------
     1 NoMix/Diag. 0.40E+00    7.1     0.62465870     -1064.1010878738 -1.06E+03
     2 Broy./Diag. 0.40E+00    8.2     1.84713805      -994.4541393014  6.96E+01
     3 Broy./Diag. 0.40E+00    8.2     1.93741962     -1270.7485359209 -2.76E+02
     4 Broy./Diag. 0.40E+00    8.1     1.83749759     -1129.3042474392  1.41E+02
     5 Broy./Diag. 0.40E+00    8.2     1.45374070     -1088.5706188897  4.07E+01
     6 Broy./Diag. 0.40E+00    8.3     1.80377514     -1094.1611366506 -5.59E+00
     7 Broy./Diag. 0.40E+00    8.5     1.43694267     -1095.8892383864 -1.73E+00
     8 Broy./Diag. 0.40E+00    8.6     1.53053446     -1085.8699467471  1.00E+01
     9 Broy./Diag. 0.40E+00    8.6     1.61871023     -1079.0839704384  6.79E+00
    10 Broy./Diag. 0.40E+00    9.0     1.56652944     -1080.1522793725 -1.07E+00
    11 Broy./Diag. 0.40E+00    8.8     1.30896383     -1074.6761781580  5.48E+00
    12 Broy./Diag. 0.40E+00    8.6     0.40698910     -1072.2561525389  2.42E+00
    13 Broy./Diag. 0.40E+00    8.6     1.52041515     -1067.3595510559  4.90E+00
    14 Broy./Diag. 0.40E+00    8.9     1.62509224     -1082.7297700878 -1.54E+01
    15 Broy./Diag. 0.40E+00    8.9     0.35708208     -1083.7436667234 -1.01E+00
    16 Broy./Diag. 0.40E+00    8.9     0.25860651     -1075.6567755094  8.09E+00
    17 Broy./Diag. 0.40E+00    8.9     0.26497064     -1076.4692733506 -8.12E-01
    18 Broy./Diag. 0.40E+00    9.1     0.16490052     -1074.8021134029  1.67E+00
    19 Broy./Diag. 0.40E+00    9.0     0.15106660     -1077.0332441633 -2.23E+00
    20 Broy./Diag. 0.40E+00    8.9     0.12885564     -1075.5796462846  1.45E+00
    21 Broy./Diag. 0.40E+00    8.9     0.06981787     -1075.2716752575  3.08E-01
    22 Broy./Diag. 0.40E+00    8.9     0.03713537     -1075.7406904257 -4.69E-01
    23 Broy./Diag. 0.40E+00    8.8     1.53552485     -1075.6494953040  9.12E-02
    24 Broy./Diag. 0.40E+00    9.0     1.53685797     -1077.9693753194 -2.32E+00
    25 Broy./Diag. 0.40E+00    9.0     0.08758395     -1076.4687088926  1.50E+00
    26 Broy./Diag. 0.40E+00    8.9     0.06268393     -1074.9709425671  1.50E+00
    27 Broy./Diag. 0.40E+00    8.8     0.01268071     -1075.8052648467 -8.34E-01
    28 Broy./Diag. 0.40E+00    8.7     0.01131556     -1076.0683561006 -2.63E-01
    29 Broy./Diag. 0.40E+00    8.8     0.00987786     -1075.9481794914  1.20E-01
    30 Broy./Diag. 0.40E+00    8.9     0.00775646     -1075.8641391087  8.40E-02
    31 Broy./Diag. 0.40E+00    9.1     0.00651030     -1075.9028179760 -3.87E-02
    32 Broy./Diag. 0.40E+00    8.8     0.00422312     -1075.9352580961 -3.24E-02
    33 Broy./Diag. 0.40E+00    9.0     1.51356772     -1075.9604978840 -2.52E-02
    34 Broy./Diag. 0.40E+00    8.9     1.52172046     -1077.4451677095 -1.48E+00
    35 Broy./Diag. 0.40E+00    8.9     0.07890692     -1075.9263730883  1.52E+00
    36 Broy./Diag. 0.40E+00    8.8     0.06164641     -1075.5696698810  3.57E-01
    37 Broy./Diag. 0.40E+00    8.7     0.01324723     -1076.0711399684 -5.01E-01
    38 Broy./Diag. 0.40E+00    8.9     0.00796525     -1075.8548669962  2.16E-01
    39 Broy./Diag. 0.40E+00    8.8     0.00604189     -1075.9563592068 -1.01E-01
    40 Broy./Diag. 0.40E+00    8.8     0.00416760     -1075.9980569434 -4.17E-02
    41 Broy./Diag. 0.40E+00    8.8     0.00272154     -1075.9248387364  7.32E-02
    42 Broy./Diag. 0.40E+00    8.9     0.00309221     -1075.9617971378 -3.70E-02
    43 Broy./Diag. 0.40E+00    8.8     1.50774228     -1075.9774627763 -1.57E-02
    44 Broy./Diag. 0.40E+00    8.8     1.51646313     -1077.4794182536 -1.50E+00
    45 Broy./Diag. 0.40E+00    8.8     0.03626483     -1075.8727232830  1.61E+00
    46 Broy./Diag. 0.40E+00    8.9     0.03196432     -1075.9696942753 -9.70E-02
    47 Broy./Diag. 0.40E+00    8.8     0.01341453     -1075.9808539143 -1.12E-02
    48 Broy./Diag. 0.40E+00    9.0     0.00630984     -1075.9353429483  4.55E-02
    49 Broy./Diag. 0.40E+00    8.9     0.00294552     -1075.9400765301 -4.73E-03
    50 Broy./Diag. 0.40E+00    8.8     0.00250784     -1075.9790527747 -3.90E-02
    51 Broy./Diag. 0.40E+00    9.0     0.00361939     -1075.9308165910  4.82E-02
    52 Broy./Diag. 0.40E+00    8.9     0.00474365     -1075.9582938279 -2.75E-02
    53 Broy./Diag. 0.40E+00    8.9     1.50424447     -1075.9703057124 -1.20E-02
    54 Broy./Diag. 0.40E+00    9.0     1.52251028     -1077.3501659793 -1.38E+00
    55 Broy./Diag. 0.40E+00    8.9     0.03861373     -1075.9549139012  1.40E+00
    56 Broy./Diag. 0.40E+00    8.9     0.02828049     -1075.9514254101  3.49E-03
    57 Broy./Diag. 0.40E+00    8.9     0.01723927     -1075.9350749936  1.64E-02
    58 Broy./Diag. 0.40E+00    9.0     0.00622254     -1075.9533370573 -1.83E-02
    59 Broy./Diag. 0.40E+00    8.8     0.00487504     -1075.9535248984 -1.88E-04
    60 Broy./Diag. 0.40E+00    9.0     0.00271335     -1075.9507062056  2.82E-03
    61 Broy./Diag. 0.40E+00    8.8     0.00201109     -1075.9822497530 -3.15E-02
    62 Broy./Diag. 0.40E+00    8.7     1.50595234     -1075.9495135576  3.27E-02
    63 Broy./Diag. 0.40E+00    9.0     1.52027006     -1077.4962881530 -1.55E+00
    64 Broy./Diag. 0.40E+00    8.8     0.04522838     -1075.9402660800  1.56E+00
    65 Broy./Diag. 0.40E+00    8.8     0.03257656     -1076.0214707328 -8.12E-02
    66 Broy./Diag. 0.40E+00    9.1     0.01461531     -1075.8962240775  1.25E-01
    67 Broy./Diag. 0.40E+00    8.9     0.01596338     -1076.0052180965 -1.09E-01
    68 Broy./Diag. 0.40E+00    9.0     0.00843899     -1075.9681038262  3.71E-02
    69 Broy./Diag. 0.40E+00    8.7     0.00366285     -1075.9424093777  2.57E-02
    70 Broy./Diag. 0.40E+00    8.2     0.00349919     -1075.9567786401 -1.44E-02
    71 Broy./Diag. 0.40E+00    8.3     0.00233097     -1075.9500221762  6.76E-03
    72 Broy./Diag. 0.40E+00    8.5     1.51050890     -1075.9644086727 -1.44E-02
    73 Broy./Diag. 0.40E+00    8.3     1.52628626     -1077.3354998068 -1.37E+00
    74 Broy./Diag. 0.40E+00    8.8     0.03584236     -1075.8586474595  1.48E+00
    75 Broy./Diag. 0.40E+00    8.9     0.02401462     -1075.9730723070 -1.14E-01
    76 Broy./Diag. 0.40E+00    8.9     0.01851168     -1076.0066102787 -3.35E-02
    77 Broy./Diag. 0.40E+00    9.0     0.00757396     -1075.9219935252  8.46E-02
    78 Broy./Diag. 0.40E+00    9.0     0.00664020     -1075.9025826821  1.94E-02
    79 Broy./Diag. 0.40E+00    9.3     0.00370135     -1075.9517100399 -4.91E-02
    80 Broy./Diag. 0.40E+00    9.0     0.00188461     -1075.9645666988 -1.29E-02
    81 Broy./Diag. 0.40E+00    8.9     0.00406903     -1075.9320593449  3.25E-02
    82 Broy./Diag. 0.40E+00    8.9     1.50987508     -1075.9567943571 -2.47E-02
    83 Broy./Diag. 0.40E+00    8.7     1.52072101     -1077.5248838937 -1.57E+00
    84 Broy./Diag. 0.40E+00    8.7     0.03920556     -1075.9008025783  1.62E+00
    85 Broy./Diag. 0.40E+00    8.9     0.03307046     -1076.0728083047 -1.72E-01
    86 Broy./Diag. 0.40E+00    8.8     0.01330412     -1075.9200993790  1.53E-01
    87 Broy./Diag. 0.40E+00    8.7     0.01131991     -1075.9589568768 -3.89E-02
    88 Broy./Diag. 0.40E+00    8.8     0.00713918     -1075.9515647420  7.39E-03
    89 Broy./Diag. 0.40E+00    8.9     0.00556907     -1075.9734635557 -2.19E-02
    90 Broy./Diag. 0.40E+00    9.0     0.00359270     -1075.9580204071  1.54E-02
    91 Broy./Diag. 0.40E+00    8.8     0.00413033     -1075.9460237132  1.20E-02
    92 Broy./Diag. 0.40E+00    8.8     1.50260900     -1075.9744051004 -2.84E-02
    93 Broy./Diag. 0.40E+00    8.9     1.51597862     -1077.3254241381 -1.35E+00
    94 Broy./Diag. 0.40E+00    8.8     1.51638735     -1075.8936238447  1.43E+00
    95 Broy./Diag. 0.40E+00    8.8     1.52436420     -1077.6294856675 -1.74E+00
    96 Broy./Diag. 0.40E+00    8.9     0.06727934     -1076.0112319062  1.62E+00
    97 Broy./Diag. 0.40E+00    8.8     0.04979755     -1075.7777926891  2.33E-01
    98 Broy./Diag. 0.40E+00    8.7     0.02723680     -1075.8566740318 -7.89E-02
    99 Broy./Diag. 0.40E+00   10.3     0.02259587     -1075.9466386785 -9.00E-02
   100 Broy./Diag. 0.40E+00    8.7     0.01373262     -1075.9916283322 -4.50E-02
   101 Broy./Diag. 0.40E+00    8.7     0.00458074     -1075.9546462762  3.70E-02
   102 Broy./Diag. 0.40E+00    8.8     0.00741643     -1075.9234161245  3.12E-02
   103 Broy./Diag. 0.40E+00    9.0     0.00825566     -1075.9278769445 -4.46E-03
   104 Broy./Diag. 0.40E+00    8.9     1.51627532     -1075.9882812759 -6.04E-02
   105 Broy./Diag. 0.40E+00    8.8     1.52704967     -1077.3493030853 -1.36E+00
   106 Broy./Diag. 0.40E+00    8.7     1.33641564     -1077.5793443493 -2.30E-01
   107 Broy./Diag. 0.40E+00    8.9     0.12091684     -1075.7590405379  1.82E+00
   108 Broy./Diag. 0.40E+00    8.9     0.07521943     -1075.7939599868 -3.49E-02
   109 Broy./Diag. 0.40E+00    8.9     0.01275173     -1075.9158285031 -1.22E-01
   110 Broy./Diag. 0.40E+00    8.9     0.00856050     -1075.9350237952 -1.92E-02
   111 Broy./Diag. 0.40E+00    8.9     0.00416401     -1075.8834685215  5.16E-02
   112 Broy./Diag. 0.40E+00    8.7     0.00302250     -1075.9325607279 -4.91E-02
   113 Broy./Diag. 0.40E+00    8.3     0.00169293     -1075.9358364150 -3.28E-03
   114 Broy./Diag. 0.40E+00    8.3     1.51200052     -1075.8990124596  3.68E-02
   115 Broy./Diag. 0.40E+00    8.7     1.52720245     -1077.5301902200 -1.63E+00
   116 Broy./Diag. 0.40E+00    8.9     0.04229450     -1076.0110729563  1.52E+00
   117 Broy./Diag. 0.40E+00    9.0     0.03790317     -1075.7832460057  2.28E-01
   118 Broy./Diag. 0.40E+00    8.8     0.01683821     -1075.9705117137 -1.87E-01
   119 Broy./Diag. 0.40E+00    8.8     0.00451869     -1075.9764316867 -5.92E-03
   120 Broy./Diag. 0.40E+00    8.8     0.00429768     -1075.9446152619  3.18E-02
   121 Broy./Diag. 0.40E+00    8.8     0.00225310     -1075.9452430127 -6.28E-04
   122 Broy./Diag. 0.40E+00    8.9     0.00296320     -1075.9467318534 -1.49E-03
   123 Broy./Diag. 0.40E+00    8.9     0.00299444     -1075.9701075629 -2.34E-02
   124 Broy./Diag. 0.40E+00    8.9     1.50547788     -1075.9440637617  2.60E-02
   125 Broy./Diag. 0.40E+00    8.6     1.51468298     -1077.3413288152 -1.40E+00
   126 Broy./Diag. 0.40E+00    8.7     0.02163322     -1075.9527815515  1.39E+00
   127 Broy./Diag. 0.40E+00    8.7     0.01570742     -1075.9757536654 -2.30E-02
   128 Broy./Diag. 0.40E+00    8.8     0.00816235     -1075.9911103379 -1.54E-02
   129 Broy./Diag. 0.40E+00    8.9     0.00722763     -1075.9917272569 -6.17E-04
   130 Broy./Diag. 0.40E+00    9.0     1.50130385     -1075.9800165484  1.17E-02
   131 Broy./Diag. 0.40E+00    8.8     1.52423516     -1077.4654605372 -1.49E+00
   132 Broy./Diag. 0.40E+00    8.8     0.04203465     -1075.8129242154  1.65E+00
   133 Broy./Diag. 0.40E+00    8.9     0.03354374     -1076.3657153629 -5.53E-01
   134 Broy./Diag. 0.40E+00    8.7     0.00813562     -1075.8880486097  4.78E-01
   135 Broy./Diag. 0.40E+00    8.8     0.00708500     -1076.0021633978 -1.14E-01
   136 Broy./Diag. 0.40E+00    8.8     0.00455933     -1075.9296711394  7.25E-02
   137 Broy./Diag. 0.40E+00    8.6     0.00347998     -1075.9200248040  9.65E-03
   138 Broy./Diag. 0.40E+00    8.7     0.00436076     -1075.9484251141 -2.84E-02
   139 Broy./Diag. 0.40E+00    8.7     0.00281550     -1075.9457879594  2.64E-03
   140 Broy./Diag. 0.40E+00    8.9     1.51724269     -1075.9292448054  1.65E-02
   141 Broy./Diag. 0.40E+00    8.8     1.54562094     -1077.2734142759 -1.34E+00
   142 Broy./Diag. 0.40E+00    8.9     1.33225749     -1077.5484654054 -2.75E-01
   143 Broy./Diag. 0.40E+00    8.8     1.34215835     -1075.6823038759  1.87E+00
   144 Broy./Diag. 0.40E+00    8.9     0.29012820     -1078.0098982515 -2.33E+00
   145 Broy./Diag. 0.40E+00    8.7     1.29665268     -1077.6611059218  3.49E-01
   146 Broy./Diag. 0.40E+00    8.6     0.09218178     -1075.6956748392  1.97E+00
   147 Broy./Diag. 0.40E+00    8.6     0.06053157     -1075.9067012313 -2.11E-01
   148 Broy./Diag. 0.40E+00    8.4     0.02178583     -1075.8141152604  9.26E-02
   149 Broy./Diag. 0.40E+00    8.6     0.00911702     -1075.8026100929  1.15E-02
   150 Broy./Diag. 0.40E+00    8.6     1.55583062     -1075.8275861330 -2.50E-02
   151 Broy./Diag. 0.40E+00    8.5     1.55559141     -1077.8005659403 -1.97E+00
   152 Broy./Diag. 0.40E+00    8.5     0.03227869     -1075.8334476879  1.97E+00
   153 Broy./Diag. 0.40E+00    8.8     0.03475146     -1075.7612049211  7.22E-02
   154 Broy./Diag. 0.40E+00    8.7     0.02900115     -1076.0552697737 -2.94E-01
   155 Broy./Diag. 0.40E+00    8.7     0.01993471     -1075.9207287456  1.35E-01
   156 Broy./Diag. 0.40E+00    8.3     0.01361050     -1075.8520347099  6.87E-02
   157 Broy./Diag. 0.40E+00    8.5     0.01497773     -1076.0343199781 -1.82E-01
   158 Broy./Diag. 0.40E+00    8.8     0.00811336     -1075.9846896864  4.96E-02
   159 Broy./Diag. 0.40E+00    9.0     0.00440586     -1075.9336651496  5.10E-02
   160 Broy./Diag. 0.40E+00    8.9     1.51181356     -1075.9476904910 -1.40E-02
   161 Broy./Diag. 0.40E+00    9.1     1.52019958     -1077.3411796682 -1.39E+00
   162 Broy./Diag. 0.40E+00    8.9     0.02880162     -1075.9152744207  1.43E+00
   163 Broy./Diag. 0.40E+00    9.0     0.02718984     -1076.1609715464 -2.46E-01
   164 Broy./Diag. 0.40E+00    8.8     0.01183001     -1075.9763421645  1.85E-01
   165 Broy./Diag. 0.40E+00    9.7     0.00671881     -1075.9483810666  2.80E-02
   166 Broy./Diag. 0.40E+00    8.9     0.00470068     -1075.9521360281 -3.75E-03
   167 Broy./Diag. 0.40E+00    8.8     0.00349341     -1075.9729464552 -2.08E-02
   168 Broy./Diag. 0.40E+00    8.8     0.00371184     -1075.9721163577  8.30E-04
   169 Broy./Diag. 0.40E+00    8.6     0.00361370     -1075.9550433444  1.71E-02
   170 Broy./Diag. 0.40E+00    8.5     1.50299689     -1075.9691012636 -1.41E-02
   171 Broy./Diag. 0.40E+00    8.9     1.51967477     -1077.5327487068 -1.56E+00
   172 Broy./Diag. 0.40E+00    8.7     0.02901555     -1075.9626994216  1.57E+00
   173 Broy./Diag. 0.40E+00    8.3     0.01957183     -1075.8720545639  9.06E-02
   174 Broy./Diag. 0.40E+00    8.2     0.00644438     -1075.9364174282 -6.44E-02
   175 Broy./Diag. 0.40E+00    8.7     0.00500155     -1075.9674791743 -3.11E-02
   176 Broy./Diag. 0.40E+00    8.7     0.00243238     -1075.9390603996  2.84E-02
   177 Broy./Diag. 0.40E+00    8.3     0.00289677     -1075.9482145391 -9.15E-03
   178 Broy./Diag. 0.40E+00    8.7     0.00196240     -1075.9499900763 -1.78E-03
   179 Broy./Diag. 0.40E+00    8.8     0.00260209     -1075.9479574544  2.03E-03
   180 Broy./Diag. 0.40E+00    8.7     1.50987821     -1075.9466384415  1.32E-03
   181 Broy./Diag. 0.40E+00    9.0     1.53905248     -1077.4884902841 -1.54E+00
   182 Broy./Diag. 0.40E+00    8.9     0.03141152     -1075.9390859849  1.55E+00
   183 Broy./Diag. 0.40E+00    8.8     0.01726249     -1075.7767856781  1.62E-01
   184 Broy./Diag. 0.40E+00    8.8     0.00668589     -1075.9047725945 -1.28E-01
   185 Broy./Diag. 0.40E+00    8.4     0.00665299     -1075.9363214440 -3.15E-02
   186 Broy./Diag. 0.40E+00    8.8     0.00391955     -1075.9204300536  1.59E-02
   187 Broy./Diag. 0.40E+00    8.9     0.00349542     -1075.9156733804  4.76E-03
   188 Broy./Diag. 0.40E+00    8.8     0.00339529     -1075.9294347823 -1.38E-02
   189 Broy./Diag. 0.40E+00    8.9     0.00467405     -1075.9276627922  1.77E-03
   190 Broy./Diag. 0.40E+00    9.0     1.51475789     -1075.9382318098 -1.06E-02
   191 Broy./Diag. 0.40E+00    8.7     1.49711256     -1077.3288038551 -1.39E+00
   192 Broy./Diag. 0.40E+00    8.7     0.04714099     -1075.9571959973  1.37E+00
   193 Broy./Diag. 0.40E+00    8.4     1.49931260     -1075.9089449875  4.83E-02
   194 Broy./Diag. 0.40E+00    8.4     1.56669674     -1077.5900900120 -1.68E+00
   195 Broy./Diag. 0.40E+00    8.7     1.32943863     -1077.4653167167  1.25E-01
   196 Broy./Diag. 0.40E+00    8.9     0.09303575     -1075.7644238274  1.70E+00
   197 Broy./Diag. 0.40E+00    8.8     0.10068667     -1076.0672189381 -3.03E-01
   198 Broy./Diag. 0.40E+00    8.9     0.02474583     -1075.8047723092  2.62E-01
   199 Broy./Diag. 0.40E+00    8.9     0.01370556     -1075.8017064480  3.07E-03
   200 Broy./Diag. 0.40E+00    8.8     0.00748783     -1075.9469873876 -1.45E-01
   201 Broy./Diag. 0.40E+00    8.9     0.00493938     -1075.8616890385  8.53E-02
   202 Broy./Diag. 0.40E+00    9.1     0.01029425     -1075.8362541152  2.54E-02
   203 Broy./Diag. 0.40E+00    8.8     1.54030795     -1075.9087897783 -7.25E-02
   204 Broy./Diag. 0.40E+00    8.9     1.52912508     -1077.5208737574 -1.61E+00
   205 Broy./Diag. 0.40E+00    8.7     0.06064288     -1075.8726071585  1.65E+00
   206 Broy./Diag. 0.40E+00    8.8     0.04691835     -1075.7309520626  1.42E-01
   207 Broy./Diag. 0.40E+00    8.8     0.02214578     -1075.9197412319 -1.89E-01
   208 Broy./Diag. 0.40E+00    8.7     0.01616681     -1075.9581797968 -3.84E-02
   209 Broy./Diag. 0.40E+00    8.7     0.00729391     -1075.9382831721  1.99E-02
   210 Broy./Diag. 0.40E+00    8.8     0.00644459     -1075.9469633387 -8.68E-03
   211 Broy./Diag. 0.40E+00    9.0     0.00609669     -1075.9458195968  1.14E-03
   212 Broy./Diag. 0.40E+00    8.7     0.00442158     -1075.9473269764 -1.51E-03
   213 Broy./Diag. 0.40E+00    8.3     1.50952039     -1075.9577211743 -1.04E-02
   214 Broy./Diag. 0.40E+00    8.7     1.52628687     -1077.6068442350 -1.65E+00
   215 Broy./Diag. 0.40E+00    8.7     0.04704380     -1076.0072840972  1.60E+00
   216 Broy./Diag. 0.40E+00    8.3     0.03031896     -1075.6759878168  3.31E-01
   217 Broy./Diag. 0.40E+00    8.7     0.01934847     -1075.9493755877 -2.73E-01
   218 Broy./Diag. 0.40E+00    8.9     0.00790893     -1075.9708581768 -2.15E-02
   219 Broy./Diag. 0.40E+00    8.8     0.00600298     -1075.9085341450  6.23E-02
   220 Broy./Diag. 0.40E+00    8.9     0.00317661     -1075.9335573232 -2.50E-02
   221 Broy./Diag. 0.40E+00    8.8     0.00187891     -1075.9507451508 -1.72E-02
   222 Broy./Diag. 0.40E+00    8.9     0.00199131     -1075.9417425494  9.00E-03
   223 Broy./Diag. 0.40E+00    8.7     1.51110439     -1075.9400265141  1.72E-03
   224 Broy./Diag. 0.40E+00    8.7     1.51467245     -1077.2806218197 -1.34E+00
   225 Broy./Diag. 0.40E+00    8.9     0.04460678     -1075.8962101587  1.38E+00
   226 Broy./Diag. 0.40E+00    8.8     0.03864720     -1075.9676579397 -7.14E-02
   227 Broy./Diag. 0.40E+00    8.9     0.01191610     -1076.0299366121 -6.23E-02
   228 Broy./Diag. 0.40E+00    8.8     0.00904637     -1075.9360382437  9.39E-02
   229 Broy./Diag. 0.40E+00    8.9     0.00493390     -1075.9375650303 -1.53E-03
   230 Broy./Diag. 0.40E+00    8.9     1.30568058     -1075.9757683935 -3.82E-02
   231 Broy./Diag. 0.40E+00    8.9     1.32570045     -1077.3119347583 -1.34E+00
   232 Broy./Diag. 0.40E+00    8.9     0.03189290     -1075.8858229045  1.43E+00
   233 Broy./Diag. 0.40E+00    8.9     0.02754641     -1076.0746259106 -1.89E-01
   234 Broy./Diag. 0.40E+00    8.7     0.01450112     -1075.9210445612  1.54E-01
   235 Broy./Diag. 0.40E+00    8.8     0.01071658     -1075.9797275110 -5.87E-02
   236 Broy./Diag. 0.40E+00    8.7     0.00861168     -1075.9093568848  7.04E-02
   237 Broy./Diag. 0.40E+00    8.8     0.00470918     -1075.9289107869 -1.96E-02
   238 Broy./Diag. 0.40E+00    9.0     0.00345234     -1075.9638387931 -3.49E-02
   239 Broy./Diag. 0.40E+00    8.8     0.00210733     -1075.9565438101  7.29E-03
   240 Broy./Diag. 0.40E+00    8.8     1.51101845     -1075.9418750459  1.47E-02
   241 Broy./Diag. 0.40E+00    8.7     1.53123571     -1077.2789384117 -1.34E+00
   242 Broy./Diag. 0.40E+00    8.8     1.30470466     -1075.8733043979  1.41E+00
   243 Broy./Diag. 0.40E+00    8.9     1.30946076     -1077.6620621547 -1.79E+00
   244 Broy./Diag. 0.40E+00    8.7     0.04360872     -1075.9464986733  1.72E+00
   245 Broy./Diag. 0.40E+00    8.4     0.02949900     -1075.7209638789  2.26E-01
   246 Broy./Diag. 0.40E+00    8.9     0.01120151     -1075.9193968866 -1.98E-01
   247 Broy./Diag. 0.40E+00    8.5     0.00855800     -1075.9416213907 -2.22E-02
   248 Broy./Diag. 0.40E+00    8.4     0.00471614     -1075.9411530600  4.68E-04
   249 Broy./Diag. 0.40E+00    8.5     0.00288933     -1075.9120725623  2.91E-02
   250 Broy./Diag. 0.40E+00    9.2     1.51887873     -1075.9454286972 -3.34E-02
   251 Broy./Diag. 0.40E+00    8.7     1.52100342     -1077.6843840748 -1.74E+00
   252 Broy./Diag. 0.40E+00    8.3     0.04118405     -1075.9944682098  1.69E+00
   253 Broy./Diag. 0.40E+00    8.8     0.03476523     -1075.8359839286  1.58E-01
   254 Broy./Diag. 0.40E+00    8.8     0.00906053     -1075.9752705844 -1.39E-01
   255 Broy./Diag. 0.40E+00    8.7     0.00760323     -1075.9826805449 -7.41E-03
   256 Broy./Diag. 0.40E+00    8.9     0.00454838     -1075.9681939856  1.45E-02
   257 Broy./Diag. 0.40E+00    8.9     0.00808472     -1075.9652067934  2.99E-03
   258 Broy./Diag. 0.40E+00    8.9     0.00257389     -1075.9703846103 -5.18E-03
   259 Broy./Diag. 0.40E+00    8.7     1.46417140     -1075.9717613666 -1.38E-03
   260 Broy./Diag. 0.40E+00    8.9     1.48605152     -1077.4653086698 -1.49E+00
   261 Broy./Diag. 0.40E+00    8.8     0.02605522     -1075.8781214655  1.59E+00
   262 Broy./Diag. 0.40E+00    9.1     0.02345273     -1076.1592015380 -2.81E-01
   263 Broy./Diag. 0.40E+00    8.9     0.00993339     -1075.9687260675  1.90E-01
   264 Broy./Diag. 0.40E+00    9.1     0.00761292     -1075.9129860210  5.57E-02
   265 Broy./Diag. 0.40E+00    9.1     0.00392503     -1075.9435842963 -3.06E-02
   266 Broy./Diag. 0.40E+00    8.8     0.00305354     -1075.9641530229 -2.06E-02
   267 Broy./Diag. 0.40E+00    8.8     0.00233592     -1075.9586531015  5.50E-03
   268 Broy./Diag. 0.40E+00    9.0     0.00289568     -1075.9581233538  5.30E-04
   269 Broy./Diag. 0.40E+00    8.8     1.50735366     -1075.9564938655  1.63E-03
   270 Broy./Diag. 0.40E+00    8.7     1.51491862     -1077.3232236638 -1.37E+00
   271 Broy./Diag. 0.40E+00    8.8     0.03097832     -1075.9309225337  1.39E+00
   272 Broy./Diag. 0.40E+00    8.9     0.01627886     -1076.0519161332 -1.21E-01
   273 Broy./Diag. 0.40E+00    8.9     0.00744790     -1075.9601478163  9.18E-02
   274 Broy./Diag. 0.40E+00    9.1     1.50098817     -1075.9794374581 -1.93E-02
   275 Broy./Diag. 0.40E+00    8.9     1.51550750     -1077.4901766253 -1.51E+00
   276 Broy./Diag. 0.40E+00    9.1     0.03527843     -1075.9013125496  1.59E+00
   277 Broy./Diag. 0.40E+00    9.0     0.02896097     -1076.1289297293 -2.28E-01
   278 Broy./Diag. 0.40E+00    8.8     0.01279246     -1075.9426089396  1.86E-01
   279 Broy./Diag. 0.40E+00    8.9     0.00606488     -1075.9303723058  1.22E-02
   280 Broy./Diag. 0.40E+00    8.9     0.00640892     -1075.9610390016 -3.07E-02
   281 Broy./Diag. 0.40E+00    8.8     0.00645147     -1075.9529594307  8.08E-03
   282 Broy./Diag. 0.40E+00    9.2     0.00528475     -1075.9378803523  1.51E-02
   283 Broy./Diag. 0.40E+00    8.8     0.00336936     -1075.9676891931 -2.98E-02
   284 Broy./Diag. 0.40E+00    8.8     1.51012217     -1075.9522718264  1.54E-02
   285 Broy./Diag. 0.40E+00    8.7     1.54337409     -1077.2801481392 -1.33E+00
   286 Broy./Diag. 0.40E+00    8.3     1.32827859     -1077.6072435630 -3.27E-01
   287 Broy./Diag. 0.40E+00    8.4     0.07286970     -1075.7863098581  1.82E+00
   288 Broy./Diag. 0.40E+00    8.6     0.05967479     -1076.1691671262 -3.83E-01
   289 Broy./Diag. 0.40E+00    8.8     0.01580149     -1075.8492820925  3.20E-01
   290 Broy./Diag. 0.40E+00    8.9     0.00833931     -1075.9277451792 -7.85E-02
   291 Broy./Diag. 0.40E+00    9.0     0.00338560     -1075.9199285105  7.82E-03
   292 Broy./Diag. 0.40E+00    8.9     0.00245732     -1075.8952581483  2.47E-02
   293 Broy./Diag. 0.40E+00    8.7     0.00514766     -1075.9107554565 -1.55E-02
   294 Broy./Diag. 0.40E+00    8.2     1.51981883     -1075.9125789467 -1.82E-03
   295 Broy./Diag. 0.40E+00    8.6     1.52419832     -1077.5590391502 -1.65E+00
   296 Broy./Diag. 0.40E+00    8.9     0.04949109     -1075.9406681613  1.62E+00
   297 Broy./Diag. 0.40E+00    8.7     0.04280978     -1075.8057491136  1.35E-01
   298 Broy./Diag. 0.40E+00    8.4     0.01017524     -1075.9941232899 -1.88E-01
   299 Broy./Diag. 0.40E+00    8.6     0.00662674     -1075.9539601122  4.02E-02
   300 Broy./Diag. 0.40E+00    8.2     0.00505489     -1075.9505616021  3.40E-03

  Leaving inner SCF loop after reaching   300 steps.


  Electronic density on regular grids:       -511.9995887965        0.0004112035
  Core density on regular grids:              512.0001174859        0.0001174859
  Total charge density on r-space grids:        0.0005286895
  Total charge density g-space grids:           0.0005286895

  Overlap energy of the core charge distribution:               0.00000000000000
  Self energy of the core charge distribution:              -2838.21791979120962
  Core Hamiltonian energy:                                    759.66204981118153
  Hartree energy:                                            1241.07549287324173
  Exchange-correlation energy:                               -238.47018449533979

  Total energy:                                             -1075.95056160212607

 *** WARNING in qs_scf.F:542 :: SCF run NOT converged ***


 ENERGY| Total FORCE_EVAL ( QS ) energy (a.u.):            -1075.993223541993302


 ATOMIC FORCES in [a.u.]

 # Atom   Kind   Element          X              Y              Z
      1      1      O          -0.08019917     0.05186396     0.02497781
      2      2      H           0.02609055     0.01653962     0.00046479
      3      2      H          -0.01246862    -0.00962056    -0.04565247
      4      1      O          -0.08401944    -0.01042952     0.05036063
      5      2      H          -0.00695377     0.06200402    -0.06995581
      6      2      H           0.04006610    -0.03677763     0.00546874
      7      1      O          -0.03523648    -0.10778479     0.00113717
      8      2      H           0.03800954     0.04166773    -0.05941921
      9      2      H          -0.02070579     0.06633464    -0.00994277
     10      1      O           0.00017116    -0.10264624    -0.05426795
     11      2      H           0.10023603    -0.00736470     0.01574645
     12      2      H          -0.00806856     0.02319663     0.09941049
     13      1      O           0.06362347     0.02782435    -0.02659220
     14      2      H          -0.00449966    -0.02013023     0.04974929
     15      2      H          -0.00108343    -0.04856674    -0.05540143
     16      1      O           0.00772636    -0.06852581    -0.05338339
     17      2      H          -0.02917767     0.02930894     0.07034077
     18      2      H          -0.00716036    -0.02427452    -0.04960711
     19      1      O           0.06844609     0.02837889    -0.12529425
     20      2      H          -0.02131921    -0.00795955     0.06037572
     21      2      H           0.05075321    -0.08736223    -0.01062505
     22      1      O          -0.03569219     0.06116169    -0.03720001
     23      2      H           0.03668995    -0.01686710    -0.07684776
     24      2      H           0.03748800     0.04796905     0.04700364
     25      1      O           0.01998406    -0.02920366     0.07882507
     26      2      H          -0.07961908    -0.02948624    -0.01028678
     27      2      H          -0.04174123     0.06394764     0.01365196
     28      1      O           0.06746842    -0.04307060    -0.17310395
     29      2      H           0.07141898    -0.00947649     0.10338632
     30      2      H          -0.10420628     0.00243018     0.06382342
     31      1      O           0.08800640    -0.01260100     0.00816789
     32      2      H          -0.01978397     0.05616888    -0.01109880
     33      2      H          -0.09138910     0.03139071     0.05131617
     34      1      O          -0.10463220     0.00839636    -0.00523988
     35      2      H           0.06545000    -0.04744810     0.00433092
     36      2      H          -0.01035109     0.08812152    -0.00971815
     37      1      O          -0.03710207    -0.10953289    -0.03323379
     38      2      H          -0.05415782    -0.01192904    -0.06939012
     39      2      H           0.00556799     0.05295792     0.02717669
     40      1      O           0.11256982     0.01360584    -0.02257793
     41      2      H          -0.04864011    -0.01729969     0.02048472
     42      2      H          -0.02319145    -0.10939983    -0.01385872
     43      1      O          -0.01627175    -0.06077709     0.09519353
     44      2      H           0.06750521    -0.02057394    -0.07344072
     45      2      H          -0.08892334     0.05305724    -0.04091610
     46      1      O          -0.01130007    -0.03465644     0.05348881
     47      2      H          -0.02341796     0.05213873    -0.00586703
     48      2      H           0.06174701     0.02134629     0.02097487
     49      1      O          -0.05982941     0.11300209    -0.09463079
     50      2      H          -0.02463382    -0.03028772     0.02102228
     51      2      H           0.11098619    -0.02818122     0.02864511
     52      1      O          -0.11563779     0.01003653     0.02343148
     53      2      H           0.03380746    -0.06865630    -0.03282633
     54      2      H          -0.02277443     0.07041836    -0.01520449
     55      1      O           0.13249244    -0.13176513    -0.01587269
     56      2      H          -0.02003488    -0.02475363    -0.08997572
     57      2      H          -0.05845530     0.08036788     0.03083361
     58      1      O          -0.13367378     0.07136884     0.02625686
     59      2      H           0.06507188    -0.10705872    -0.01574426
     60      2      H           0.03839648     0.02214671    -0.03282806
     61      1      O           0.04704062     0.12877468     0.03159842
     62      2      H          -0.09198799    -0.04340512     0.04819777
     63      2      H           0.01995221    -0.03180650    -0.08659210
     64      1      O          -0.03460332    -0.00411418    -0.02298588
     65      2      H           0.08449652     0.06477806    -0.00357152
     66      2      H          -0.01893942    -0.06794519     0.00627377
     67      1      O          -0.00325733     0.05286436     0.02157499
     68      2      H          -0.00087449    -0.03915930    -0.05855654
     69      2      H           0.00553597     0.02611222    -0.00575271
     70      1      O          -0.03240092     0.01597112     0.03129861
     71      2      H          -0.03401009    -0.00922769     0.07812124
     72      2      H          -0.02367988    -0.02486732    -0.03615552
     73      1      O           0.04835620    -0.05986019    -0.01525636
     74      2      H           0.03354746     0.08900308     0.00122923
     75      2      H           0.00343339    -0.02050066     0.07173504
     76      1      O          -0.11332991     0.04764208     0.07784194
     77      2      H           0.05443217     0.03420042    -0.01901738
     78      2      H           0.03779682    -0.06074820    -0.00159784
     79      1      O           0.00010640    -0.08906261     0.09670905
     80      2      H           0.03581148     0.05267368    -0.05764881
     81      2      H          -0.03686398     0.00171373    -0.02178226
     82      1      O          -0.12469897     0.02963875    -0.01246078
     83      2      H           0.01952237     0.05906379    -0.02324851
     84      2      H          -0.02201873    -0.02336575    -0.04504103
     85      1      O          -0.01788822    -0.08883302    -0.03826120
     86      2      H           0.03293798     0.08534877     0.03334443
     87      2      H           0.02195619    -0.04581972    -0.05704892
     88      1      O          -0.05399830     0.12940509    -0.10084535
     89      2      H          -0.01392183     0.00597907     0.01592796
     90      2      H           0.09641989    -0.01390027    -0.02777792
     91      1      O          -0.07234618    -0.10252542    -0.09036769
     92      2      H           0.03235983    -0.01453567    -0.04187741
     93      2      H          -0.00567649     0.02079501     0.06745548
     94      1      O           0.08809175    -0.09187484    -0.00261311
     95      2      H          -0.00877234     0.04745968    -0.07310359
     96      2      H          -0.03932362    -0.06144471     0.04843912
     97      1      O           0.08082427     0.04053708    -0.03879580
     98      2      H           0.04183725    -0.10196468     0.01669031
     99      2      H          -0.04896709    -0.04201621    -0.03055843
    100      1      O          -0.04413140     0.04705495     0.04163211
    101      2      H           0.01929364     0.02056900    -0.04677846
    102      2      H           0.01603729     0.04730514     0.03142818
    103      1      O           0.05957532     0.04155473     0.02542512
    104      2      H          -0.07693307    -0.04523431    -0.03263945
    105      2      H           0.03708328     0.07299412    -0.03174391
    106      1      O          -0.03415371     0.07967529    -0.03813979
    107      2      H           0.02263502     0.05328558     0.09015032
    108      2      H          -0.01045734    -0.02784859     0.00072057
    109      1      O           0.02615407    -0.01946961    -0.09835688
    110      2      H          -0.07501680    -0.01168683     0.01875187
    111      2      H           0.00350526     0.05509669     0.05296136
    112      1      O           0.14611558    -0.06261289    -0.00731071
    113      2      H          -0.04486612     0.06665098     0.02421133
    114      2      H          -0.05928922    -0.01255462    -0.06332058
    115      1      O           0.05983706    -0.03968054    -0.06240431
    116      2      H          -0.02541823     0.00621747     0.07905125
    117      2      H          -0.01080827     0.03900157     0.00037923
    118      1      O           0.08604795    -0.00522947    -0.08163136
    119      2      H           0.04500079     0.06289328     0.03069053
    120      2      H          -0.07536748     0.02497346    -0.00739606
    121      1      O           0.08231527    -0.00832060    -0.10039396
    122      2      H          -0.01867430     0.00276353     0.05792530
    123      2      H           0.03328365     0.04263861    -0.00764794
    124      1      O          -0.00452929     0.03395212    -0.03829808
    125      2      H          -0.02270024    -0.03228833    -0.03621673
    126      2      H          -0.05819508    -0.02464830     0.07804763
    127      1      O          -0.05006630    -0.00218065     0.12198561
    128      2      H           0.02701719    -0.06385159    -0.02192489
    129      2      H           0.03135343     0.08019765     0.00317926
    130      1      O          -0.01420767     0.02610166     0.08459906
    131      2      H          -0.01776075    -0.04475958    -0.04818637
    132      2      H           0.10020421     0.02654604    -0.00698965
    133      1      O          -0.01792142    -0.03615000     0.01584288
    134      2      H          -0.08702714    -0.02398411    -0.06233101
    135      2      H           0.06666262    -0.02538428    -0.02431791
    136      1      O           0.00959425    -0.03956838    -0.05904141
    137      2      H          -0.01777935    -0.01871879     0.03484046
    138      2      H          -0.05860568     0.06196164     0.01082752
    139      1      O          -0.06723343     0.00841777     0.12210752
    140      2      H           0.00513365    -0.03123795    -0.03370484
    141      2      H          -0.00582581     0.02390381    -0.01951292
    142      1      O           0.02770343     0.02585967     0.06634967
    143      2      H          -0.04993036     0.06403492    -0.01184513
    144      2      H          -0.00543361    -0.06217938     0.01170604
    145      1      O           0.06816607     0.11807118     0.06105461
    146      2      H           0.04310445    -0.03543613    -0.02320046
    147      2      H          -0.05629014    -0.03820589     0.02288120
    148      1      O           0.03830786    -0.07689988     0.01223282
    149      2      H           0.02341677     0.05673636     0.01045625
    150      2      H           0.04025692    -0.05001523     0.05299078
    151      1      O           0.00044640     0.09502823    -0.00296446
    152      2      H           0.08277982    -0.01448128     0.00306822
    153      2      H          -0.06223214    -0.04315860    -0.08441938
    154      1      O          -0.03495302     0.09005886    -0.00474904
    155      2      H          -0.00648691     0.02482273    -0.03901936
    156      2      H          -0.06213762    -0.09340452    -0.00045324
    157      1      O          -0.04500169     0.01501479    -0.05194829
    158      2      H           0.00139065    -0.08837409     0.05030890
    159      2      H           0.00425954    -0.00806214    -0.05859365
    160      1      O           0.00991142     0.11605335     0.08548084
    161      2      H          -0.00246013     0.01409494    -0.04767109
    162      2      H           0.05754176    -0.08404177    -0.01130967
    163      1      O           0.01673891     0.06752863    -0.11517598
    164      2      H          -0.00861405    -0.02542445     0.07637708
    165      2      H          -0.07485323    -0.01282694    -0.01526189
    166      1      O           0.01450066     0.05008906     0.03749672
    167      2      H          -0.03637719    -0.06188653     0.04045676
    168      2      H          -0.02380193    -0.01660728    -0.07027499
    169      1      O           0.00466865    -0.02143156     0.09068738
    170      2      H          -0.08110162     0.02176952    -0.00857074
    171      2      H           0.02932276    -0.03574456    -0.04818726
    172      1      O           0.09901551     0.12568936     0.07302430
    173      2      H          -0.04289363     0.00778121    -0.09495645
    174      2      H           0.02285386    -0.09769871     0.03128320
    175      1      O           0.00241691     0.01384595    -0.01412585
    176      2      H           0.00343590     0.07327918    -0.00926177
    177      2      H           0.01584398    -0.01434979    -0.00751133
    178      1      O          -0.08654507    -0.04538836     0.02435625
    179      2      H           0.06717412    -0.03706332    -0.09024557
    180      2      H          -0.05954302     0.00603584     0.00589325
    181      1      O           0.03239830     0.04677398    -0.12676004
    182      2      H           0.00943249    -0.07978065     0.07824139
    183      2      H           0.03310587     0.02509681     0.00653899
    184      1      O           0.01296946     0.00626934    -0.12198564
    185      2      H          -0.10344916    -0.05274305    -0.01647569
    186      2      H           0.00552646     0.04720789     0.07590843
    187      1      O           0.03920115     0.02056776     0.07989877
    188      2      H          -0.09873515    -0.03867348    -0.02292354
    189      2      H           0.02786857    -0.03899638    -0.02715498
    190      1      O           0.01212116    -0.08277277     0.00146980
    191      2      H          -0.00337083    -0.05484876    -0.06496038
    192      2      H          -0.00365193     0.07311663     0.01306425
 SUM OF ATOMIC FORCES          -0.26177998    -0.06965631    -0.79074797     0.83586070

 -------------------------------------------------------------------------------
 -                                                                             -
 -                                DBCSR STATISTICS                             -
 -                                                                             -
 -------------------------------------------------------------------------------
 COUNTER                                    TOTAL       BLAS       SMM       ACC
 flops     5 x     5 x   256           6992832000       0.0%    100.0%      0.0%
 flops     5 x    13 x   256           8504670720       0.0%    100.0%      0.0%
 flops    13 x     5 x   256           8574791680       0.0%    100.0%      0.0%
 flops    13 x    13 x   256          11407678464       0.0%    100.0%      0.0%
 flops inhomo. stacks                           0       0.0%      0.0%      0.0%
 flops total                        35.479973E+09       0.0%    100.0%      0.0%
 flops max/rank                     35.479973E+09       0.0%    100.0%      0.0%
 matmuls inhomo. stacks                         0       0.0%      0.0%      0.0%
 matmuls total                            1191358       0.0%    100.0%      0.0%
 number of processed stacks                 42140       0.0%    100.0%      0.0%
 average stack size                                     0.0      28.3       0.0
 marketing flops                   333.927416E+09
 -------------------------------------------------------------------------------
 # multiplications                            301
 max memory usage/rank               3.558564E+09
 # max total images/rank                        1
 # max 3D layers                                1
 # MPI messages exchanged                       0
 MPI messages size (bytes):
  total size                         0.000000E+00
  min size                           0.000000E+00
  max size                           0.000000E+00
  average size                       0.000000E+00
 MPI breakdown and total messages size (bytes):
             size <=      128                   0                        0
       128 < size <=     8192                   0                        0
      8192 < size <=    32768                   0                        0
     32768 < size <=   131072                   0                        0
    131072 < size <=  4194304                   0                        0
   4194304 < size <= 16777216                   0                        0
  16777216 < size                               0                        0
 -------------------------------------------------------------------------------

 MEMORY| Estimated peak process memory [MiB]                                3399

 -------------------------------------------------------------------------------
 -                                                                             -
 -                           R E F E R E N C E S                               -
 -                                                                             -
 -------------------------------------------------------------------------------
 
 CP2K version 7.1, the CP2K developers group (2019).
 CP2K is freely available from https://www.cp2k.org/ .

 Schuett, Ole; Messmer, Peter; Hutter, Juerg; VandeVondele, Joost. 
 Electronic Structure Calculations on Graphics Processing Units, John
 Wiley & Sons, Ltd, 173-190 (2016). 
 GPU-Accelerated Sparse Matrix-Matrix Multiplication for
 Linear Scaling Density Functional Theory.
 https://dx.doi.org/10.1002/9781118670712.ch8

 Borstnik, U; VandeVondele, J; Weber, V; Hutter, J. 
 PARALLEL COMPUTING, 40 (5-6), 47-58 (2014). 
 Sparse matrix multiplication: The distributed block-compressed sparse
 row library.
 https://dx.doi.org/10.1016/j.parco.2014.03.012

 Hutter, J; Iannuzzi, M; Schiffmann, F; VandeVondele, J. 
 WIREs Comput Mol Sci., 4 (1), 15-25 (2014). 
 CP2K: atomistic simulations of condensed matter systems.
 https://dx.doi.org/10.1002/wcms.1159

 Krack, M. 
 THEORETICAL CHEMISTRY ACCOUNTS, 114 (1-3), 145-152 (2005). 
 Pseudopotentials for H to Kr optimized for gradient-corrected
 exchange-correlation functionals.
 https://dx.doi.org/10.1007/s00214-005-0655-y

 VandeVondele, J; Krack, M; Mohamed, F; Parrinello, M; Chassaing, T;
 Hutter, J. COMPUTER PHYSICS COMMUNICATIONS, 167 (2), 103-128 (2005). 
 QUICKSTEP: Fast and accurate density functional calculations using a
 mixed Gaussian and plane waves approach.
 https://dx.doi.org/10.1016/j.cpc.2004.12.014

 Frigo, M; Johnson, SG. 
 PROCEEDINGS OF THE IEEE, 93 (2), 216-231 (2005). 
 The design and implementation of FFTW3.
 https://dx.doi.org/10.1109/JPROC.2004.840301

 Hartwigsen, C; Goedecker, S; Hutter, J. 
 PHYSICAL REVIEW B, 58 (7), 3641-3662 (1998). 
 Relativistic separable dual-space Gaussian pseudopotentials from H to Rn.
 https://dx.doi.org/10.1103/PhysRevB.58.3641

 Lippert, G; Hutter, J; Parrinello, M. 
 MOLECULAR PHYSICS, 92 (3), 477-487 (1997). 
 A hybrid Gaussian and plane wave density functional scheme.
 https://dx.doi.org/10.1080/002689797170220

 Goedecker, S; Teter, M; Hutter, J. 
 PHYSICAL REVIEW B, 54 (3), 1703-1710 (1996). 
 Separable dual-space Gaussian pseudopotentials.
 https://dx.doi.org/10.1103/PhysRevB.54.1703


 -------------------------------------------------------------------------------
 -                                                                             -
 -                                T I M I N G                                  -
 -                                                                             -
 -------------------------------------------------------------------------------
 SUBROUTINE                       CALLS  ASD         SELF TIME        TOTAL TIME
                                MAXIMUM       AVERAGE  MAXIMUM  AVERAGE  MAXIMUM
 CP2K                                 1  1.0    0.135    0.135 2639.507 2639.507
 qs_forces                            1  2.0    0.000    0.000 2638.038 2638.038
 qs_energies                          1  3.0    0.000    0.000 2637.522 2637.522
 scf_env_do_scf                       1  4.0    0.000    0.000 2635.455 2635.455
 scf_env_do_scf_inner_loop          300  5.0    0.059    0.059 2635.454 2635.454
 qs_scf_new_mos                     300  6.0    0.010    0.010 2014.603 2014.603
 eigensolver                        300  7.0    0.049    0.049 1980.643 1980.643
 cp_fm_syevd                        300  8.0 1270.295 1270.295 1272.064 1272.064
 cp_fm_cholesky_restore             900  8.0  707.457  707.457  707.457  707.457
 gspace_mixing                      299  6.0    4.623    4.623  343.362  343.362
 broyden_mixing                     299  7.0  311.327  311.327  311.330  311.330
 qs_ks_update_qs_env                300  6.0    0.003    0.003  141.202  141.202
 rebuild_ks_matrix                  301  7.0    0.001    0.001  141.023  141.023
 qs_ks_build_kohn_sham_matrix       301  8.0    0.069    0.069  141.022  141.022
 qs_rho_update_rho                  301  6.0    0.003    0.003  134.861  134.861
 calculate_rho_elec                 301  7.0   66.682   66.682  134.857  134.857
 pw_transfer                       3912  9.9    0.321    0.321  132.406  132.406
 fft_wrap_pw1pw2                   3310 10.9    0.034    0.034  128.212  128.212
 fft_wrap_pw1pw2_70                1504 11.2   14.771   14.771  118.972  118.972
 density_rs2pw                      301  8.0    0.026    0.026   65.579   65.579
 fft3d_s                           3311 12.9   59.977   59.977   60.004   60.004
 -------------------------------------------------------------------------------

 The number of warnings for this run is : 1
 
 -------------------------------------------------------------------------------
  **** **** ******  **  PROGRAM ENDED AT                 2021-01-18 00:37:33.574
 ***** ** ***  *** **   PROGRAM RAN ON                                   gnode52
 **    ****   ******    PROGRAM RAN BY                               mayank.modi
 ***** **    ** ** **   PROGRAM PROCESS ID                                 30907
  **** **  *******  **  PROGRAM STOPPED IN /home/mayank.modi/ab-initio-thermodyn
                                           amics-of-water/mayank/cp2k_energy_cal
                                           culations
