 DBCSR| CPU Multiplication driver                                           XSMM
 DBCSR| Multrec recursion limit                                              512
 DBCSR| Multiplication stack size                                           1000
 DBCSR| Maximum elements for images                                    UNLIMITED
 DBCSR| Multiplicative factor virtual images                                   1
 DBCSR| Use multiplication densification                                       T
 DBCSR| Multiplication size stacks                                             3


  **** **** ******  **  PROGRAM STARTED AT               2021-02-22 05:45:52.439
 ***** ** ***  *** **   PROGRAM STARTED ON                               gnode68
 **    ****   ******    PROGRAM STARTED BY                           mayank.modi
 ***** **    ** ** **   PROGRAM PROCESS ID                                 15835
  **** **  *******  **  PROGRAM STARTED IN /home/mayank.modi/ab-initio-thermodyn
                                           amics-of-water/mayank/cp2k_energy_cal
                                           culations

 CP2K| version string:                                          CP2K version 7.1
 CP2K| source code revision number:                                  git:e635599
 CP2K| cp2kflags: omp libint fftw3 libxc xsmm spglib                            
 CP2K| is freely available from                            https://www.cp2k.org/
 CP2K| Program compiled at                          Mon Dec 23 19:23:12 CET 2019
 CP2K| Program compiled on                                                pc9404
 CP2K| Program compiled for                                Linux-x86-64-gfortran
 CP2K| Data directory path                                        /opt/cp2k/data
 CP2K| Input file name                  input_training_correct_cell/input1304.in

 GLOBAL| Force Environment number                                              1
 GLOBAL| Basis set file name                                           BASIS_SET
 GLOBAL| Potential file name                                      GTH_POTENTIALS
 GLOBAL| MM Potential file name                                     MM_POTENTIAL
 GLOBAL| Coordinate file name                                      __STD_INPUT__
 GLOBAL| Method name                                                        CP2K
 GLOBAL| Project name                                                   H2O_bulk
 GLOBAL| Preferred FFT library                                             FFTW3
 GLOBAL| Preferred diagonalization lib.                                       SL
 GLOBAL| Run type                                                   ENERGY_FORCE
 GLOBAL| All-to-all communication in single precision                          F
 GLOBAL| FFTs using library dependent lengths                                  F
 GLOBAL| Global print level                                                  LOW
 GLOBAL| MPI I/O enabled                                                       T
 GLOBAL| Total number of message passing processes                             1
 GLOBAL| Number of threads for this process                                   36
 GLOBAL| This output is from process                                           0
 GLOBAL| CPU model name                Intel(R) Xeon(R) CPU E5-2640 v4 @ 2.40GHz
 GLOBAL| CPUID                                                              1002
 GLOBAL| Compiled for CPUID                                                    0

 MEMORY| system memory details [Kb]
 MEMORY|                        rank 0           min           max       average
 MEMORY| MemTotal            131893512     131893512     131893512     131893512
 MEMORY| MemFree             119709272     119709272     119709272     119709272
 MEMORY| Buffers               1024248       1024248       1024248       1024248
 MEMORY| Cached                9698496       9698496       9698496       9698496
 MEMORY| Slab                  1014544       1014544       1014544       1014544
 MEMORY| SReclaimable           622420        622420        622420        622420
 MEMORY| MemLikelyFree       131054436     131054436     131054436     131054436


 GENERATE|  Preliminary Number of Bonds generated:                             0
 GENERATE|  Achieved consistency in connectivity generation.

 *******************************************************************************
 *******************************************************************************
 **                                                                           **
 **     #####                         ##              ##                      **
 **    ##   ##            ##          ##              ##                      **
 **   ##     ##                       ##            ######                    **
 **   ##     ##  ##   ##  ##   #####  ##  ##   ####   ##    #####    #####    **
 **   ##     ##  ##   ##  ##  ##      ## ##   ##      ##   ##   ##  ##   ##   **
 **   ##  ## ##  ##   ##  ##  ##      ####     ###    ##   ######   ######    **
 **    ##  ###   ##   ##  ##  ##      ## ##      ##   ##   ##       ##        **
 **     #######   #####   ##   #####  ##  ##  ####    ##    #####   ##        **
 **           ##                                                    ##        **
 **                                                                           **
 **                                                ... make the atoms dance   **
 **                                                                           **
 **            Copyright (C) by CP2K developers group (2000 - 2019)           **
 **                                                                           **
 *******************************************************************************


 TOTAL NUMBERS AND MAXIMUM NUMBERS

  Total number of            - Atomic kinds:                                   2
                             - Atoms:                                        192
                             - Shell sets:                                   384
                             - Shells:                                       704
                             - Primitive Cartesian functions:                960
                             - Cartesian basis functions:                   1536
                             - Spherical basis functions:                   1472

  Maximum angular momentum of- Orbital basis functions:                        2
                             - Local part of the GTH pseudopotential:          2
                             - Non-local part of the GTH pseudopotential:      0


 SCF PARAMETERS         Density guess:                                    ATOMIC
                        --------------------------------------------------------
                        max_scf:                                             300
                        max_scf_history:                                       0
                        max_diis:                                              4
                        --------------------------------------------------------
                        eps_scf:                                        1.00E-07
                        eps_scf_history:                                0.00E+00
                        eps_diis:                                       1.00E-01
                        eps_eigval:                                     1.00E-05
                        --------------------------------------------------------
                        level_shift [a.u.]:                                 0.00
                        --------------------------------------------------------
                        Mixing method:                            BROYDEN_MIXING
                                                charge density mixing in g-space
                        --------------------------------------------------------
                        No outer SCF

 Number of electrons:                                                        512
 Number of occupied orbitals:                                                256
 Number of molecular orbitals:                                               256

 Number of orbital functions:                                               1472
 Number of independent orbital functions:                                   1472

 Extrapolation method: initial_guess


 SCF WAVEFUNCTION OPTIMIZATION

  Step     Update method      Time    Convergence         Total energy    Change
  ------------------------------------------------------------------------------
     1 NoMix/Diag. 0.40E+00    7.1     0.60903684     -1063.9505478865 -1.06E+03
     2 Broy./Diag. 0.40E+00    7.8     1.91551633      -993.0037069089  7.09E+01
     3 Broy./Diag. 0.40E+00    8.0     1.95903649     -1272.9970663862 -2.80E+02
     4 Broy./Diag. 0.40E+00    8.3     1.89213988     -1115.5762614885  1.57E+02
     5 Broy./Diag. 0.40E+00    8.5     1.74071373     -1095.4451734423  2.01E+01
     6 Broy./Diag. 0.40E+00    8.7     1.89622062     -1097.8235037109 -2.38E+00
     7 Broy./Diag. 0.40E+00    9.0     1.59658037     -1093.1680935111  4.66E+00
     8 Broy./Diag. 0.40E+00    9.2     0.58115102     -1080.5824548158  1.26E+01
     9 Broy./Diag. 0.40E+00    9.6     0.08555658     -1072.5927724802  7.99E+00
    10 Broy./Diag. 0.40E+00    9.5     0.11412938     -1073.8299981989 -1.24E+00
    11 Broy./Diag. 0.40E+00    9.3     0.15072956     -1074.5357245733 -7.06E-01
    12 Broy./Diag. 0.40E+00    9.3     0.14565196     -1073.9766515024  5.59E-01
    13 Broy./Diag. 0.40E+00    9.2     0.05995532     -1072.9933876846  9.83E-01
    14 Broy./Diag. 0.40E+00    9.5     0.07999807     -1077.7737567649 -4.78E+00
    15 Broy./Diag. 0.40E+00    9.5     0.05113031     -1076.2378007384  1.54E+00
    16 Broy./Diag. 0.40E+00    9.4     0.03376825     -1076.0128397815  2.25E-01
    17 Broy./Diag. 0.40E+00    9.2     0.03605709     -1075.7420413817  2.71E-01
    18 Broy./Diag. 0.40E+00    9.6     0.02076102     -1075.8893398861 -1.47E-01
    19 Broy./Diag. 0.40E+00    9.3     0.00628468     -1075.7514934991  1.38E-01
    20 Broy./Diag. 0.40E+00    9.0     0.00557142     -1075.6449856761  1.07E-01
    21 Broy./Diag. 0.40E+00    9.0     0.00259087     -1075.6640626353 -1.91E-02
    22 Broy./Diag. 0.40E+00    9.2     0.00426348     -1075.7244629132 -6.04E-02
    23 Broy./Diag. 0.40E+00    9.4     0.00421772     -1075.6849671692  3.95E-02
    24 Broy./Diag. 0.40E+00    9.4     0.00298524     -1075.6220806236  6.29E-02
    25 Broy./Diag. 0.40E+00    9.3     0.00253261     -1075.6663507121 -4.43E-02
    26 Broy./Diag. 0.40E+00    9.0     0.00196433     -1075.6702794566 -3.93E-03
    27 Broy./Diag. 0.40E+00    9.2     0.00157248     -1075.6772257407 -6.95E-03
    28 Broy./Diag. 0.40E+00    9.5     0.00180374     -1075.6654017663  1.18E-02
    29 Broy./Diag. 0.40E+00    9.3     0.00178815     -1075.6763601914 -1.10E-02
    30 Broy./Diag. 0.40E+00    9.3     0.00070929     -1075.6697516038  6.61E-03
    31 Broy./Diag. 0.40E+00    9.4     0.00087041     -1075.6690899106  6.62E-04
    32 Broy./Diag. 0.40E+00    9.3     0.00066451     -1075.6545929031  1.45E-02
    33 Broy./Diag. 0.40E+00    9.4     0.00081875     -1075.6705650611 -1.60E-02
    34 Broy./Diag. 0.40E+00    9.2     0.00069548     -1075.6704603499  1.05E-04
    35 Broy./Diag. 0.40E+00    9.1     0.00042247     -1075.6631790851  7.28E-03
    36 Broy./Diag. 0.40E+00    9.4     0.00030659     -1075.6641915398 -1.01E-03
    37 Broy./Diag. 0.40E+00    9.5     0.00024657     -1075.6670453408 -2.85E-03
    38 Broy./Diag. 0.40E+00    9.4     0.00021618     -1075.6659105895  1.13E-03
    39 Broy./Diag. 0.40E+00    9.3     0.00021494     -1075.6653295210  5.81E-04
    40 Broy./Diag. 0.40E+00    8.9     0.00018995     -1075.6667446823 -1.42E-03
    41 Broy./Diag. 0.40E+00    9.0     0.00008217     -1075.6661264613  6.18E-04
    42 Broy./Diag. 0.40E+00    8.7     0.00006312     -1075.6666175783 -4.91E-04
    43 Broy./Diag. 0.40E+00    8.9     0.00010236     -1075.6652631069  1.35E-03
    44 Broy./Diag. 0.40E+00    8.9     0.00011694     -1075.6659071528 -6.44E-04
    45 Broy./Diag. 0.40E+00    9.1     0.00007420     -1075.6663829733 -4.76E-04
    46 Broy./Diag. 0.40E+00    9.3     0.00006036     -1075.6662250755  1.58E-04
    47 Broy./Diag. 0.40E+00    9.2     0.00009007     -1075.6658284549  3.97E-04
    48 Broy./Diag. 0.40E+00    9.5     0.00006761     -1075.6663814176 -5.53E-04
    49 Broy./Diag. 0.40E+00    9.7     0.00003974     -1075.6661963619  1.85E-04
    50 Broy./Diag. 0.40E+00    9.4     0.00004386     -1075.6660514394  1.45E-04
    51 Broy./Diag. 0.40E+00    9.3     0.00004059     -1075.6662896112 -2.38E-04
    52 Broy./Diag. 0.40E+00    9.0     0.00001921     -1075.6660843910  2.05E-04
    53 Broy./Diag. 0.40E+00    9.1     0.00002200     -1075.6662642933 -1.80E-04
    54 Broy./Diag. 0.40E+00    9.5     0.00002512     -1075.6662007801  6.35E-05
    55 Broy./Diag. 0.40E+00    9.7     0.00001991     -1075.6660985682  1.02E-04
    56 Broy./Diag. 0.40E+00    9.5     0.00001129     -1075.6661032319 -4.66E-06
    57 Broy./Diag. 0.40E+00    9.3     0.00001686     -1075.6661748565 -7.16E-05
    58 Broy./Diag. 0.40E+00    9.3     0.00001347     -1075.6661213695  5.35E-05
    59 Broy./Diag. 0.40E+00    9.4     0.00000905     -1075.6661259909 -4.62E-06
    60 Broy./Diag. 0.40E+00    9.4     0.00000741     -1075.6661529398 -2.69E-05
    61 Broy./Diag. 0.40E+00    9.3     0.00000652     -1075.6661208149  3.21E-05
    62 Broy./Diag. 0.40E+00    9.7     0.00000427     -1075.6661460974 -2.53E-05
    63 Broy./Diag. 0.40E+00    9.5     0.00000526     -1075.6661426123  3.49E-06
    64 Broy./Diag. 0.40E+00    9.2     0.00000429     -1075.6661254208  1.72E-05
    65 Broy./Diag. 0.40E+00    9.5     0.00000322     -1075.6661441125 -1.87E-05
    66 Broy./Diag. 0.40E+00    9.2     0.00000180     -1075.6661487570 -4.64E-06
    67 Broy./Diag. 0.40E+00    8.8     0.00000139     -1075.6661329666  1.58E-05
    68 Broy./Diag. 0.40E+00    9.3     0.00000290     -1075.6661448013 -1.18E-05
    69 Broy./Diag. 0.40E+00    9.4     0.00000258     -1075.6661329905  1.18E-05
    70 Broy./Diag. 0.40E+00    9.3     0.00000208     -1075.6661349113 -1.92E-06
    71 Broy./Diag. 0.40E+00    9.4     0.00000174     -1075.6661405416 -5.63E-06
    72 Broy./Diag. 0.40E+00    9.4     0.00000109     -1075.6661380635  2.48E-06
    73 Broy./Diag. 0.40E+00    9.4     0.00000112     -1075.6661354788  2.58E-06
    74 Broy./Diag. 0.40E+00    9.3     0.00000111     -1075.6661409811 -5.50E-06
    75 Broy./Diag. 0.40E+00    9.1     0.00000061     -1075.6661379746  3.01E-06
    76 Broy./Diag. 0.40E+00    9.7     0.00000057     -1075.6661366710  1.30E-06
    77 Broy./Diag. 0.40E+00    9.4     0.00000043     -1075.6661431292 -6.46E-06
    78 Broy./Diag. 0.40E+00    9.2     0.00000045     -1075.6661379013  5.23E-06
    79 Broy./Diag. 0.40E+00    8.8     0.00000032     -1075.6661414672 -3.57E-06
    80 Broy./Diag. 0.40E+00    8.9     0.00000022     -1075.6661402529  1.21E-06
    81 Broy./Diag. 0.40E+00    8.8     0.00000031     -1075.6661396566  5.96E-07
    82 Broy./Diag. 0.40E+00    9.5     0.00000023     -1075.6661397929 -1.36E-07
    83 Broy./Diag. 0.40E+00    9.3     0.00000018     -1075.6661400560 -2.63E-07
    84 Broy./Diag. 0.40E+00    9.2     0.00000013     -1075.6661393702  6.86E-07
    85 Broy./Diag. 0.40E+00    9.6     0.00000007     -1075.6661395562 -1.86E-07

  *** SCF run converged in    85 steps ***


  Electronic density on regular grids:       -512.0005751443       -0.0005751443
  Core density on regular grids:              512.0002709926        0.0002709926
  Total charge density on r-space grids:       -0.0003041517
  Total charge density g-space grids:          -0.0003041517

  Overlap energy of the core charge distribution:               0.00000000000000
  Self energy of the core charge distribution:              -2838.21791979120962
  Core Hamiltonian energy:                                    759.83032874802029
  Hartree energy:                                            1241.11683578862176
  Exchange-correlation energy:                               -238.39538430166766

  Total energy:                                             -1075.66613955623529

 ENERGY| Total FORCE_EVAL ( QS ) energy (a.u.):            -1075.666139319952435


 ATOMIC FORCES in [a.u.]

 # Atom   Kind   Element          X              Y              Z
      1      1      O           0.04266337     0.03060037    -0.04675610
      2      2      H           0.03297333    -0.05070159     0.06433774
      3      2      H          -0.02083811     0.04524963     0.02320092
      4      1      O          -0.06389462     0.00494021    -0.04565540
      5      2      H          -0.01799054    -0.07339107    -0.00521200
      6      2      H          -0.00006234    -0.00139439     0.03638495
      7      1      O           0.03516545    -0.07831230     0.04119589
      8      2      H          -0.05282986    -0.01318444    -0.05049805
      9      2      H           0.00695165     0.04777039     0.04670394
     10      1      O           0.04920115     0.06557206     0.03403388
     11      2      H          -0.02682849    -0.00588034     0.03452498
     12      2      H          -0.00496940    -0.04484433    -0.08381403
     13      1      O           0.08498409     0.11886145    -0.00961560
     14      2      H          -0.03559423    -0.05909460    -0.05810784
     15      2      H          -0.01362508     0.02060930     0.07183086
     16      1      O          -0.09530697    -0.07696226     0.01084536
     17      2      H           0.02502962     0.03270098    -0.09722243
     18      2      H           0.03947633    -0.00165605     0.06351396
     19      1      O           0.10220243    -0.11417375     0.00665600
     20      2      H          -0.07949568     0.02594951    -0.01228132
     21      2      H          -0.01678361     0.05087387     0.01398676
     22      1      O          -0.06551718    -0.07195528    -0.11449308
     23      2      H          -0.04994052     0.02651833     0.05470525
     24      2      H           0.03319666     0.08235836     0.01781410
     25      1      O          -0.07495888    -0.09697954     0.01082195
     26      2      H           0.06824240    -0.00797550     0.04154821
     27      2      H          -0.01338546     0.06744650    -0.06754258
     28      1      O           0.02935297     0.01998139     0.02272541
     29      2      H          -0.04445151    -0.00384725     0.00553331
     30      2      H          -0.02967808     0.08854883    -0.06080105
     31      1      O          -0.02765888    -0.03413628     0.01369563
     32      2      H           0.02919272    -0.05185447     0.08357709
     33      2      H           0.04412849     0.02043366    -0.00783606
     34      1      O          -0.04680268    -0.05174802    -0.04389681
     35      2      H           0.10538632     0.03240073     0.02894502
     36      2      H          -0.02614644    -0.00807927     0.05990135
     37      1      O           0.01912226    -0.08637764     0.03656583
     38      2      H          -0.01793556     0.05634116     0.03226092
     39      2      H           0.00722422     0.02126654    -0.03622061
     40      1      O          -0.14517048    -0.00111063     0.03444884
     41      2      H           0.03706712    -0.03861717    -0.06675656
     42      2      H           0.04857504     0.04661124     0.03121079
     43      1      O           0.09538707     0.00615634    -0.02037431
     44      2      H           0.01971827     0.04675007    -0.06863733
     45      2      H          -0.05593796    -0.01793148     0.00349999
     46      1      O          -0.13025070     0.00605407    -0.06582533
     47      2      H           0.06381646    -0.04315166    -0.01579717
     48      2      H           0.04267092     0.07275072     0.00703974
     49      1      O           0.03704232     0.04558039    -0.06053555
     50      2      H           0.07415076     0.00346166     0.07144411
     51      2      H          -0.03197000    -0.02028100     0.04195205
     52      1      O           0.07602088    -0.08120692    -0.08631174
     53      2      H           0.01797270     0.00718623    -0.06732783
     54      2      H           0.00613691     0.04241650     0.08023801
     55      1      O          -0.01990636     0.03900507     0.01512610
     56      2      H           0.06331733    -0.04415504     0.00771272
     57      2      H           0.00462015     0.04730085     0.00202660
     58      1      O          -0.09861628    -0.08994464     0.09224211
     59      2      H           0.06716357     0.00388059    -0.05077983
     60      2      H           0.01020605     0.06080554     0.01834183
     61      1      O           0.09966593    -0.01711195     0.03302359
     62      2      H          -0.02926060    -0.02944012     0.05589846
     63      2      H           0.00387468     0.06406478     0.00412569
     64      1      O           0.00807262    -0.03964389    -0.04437391
     65      2      H           0.01889474    -0.07540769     0.04132693
     66      2      H          -0.07840002     0.05401105    -0.03318819
     67      1      O           0.08723538    -0.02539618    -0.12400224
     68      2      H          -0.00332310    -0.04202909     0.07178686
     69      2      H          -0.04964035     0.01848730    -0.01956105
     70      1      O           0.04825188    -0.01162257    -0.01169229
     71      2      H           0.02918666    -0.06005995    -0.02580245
     72      2      H          -0.06393965     0.04585499    -0.01363658
     73      1      O          -0.07891003     0.07856739    -0.01659316
     74      2      H           0.09247806     0.03866147     0.00236383
     75      2      H          -0.00610043    -0.04771888     0.04442832
     76      1      O           0.01305066    -0.09477473    -0.11291334
     77      2      H           0.04492130     0.01372089     0.11259436
     78      2      H          -0.03834698     0.06044715     0.01210402
     79      1      O          -0.00970900    -0.09901216     0.04244834
     80      2      H          -0.02857732     0.07831329    -0.00181827
     81      2      H          -0.00206462     0.00650433    -0.03715351
     82      1      O          -0.07028425    -0.11127622     0.05918342
     83      2      H          -0.03248559     0.09946304    -0.03686901
     84      2      H           0.04618674     0.00506118     0.02431187
     85      1      O           0.05532338    -0.00956145    -0.08892354
     86      2      H           0.00311063    -0.08351642     0.07615273
     87      2      H          -0.01508605     0.03866993     0.03386896
     88      1      O          -0.06420873    -0.07681381     0.01938472
     89      2      H           0.09242702     0.03123959    -0.05153881
     90      2      H          -0.04903041     0.00860862     0.02025970
     91      1      O           0.00444193     0.02260911    -0.01700211
     92      2      H          -0.08667868     0.00169588     0.03839214
     93      2      H           0.03454981    -0.05770491     0.01639270
     94      1      O           0.10776045    -0.15105443    -0.02330966
     95      2      H          -0.04920848     0.03395487     0.02575088
     96      2      H          -0.01579838     0.05992035    -0.05362488
     97      1      O           0.01202025    -0.04880599    -0.03651798
     98      2      H          -0.06903702     0.01357141     0.03155538
     99      2      H          -0.01948972     0.04601704    -0.07230925
    100      1      O          -0.02628069     0.03806247     0.09139636
    101      2      H           0.00800659    -0.09368529    -0.01214283
    102      2      H           0.01111040     0.10418613    -0.01139026
    103      1      O          -0.01304275    -0.03379485    -0.09583888
    104      2      H          -0.01999348     0.08568431     0.01805016
    105      2      H           0.02395913    -0.04331480     0.00654583
    106      1      O           0.00154298    -0.03827389     0.04350767
    107      2      H           0.04405653    -0.03956652     0.02640259
    108      2      H           0.02125161     0.08435835    -0.02939514
    109      1      O          -0.04533501    -0.01358718    -0.06058989
    110      2      H          -0.02906474     0.06706812     0.02268033
    111      2      H           0.06211410     0.03806698    -0.00434935
    112      1      O           0.07159727    -0.06134582    -0.00533899
    113      2      H           0.06460602     0.06037417     0.03334697
    114      2      H          -0.03262514    -0.05877436     0.01362915
    115      1      O          -0.01873994    -0.02876867    -0.07030975
    116      2      H          -0.02831752     0.08554732    -0.03392185
    117      2      H           0.03325633    -0.02706613     0.04167525
    118      1      O          -0.06165778    -0.01881133    -0.04570951
    119      2      H           0.00809951     0.04223459    -0.00944019
    120      2      H           0.04270394    -0.01367101     0.06616160
    121      1      O           0.00458145    -0.00982364    -0.02512621
    122      2      H          -0.02428063     0.03621505     0.03223793
    123      2      H           0.05920330    -0.00777348     0.01977186
    124      1      O           0.04718575    -0.04384370     0.01238659
    125      2      H           0.04001227     0.03511583     0.05165626
    126      2      H          -0.05103278     0.03829957    -0.02465959
    127      1      O           0.03001226    -0.03749868     0.04707435
    128      2      H          -0.07351681     0.02861242    -0.05929345
    129      2      H           0.05893081     0.02611281    -0.02574670
    130      1      O           0.07206034    -0.08772941     0.00119993
    131      2      H          -0.04817805    -0.04390836    -0.03088476
    132      2      H           0.03554433     0.06251088    -0.05402568
    133      1      O          -0.11476761    -0.05523439     0.03510830
    134      2      H          -0.01792934     0.04181374    -0.01226451
    135      2      H           0.02134859     0.00167202     0.05790905
    136      1      O          -0.00471473    -0.00352827    -0.06211689
    137      2      H          -0.02257961    -0.00027739     0.05239270
    138      2      H          -0.04558906     0.07167913    -0.06688490
    139      1      O          -0.13865922    -0.05935968    -0.05883199
    140      2      H           0.09504436    -0.03903929    -0.05477536
    141      2      H          -0.00088762    -0.01376288     0.05673384
    142      1      O          -0.01555486     0.03160589    -0.06639215
    143      2      H           0.05167801    -0.01187090    -0.01489683
    144      2      H           0.02019628     0.04562299     0.06056791
    145      1      O          -0.12715285    -0.11765552     0.01674597
    146      2      H           0.05755336    -0.01486321    -0.03841792
    147      2      H           0.02651494     0.05768617     0.07523018
    148      1      O          -0.08512456    -0.04369739    -0.03978432
    149      2      H           0.07159648    -0.01041289    -0.03956492
    150      2      H           0.01876103     0.05327134     0.00340725
    151      1      O          -0.12119887    -0.04367838    -0.05276332
    152      2      H           0.04679411    -0.02943322     0.06754733
    153      2      H           0.04029213     0.04805055    -0.00333244
    154      1      O          -0.04373693     0.05502835     0.00645435
    155      2      H           0.05306271     0.03938520     0.07409749
    156      2      H           0.00363130    -0.07349103    -0.00946960
    157      1      O          -0.01603515     0.06161430     0.00041129
    158      2      H           0.06877685     0.06673244    -0.01796452
    159      2      H           0.01411739    -0.03057655     0.02840038
    160      1      O           0.08302665    -0.06890282     0.13218096
    161      2      H          -0.04357495    -0.05714611    -0.02460119
    162      2      H           0.02439956     0.05624621    -0.07364221
    163      1      O          -0.04561524    -0.11600324    -0.04725928
    164      2      H          -0.05824049     0.04691593    -0.03570251
    165      2      H           0.07303425     0.02970829     0.06228514
    166      1      O          -0.04056536    -0.02277722     0.04719468
    167      2      H           0.06358435     0.03146683     0.01902597
    168      2      H          -0.03064756    -0.05359263    -0.09283019
    169      1      O           0.06634059    -0.00568644     0.06569679
    170      2      H          -0.03377508     0.03953861    -0.01802376
    171      2      H           0.02629572    -0.04204547     0.03295102
    172      1      O          -0.00026296     0.04282366     0.04274748
    173      2      H           0.05616437     0.00309414    -0.09561090
    174      2      H           0.01125833    -0.03717996     0.08615575
    175      1      O           0.01155402    -0.14286745     0.04117738
    176      2      H           0.07622315     0.05638655    -0.04070484
    177      2      H          -0.01101094     0.03610188    -0.00342779
    178      1      O           0.11404944    -0.00773667    -0.00295379
    179      2      H          -0.04484026     0.01601671    -0.04495745
    180      2      H          -0.01136999     0.05941285     0.02353325
    181      1      O          -0.04771988    -0.10324650     0.03632435
    182      2      H           0.08332442     0.02370511     0.00520397
    183      2      H          -0.04214718     0.04642298     0.01340852
    184      1      O           0.02472251    -0.12668028     0.03602244
    185      2      H           0.00285661     0.07450653    -0.05427507
    186      2      H          -0.09735453     0.01115970    -0.01576587
    187      1      O           0.07994489    -0.01961411     0.05028957
    188      2      H          -0.08608413     0.00448502    -0.03950000
    189      2      H           0.00431357     0.06769155    -0.00643538
    190      1      O           0.07389092    -0.06717656    -0.01607624
    191      2      H          -0.01744108    -0.02201354     0.08561788
    192      2      H           0.00242742     0.05294182    -0.01741266
 SUM OF ATOMIC FORCES           0.42365365    -0.27962274     0.04055845     0.50923106

 -------------------------------------------------------------------------------
 -                                                                             -
 -                                DBCSR STATISTICS                             -
 -                                                                             -
 -------------------------------------------------------------------------------
 COUNTER                                    TOTAL       BLAS       SMM       ACC
 flops     5 x     5 x   256           1415628800       0.0%    100.0%      0.0%
 flops     5 x    13 x   256           1757317120       0.0%    100.0%      0.0%
 flops    13 x     5 x   256           1774489600       0.0%    100.0%      0.0%
 flops    13 x    13 x   256           2321719296       0.0%    100.0%      0.0%
 flops inhomo. stacks                           0       0.0%      0.0%      0.0%
 flops total                         7.269155E+09       0.0%    100.0%      0.0%
 flops max/rank                      7.269155E+09       0.0%    100.0%      0.0%
 matmuls inhomo. stacks                         0       0.0%      0.0%      0.0%
 matmuls total                             243552       0.0%    100.0%      0.0%
 number of processed stacks                 12040       0.0%    100.0%      0.0%
 average stack size                                     0.0      20.2       0.0
 marketing flops                    95.407833E+09
 -------------------------------------------------------------------------------
 # multiplications                             86
 max memory usage/rank               4.992979E+09
 # max total images/rank                        1
 # max 3D layers                                1
 # MPI messages exchanged                       0
 MPI messages size (bytes):
  total size                         0.000000E+00
  min size                           0.000000E+00
  max size                           0.000000E+00
  average size                       0.000000E+00
 MPI breakdown and total messages size (bytes):
             size <=      128                   0                        0
       128 < size <=     8192                   0                        0
      8192 < size <=    32768                   0                        0
     32768 < size <=   131072                   0                        0
    131072 < size <=  4194304                   0                        0
   4194304 < size <= 16777216                   0                        0
  16777216 < size                               0                        0
 -------------------------------------------------------------------------------

 MEMORY| Estimated peak process memory [MiB]                                4756

 -------------------------------------------------------------------------------
 -                                                                             -
 -                           R E F E R E N C E S                               -
 -                                                                             -
 -------------------------------------------------------------------------------
 
 CP2K version 7.1, the CP2K developers group (2019).
 CP2K is freely available from https://www.cp2k.org/ .

 Schuett, Ole; Messmer, Peter; Hutter, Juerg; VandeVondele, Joost. 
 Electronic Structure Calculations on Graphics Processing Units, John
 Wiley & Sons, Ltd, 173-190 (2016). 
 GPU-Accelerated Sparse Matrix-Matrix Multiplication for
 Linear Scaling Density Functional Theory.
 https://dx.doi.org/10.1002/9781118670712.ch8

 Borstnik, U; VandeVondele, J; Weber, V; Hutter, J. 
 PARALLEL COMPUTING, 40 (5-6), 47-58 (2014). 
 Sparse matrix multiplication: The distributed block-compressed sparse
 row library.
 https://dx.doi.org/10.1016/j.parco.2014.03.012

 Hutter, J; Iannuzzi, M; Schiffmann, F; VandeVondele, J. 
 WIREs Comput Mol Sci., 4 (1), 15-25 (2014). 
 CP2K: atomistic simulations of condensed matter systems.
 https://dx.doi.org/10.1002/wcms.1159

 Krack, M. 
 THEORETICAL CHEMISTRY ACCOUNTS, 114 (1-3), 145-152 (2005). 
 Pseudopotentials for H to Kr optimized for gradient-corrected
 exchange-correlation functionals.
 https://dx.doi.org/10.1007/s00214-005-0655-y

 VandeVondele, J; Krack, M; Mohamed, F; Parrinello, M; Chassaing, T;
 Hutter, J. COMPUTER PHYSICS COMMUNICATIONS, 167 (2), 103-128 (2005). 
 QUICKSTEP: Fast and accurate density functional calculations using a
 mixed Gaussian and plane waves approach.
 https://dx.doi.org/10.1016/j.cpc.2004.12.014

 Frigo, M; Johnson, SG. 
 PROCEEDINGS OF THE IEEE, 93 (2), 216-231 (2005). 
 The design and implementation of FFTW3.
 https://dx.doi.org/10.1109/JPROC.2004.840301

 Hartwigsen, C; Goedecker, S; Hutter, J. 
 PHYSICAL REVIEW B, 58 (7), 3641-3662 (1998). 
 Relativistic separable dual-space Gaussian pseudopotentials from H to Rn.
 https://dx.doi.org/10.1103/PhysRevB.58.3641

 Lippert, G; Hutter, J; Parrinello, M. 
 MOLECULAR PHYSICS, 92 (3), 477-487 (1997). 
 A hybrid Gaussian and plane wave density functional scheme.
 https://dx.doi.org/10.1080/002689797170220

 Goedecker, S; Teter, M; Hutter, J. 
 PHYSICAL REVIEW B, 54 (3), 1703-1710 (1996). 
 Separable dual-space Gaussian pseudopotentials.
 https://dx.doi.org/10.1103/PhysRevB.54.1703


 -------------------------------------------------------------------------------
 -                                                                             -
 -                                T I M I N G                                  -
 -                                                                             -
 -------------------------------------------------------------------------------
 SUBROUTINE                       CALLS  ASD         SELF TIME        TOTAL TIME
                                MAXIMUM       AVERAGE  MAXIMUM  AVERAGE  MAXIMUM
 CP2K                                 1  1.0    0.146    0.146  787.967  787.967
 qs_forces                            1  2.0    0.000    0.000  785.957  785.957
 qs_energies                          1  3.0    0.000    0.000  785.248  785.248
 scf_env_do_scf                       1  4.0    0.000    0.000  782.859  782.859
 scf_env_do_scf_inner_loop           85  5.0    0.016    0.016  782.859  782.859
 qs_scf_new_mos                      85  6.0    0.003    0.003  560.275  560.275
 eigensolver                         85  7.0    0.013    0.013  550.999  550.999
 cp_fm_syevd                         85  8.0  356.357  356.357  356.809  356.809
 cp_fm_cholesky_restore             255  8.0  193.871  193.871  193.871  193.871
 gspace_mixing                       84  6.0    1.899    1.899  122.433  122.433
 broyden_mixing                      84  7.0  110.261  110.261  110.262  110.262
 rebuild_ks_matrix                   86  7.0    0.000    0.000   51.722   51.722
 qs_ks_build_kohn_sham_matrix        86  8.0    0.019    0.019   51.722   51.722
 qs_ks_update_qs_env                 85  6.0    0.001    0.001   51.194   51.194
 pw_transfer                       1117  9.9    0.089    0.089   49.467   49.467
 qs_rho_update_rho                   86  6.0    0.001    0.001   49.060   49.060
 calculate_rho_elec                  86  7.0   24.094   24.094   49.060   49.060
 fft_wrap_pw1pw2                    945 10.9    0.009    0.009   48.099   48.099
 fft_wrap_pw1pw2_70                 429 11.2    4.922    4.922   44.896   44.896
 density_rs2pw                       86  8.0    0.006    0.006   24.331   24.331
 fft3d_s                            946 12.9   22.222   22.222   22.231   22.231
 pw_scatter_s                       514 13.2   16.838   16.838   16.838   16.838
 pw_poisson_solve                    86  9.0   15.042   15.042   16.387   16.387
 -------------------------------------------------------------------------------

 The number of warnings for this run is : 0
 
 -------------------------------------------------------------------------------
  **** **** ******  **  PROGRAM ENDED AT                 2021-02-22 05:59:00.563
 ***** ** ***  *** **   PROGRAM RAN ON                                   gnode68
 **    ****   ******    PROGRAM RAN BY                               mayank.modi
 ***** **    ** ** **   PROGRAM PROCESS ID                                 15835
  **** **  *******  **  PROGRAM STOPPED IN /home/mayank.modi/ab-initio-thermodyn
                                           amics-of-water/mayank/cp2k_energy_cal
                                           culations
