 DBCSR| CPU Multiplication driver                                           XSMM
 DBCSR| Multrec recursion limit                                              512
 DBCSR| Multiplication stack size                                           1000
 DBCSR| Maximum elements for images                                    UNLIMITED
 DBCSR| Multiplicative factor virtual images                                   1
 DBCSR| Use multiplication densification                                       T
 DBCSR| Multiplication size stacks                                             3


  **** **** ******  **  PROGRAM STARTED AT               2021-01-14 01:28:10.952
 ***** ** ***  *** **   PROGRAM STARTED ON                               gnode23
 **    ****   ******    PROGRAM STARTED BY                           mayank.modi
 ***** **    ** ** **   PROGRAM PROCESS ID                                 30920
  **** **  *******  **  PROGRAM STARTED IN /home/mayank.modi/ab-initio-thermodyn
                                           amics-of-water/mayank/cp2k_energy_cal
                                           culations

 CP2K| version string:                                          CP2K version 7.1
 CP2K| source code revision number:                                  git:e635599
 CP2K| cp2kflags: omp libint fftw3 libxc xsmm spglib                            
 CP2K| is freely available from                            https://www.cp2k.org/
 CP2K| Program compiled at                          Mon Dec 23 19:23:12 CET 2019
 CP2K| Program compiled on                                                pc9404
 CP2K| Program compiled for                                Linux-x86-64-gfortran
 CP2K| Data directory path                                        /opt/cp2k/data
 CP2K| Input file name                   input_training_correct_cell/input508.in

 GLOBAL| Force Environment number                                              1
 GLOBAL| Basis set file name                                           BASIS_SET
 GLOBAL| Potential file name                                      GTH_POTENTIALS
 GLOBAL| MM Potential file name                                     MM_POTENTIAL
 GLOBAL| Coordinate file name                                      __STD_INPUT__
 GLOBAL| Method name                                                        CP2K
 GLOBAL| Project name                                                   H2O_bulk
 GLOBAL| Preferred FFT library                                             FFTW3
 GLOBAL| Preferred diagonalization lib.                                       SL
 GLOBAL| Run type                                                   ENERGY_FORCE
 GLOBAL| All-to-all communication in single precision                          F
 GLOBAL| FFTs using library dependent lengths                                  F
 GLOBAL| Global print level                                                  LOW
 GLOBAL| MPI I/O enabled                                                       T
 GLOBAL| Total number of message passing processes                             1
 GLOBAL| Number of threads for this process                                   36
 GLOBAL| This output is from process                                           0
 GLOBAL| CPU model name                Intel(R) Xeon(R) CPU E5-2640 v4 @ 2.40GHz
 GLOBAL| CPUID                                                              1002
 GLOBAL| Compiled for CPUID                                                    0

 MEMORY| system memory details [Kb]
 MEMORY|                        rank 0           min           max       average
 MEMORY| MemTotal            131897972     131897972     131897972     131897972
 MEMORY| MemFree             125601180     125601180     125601180     125601180
 MEMORY| Buffers               1902940       1902940       1902940       1902940
 MEMORY| Cached                1402752       1402752       1402752       1402752
 MEMORY| Slab                  2525200       2525200       2525200       2525200
 MEMORY| SReclaimable          1494472       1494472       1494472       1494472
 MEMORY| MemLikelyFree       130401344     130401344     130401344     130401344


 GENERATE|  Preliminary Number of Bonds generated:                             0
 GENERATE|  Achieved consistency in connectivity generation.

 *******************************************************************************
 *******************************************************************************
 **                                                                           **
 **     #####                         ##              ##                      **
 **    ##   ##            ##          ##              ##                      **
 **   ##     ##                       ##            ######                    **
 **   ##     ##  ##   ##  ##   #####  ##  ##   ####   ##    #####    #####    **
 **   ##     ##  ##   ##  ##  ##      ## ##   ##      ##   ##   ##  ##   ##   **
 **   ##  ## ##  ##   ##  ##  ##      ####     ###    ##   ######   ######    **
 **    ##  ###   ##   ##  ##  ##      ## ##      ##   ##   ##       ##        **
 **     #######   #####   ##   #####  ##  ##  ####    ##    #####   ##        **
 **           ##                                                    ##        **
 **                                                                           **
 **                                                ... make the atoms dance   **
 **                                                                           **
 **            Copyright (C) by CP2K developers group (2000 - 2019)           **
 **                                                                           **
 *******************************************************************************


 TOTAL NUMBERS AND MAXIMUM NUMBERS

  Total number of            - Atomic kinds:                                   2
                             - Atoms:                                        192
                             - Shell sets:                                   384
                             - Shells:                                       704
                             - Primitive Cartesian functions:                960
                             - Cartesian basis functions:                   1536
                             - Spherical basis functions:                   1472

  Maximum angular momentum of- Orbital basis functions:                        2
                             - Local part of the GTH pseudopotential:          2
                             - Non-local part of the GTH pseudopotential:      0


 SCF PARAMETERS         Density guess:                                    ATOMIC
                        --------------------------------------------------------
                        max_scf:                                             300
                        max_scf_history:                                       0
                        max_diis:                                              4
                        --------------------------------------------------------
                        eps_scf:                                        1.00E-07
                        eps_scf_history:                                0.00E+00
                        eps_diis:                                       1.00E-01
                        eps_eigval:                                     1.00E-05
                        --------------------------------------------------------
                        level_shift [a.u.]:                                 0.00
                        --------------------------------------------------------
                        Mixing method:                            BROYDEN_MIXING
                                                charge density mixing in g-space
                        --------------------------------------------------------
                        No outer SCF

 Number of electrons:                                                        512
 Number of occupied orbitals:                                                256
 Number of molecular orbitals:                                               256

 Number of orbital functions:                                               1472
 Number of independent orbital functions:                                   1472

 Extrapolation method: initial_guess


 SCF WAVEFUNCTION OPTIMIZATION

  Step     Update method      Time    Convergence         Total energy    Change
  ------------------------------------------------------------------------------
     1 NoMix/Diag. 0.40E+00    7.1     0.71480693     -1064.3039301249 -1.06E+03
     2 Broy./Diag. 0.40E+00    7.7     1.89264340      -994.8695308708  6.94E+01
     3 Broy./Diag. 0.40E+00    7.8     1.93783054     -1266.8703770705 -2.72E+02
     4 Broy./Diag. 0.40E+00    7.9     1.81975766     -1127.3651014577  1.40E+02
     5 Broy./Diag. 0.40E+00    8.0     0.69245910     -1090.5252675452  3.68E+01
     6 Broy./Diag. 0.40E+00    8.1     0.63078892     -1094.1251375999 -3.60E+00
     7 Broy./Diag. 0.40E+00    8.1     1.68263359     -1089.1833772159  4.94E+00
     8 Broy./Diag. 0.40E+00    8.3     1.62690047     -1086.3787612896  2.80E+00
     9 Broy./Diag. 0.40E+00    9.2     1.50261090     -1077.0122283869  9.37E+00
    10 Broy./Diag. 0.40E+00    9.5     1.50956057     -1072.2155231792  4.80E+00
    11 Broy./Diag. 0.40E+00    9.5     1.57802243     -1074.1659680643 -1.95E+00
    12 Broy./Diag. 0.40E+00    9.3     1.35675754     -1073.8178757925  3.48E-01
    13 Broy./Diag. 0.40E+00    9.2     1.45272986     -1069.0592952261  4.76E+00
    14 Broy./Diag. 0.40E+00    9.5     1.51015088     -1084.1592748486 -1.51E+01
    15 Broy./Diag. 0.40E+00    9.2     1.07265230     -1084.0541078026  1.05E-01
    16 Broy./Diag. 0.40E+00    9.2     0.20271503     -1078.7365781918  5.32E+00
    17 Broy./Diag. 0.40E+00    9.3     1.57813088     -1074.5549669854  4.18E+00
    18 Broy./Diag. 0.40E+00    9.3     1.53005811     -1076.5275139366 -1.97E+00
    19 Broy./Diag. 0.40E+00    9.5     1.10717405     -1074.3204000846  2.21E+00
    20 Broy./Diag. 0.40E+00    9.5     1.33797900     -1077.3390172542 -3.02E+00
    21 Broy./Diag. 0.40E+00    9.4     1.60203593     -1078.4307803996 -1.09E+00
    22 Broy./Diag. 0.40E+00    9.1     1.16376884     -1078.2028073706  2.28E-01
    23 Broy./Diag. 0.40E+00    8.8     1.02193704     -1076.8931520137  1.31E+00
    24 Broy./Diag. 0.40E+00    8.9     0.96196698     -1077.3160989600 -4.23E-01
    25 Broy./Diag. 0.40E+00    8.6     0.18066168     -1074.9221433518  2.39E+00
    26 Broy./Diag. 0.40E+00    8.9     0.96734829     -1075.6403517769 -7.18E-01
    27 Broy./Diag. 0.40E+00    9.4     1.52850925     -1077.9559688242 -2.32E+00
    28 Broy./Diag. 0.40E+00    9.5     1.57100892     -1078.5209592073 -5.65E-01
    29 Broy./Diag. 0.40E+00    9.2     1.11841963     -1075.9664381874  2.55E+00
    30 Broy./Diag. 0.40E+00    9.3     1.32554414     -1077.1536266626 -1.19E+00
    31 Broy./Diag. 0.40E+00    9.3     1.37743471     -1078.0396364412 -8.86E-01
    32 Broy./Diag. 0.40E+00    9.5     1.39677666     -1075.2944079943  2.75E+00
    33 Broy./Diag. 0.40E+00    9.6     1.41531936     -1077.8835372356 -2.59E+00
    34 Broy./Diag. 0.40E+00    9.1     0.17596362     -1076.1376066306  1.75E+00
    35 Broy./Diag. 0.40E+00    9.5     0.10398115     -1075.6731001889  4.65E-01
    36 Broy./Diag. 0.40E+00    9.3     0.97569949     -1075.5700255950  1.03E-01
    37 Broy./Diag. 0.40E+00    9.3     1.53820167     -1077.6825072812 -2.11E+00
    38 Broy./Diag. 0.40E+00    9.3     1.56221847     -1078.1860997716 -5.04E-01
    39 Broy./Diag. 0.40E+00    9.2     1.12323649     -1075.5525286722  2.63E+00
    40 Broy./Diag. 0.40E+00    9.2     1.31058754     -1078.2453612537 -2.69E+00
    41 Broy./Diag. 0.40E+00    9.5     1.35281768     -1078.6973887378 -4.52E-01
    42 Broy./Diag. 0.40E+00    9.5     1.10827521     -1075.9619025732  2.74E+00
    43 Broy./Diag. 0.40E+00    9.3     1.11499454     -1076.7097427003 -7.48E-01
    44 Broy./Diag. 0.40E+00    9.2     0.12634438     -1075.1239964683  1.59E+00
    45 Broy./Diag. 0.40E+00    9.2     0.10664151     -1076.6163647698 -1.49E+00
    46 Broy./Diag. 0.40E+00    9.4     0.05754776     -1075.7438055981  8.73E-01
    47 Broy./Diag. 0.40E+00    9.5     1.53501265     -1075.7337971743  1.00E-02
    48 Broy./Diag. 0.40E+00    9.5     1.54424835     -1077.7584189882 -2.02E+00
    49 Broy./Diag. 0.40E+00    9.3     1.12773763     -1075.6973732928  2.06E+00
    50 Broy./Diag. 0.40E+00    9.2     1.28776900     -1077.5554483485 -1.86E+00
    51 Broy./Diag. 0.40E+00    9.3     1.32232579     -1078.2060665659 -6.51E-01
    52 Broy./Diag. 0.40E+00    9.7     1.10802315     -1075.6045599109  2.60E+00
    53 Broy./Diag. 0.40E+00   10.4     1.11723897     -1078.3412416777 -2.74E+00
    54 Broy./Diag. 0.40E+00    9.0     0.98704755     -1076.1459374921  2.20E+00
    55 Broy./Diag. 0.40E+00    9.7     0.99284042     -1077.0320080394 -8.86E-01
    56 Broy./Diag. 0.40E+00    9.5     0.13669658     -1075.1978152977  1.83E+00
    57 Broy./Diag. 0.40E+00    9.6     1.52985505     -1076.3291622045 -1.13E+00
    58 Broy./Diag. 0.40E+00    9.4     1.54594753     -1078.0864250249 -1.76E+00
    59 Broy./Diag. 0.40E+00    9.2     0.10843243     -1075.7711261299  2.32E+00
    60 Broy./Diag. 0.40E+00    9.4     1.28271994     -1075.9886743152 -2.18E-01
    61 Broy./Diag. 0.40E+00    9.5     1.28905962     -1077.9940784964 -2.01E+00
    62 Broy./Diag. 0.40E+00    9.9     1.11318320     -1075.7664369663  2.23E+00
    63 Broy./Diag. 0.40E+00    9.3     1.11859716     -1077.7161422269 -1.95E+00
    64 Broy./Diag. 0.40E+00    9.5     1.10076129     -1075.8834002309  1.83E+00
    65 Broy./Diag. 0.40E+00    9.2     1.13290329     -1077.5161123366 -1.63E+00
    66 Broy./Diag. 0.40E+00    9.1     1.40519877     -1075.7492517776  1.77E+00
    67 Broy./Diag. 0.40E+00    9.2     1.40835170     -1077.4878198343 -1.74E+00
    68 Broy./Diag. 0.40E+00    9.1     1.40530173     -1077.9119452482 -4.24E-01
    69 Broy./Diag. 0.40E+00    9.2     1.40073885     -1077.3506656578  5.61E-01
    70 Broy./Diag. 0.40E+00    9.4     0.27553452     -1075.5848807460  1.77E+00
    71 Broy./Diag. 0.40E+00    9.5     0.09494013     -1076.5780120054 -9.93E-01
    72 Broy./Diag. 0.40E+00    9.2     0.10245753     -1075.6073175310  9.71E-01
    73 Broy./Diag. 0.40E+00    9.4     0.08886146     -1076.6618759287 -1.05E+00
    74 Broy./Diag. 0.40E+00    9.5     0.03533382     -1076.3644865329  2.97E-01
    75 Broy./Diag. 0.40E+00    9.4     0.03938033     -1076.0308586586  3.34E-01
    76 Broy./Diag. 0.40E+00    9.3     1.07946772     -1076.0904089991 -5.96E-02
    77 Broy./Diag. 0.40E+00    9.2     1.09130851     -1077.7306926245 -1.64E+00
    78 Broy./Diag. 0.40E+00    9.1     1.00825658     -1077.8872527964 -1.57E-01
    79 Broy./Diag. 0.40E+00    9.5     0.14640275     -1076.1335783572  1.75E+00
    80 Broy./Diag. 0.40E+00    9.5     0.11798323     -1076.2289435422 -9.54E-02
    81 Broy./Diag. 0.40E+00    9.3     0.07138974     -1075.9596538033  2.69E-01
    82 Broy./Diag. 0.40E+00    9.3     1.10410305     -1076.0734419392 -1.14E-01
    83 Broy./Diag. 0.40E+00    9.3     1.12168882     -1077.6333862112 -1.56E+00
    84 Broy./Diag. 0.40E+00    9.3     0.03306800     -1075.9649795140  1.67E+00
    85 Broy./Diag. 0.40E+00    9.0     0.03409587     -1076.1553941335 -1.90E-01
    86 Broy./Diag. 0.40E+00    9.6     1.10323505     -1076.0554229860  1.00E-01
    87 Broy./Diag. 0.40E+00    9.5     1.11560431     -1077.7959836868 -1.74E+00
    88 Broy./Diag. 0.40E+00    9.3     0.04083874     -1076.0540211533  1.74E+00
    89 Broy./Diag. 0.40E+00    9.3     0.06018194     -1076.1992980770 -1.45E-01
    90 Broy./Diag. 0.40E+00    9.3     0.04110973     -1076.0128953187  1.86E-01
    91 Broy./Diag. 0.40E+00    9.7     0.02415326     -1076.0792259010 -6.63E-02
    92 Broy./Diag. 0.40E+00    9.5     1.12002934     -1076.0403609089  3.89E-02
    93 Broy./Diag. 0.40E+00    9.1     1.12917051     -1077.6895666038 -1.65E+00
    94 Broy./Diag. 0.40E+00    9.7     0.96598374     -1076.0476580152  1.64E+00
    95 Broy./Diag. 0.40E+00    9.4     0.97648265     -1077.5863034471 -1.54E+00
    96 Broy./Diag. 0.40E+00    9.1     1.10663769     -1075.8966368991  1.69E+00
    97 Broy./Diag. 0.40E+00    9.7     1.38100489     -1078.2012267599 -2.30E+00
    98 Broy./Diag. 0.40E+00    9.5     1.40728186     -1078.0810154349  1.20E-01
    99 Broy./Diag. 0.40E+00    9.5     0.10007970     -1076.0858720191  2.00E+00
   100 Broy./Diag. 0.40E+00    9.3     0.10963589     -1075.7434950241  3.42E-01
   101 Broy./Diag. 0.40E+00    9.2     0.04516568     -1075.9722727863 -2.29E-01
   102 Broy./Diag. 0.40E+00    9.5     1.12045972     -1076.0597490860 -8.75E-02
   103 Broy./Diag. 0.40E+00    9.4     1.13273262     -1077.6411087341 -1.58E+00
   104 Broy./Diag. 0.40E+00    9.4     0.02106986     -1075.9655081715  1.68E+00
   105 Broy./Diag. 0.40E+00    9.5     0.01470640     -1076.0309278701 -6.54E-02
   106 Broy./Diag. 0.40E+00    9.5     1.11107043     -1076.0657429004 -3.48E-02
   107 Broy./Diag. 0.40E+00    9.5     1.12125353     -1077.8241487502 -1.76E+00
   108 Broy./Diag. 0.40E+00    9.5     0.09989770     -1076.0463333992  1.78E+00
   109 Broy./Diag. 0.40E+00    9.5     0.08134408     -1075.7593525939  2.87E-01
   110 Broy./Diag. 0.40E+00   10.0     0.01181988     -1076.1041599212 -3.45E-01
   111 Broy./Diag. 0.40E+00    9.2     0.01456544     -1076.0264409749  7.77E-02
   112 Broy./Diag. 0.40E+00    9.2     0.96030302     -1076.0576244055 -3.12E-02
   113 Broy./Diag. 0.40E+00    9.4     1.10475962     -1077.7093007870 -1.65E+00
   114 Broy./Diag. 0.40E+00    9.5     1.15297621     -1077.6270963436  8.22E-02
   115 Broy./Diag. 0.40E+00    9.4     0.04509253     -1075.9679051529  1.66E+00
   116 Broy./Diag. 0.40E+00    9.2     0.95679311     -1076.0504283880 -8.25E-02
   117 Broy./Diag. 0.40E+00    9.3     0.97271005     -1077.8445184302 -1.79E+00
   118 Broy./Diag. 0.40E+00    9.4     1.39282197     -1076.1814946572  1.66E+00
   119 Broy./Diag. 0.40E+00    9.5     1.40597301     -1077.5540040520 -1.37E+00
   120 Broy./Diag. 0.40E+00    9.4     1.12973366     -1075.7077013522  1.85E+00
   121 Broy./Diag. 0.40E+00    9.2     1.11537203     -1078.3633419466 -2.66E+00
   122 Broy./Diag. 0.40E+00    9.1     0.82242076     -1076.4883679340  1.87E+00
   123 Broy./Diag. 0.40E+00    8.9     1.00527944     -1077.2326711666 -7.44E-01
   124 Broy./Diag. 0.40E+00    8.9     1.33479433     -1075.3893199705  1.84E+00
   125 Broy./Diag. 0.40E+00    9.1     1.48714466     -1078.1436335300 -2.75E+00
   126 Broy./Diag. 0.40E+00    9.5     1.01021244     -1077.9162001742  2.27E-01
   127 Broy./Diag. 0.40E+00    9.4     0.10564695     -1076.0622266035  1.85E+00
   128 Broy./Diag. 0.40E+00    9.4     0.06703528     -1075.9745846417  8.76E-02
   129 Broy./Diag. 0.40E+00    9.4     0.05015371     -1075.9809953464 -6.41E-03
   130 Broy./Diag. 0.40E+00    9.5     1.10528703     -1075.9507658660  3.02E-02
   131 Broy./Diag. 0.40E+00    9.5     1.11224752     -1077.8554542088 -1.90E+00
   132 Broy./Diag. 0.40E+00    9.3     1.10340254     -1075.9896917477  1.87E+00
   133 Broy./Diag. 0.40E+00    9.6     1.11785448     -1077.6622145327 -1.67E+00
   134 Broy./Diag. 0.40E+00    9.2     0.78146820     -1076.0175619784  1.64E+00
   135 Broy./Diag. 0.40E+00    8.9     0.75256002     -1077.5763131414 -1.56E+00
   136 Broy./Diag. 0.40E+00    8.7     1.40107512     -1076.0124232355  1.56E+00
   137 Broy./Diag. 0.40E+00    8.8     1.39917862     -1077.8601030350 -1.85E+00
   138 Broy./Diag. 0.40E+00    9.6     1.02346624     -1075.9590839484  1.90E+00
   139 Broy./Diag. 0.40E+00    9.5     1.00279468     -1077.7603612058 -1.80E+00
   140 Broy./Diag. 0.40E+00    9.5     0.12238269     -1076.1059004365  1.65E+00
   141 Broy./Diag. 0.40E+00    9.4     0.09160415     -1075.8842918507  2.22E-01
   142 Broy./Diag. 0.40E+00    9.3     1.12737761     -1076.1232090140 -2.39E-01
   143 Broy./Diag. 0.40E+00    9.2     1.13710142     -1077.6405527617 -1.52E+00
   144 Broy./Diag. 0.40E+00    9.2     1.09030497     -1075.9457143855  1.69E+00
   145 Broy./Diag. 0.40E+00    9.5     1.10248930     -1077.8680686736 -1.92E+00
   146 Broy./Diag. 0.40E+00    9.2     0.07006665     -1076.0780406716  1.79E+00
   147 Broy./Diag. 0.40E+00    9.0     0.06558312     -1076.1447449095 -6.67E-02
   148 Broy./Diag. 0.40E+00    9.3     0.99036741     -1075.9459760016  1.99E-01
   149 Broy./Diag. 0.40E+00    9.4     0.99848368     -1077.8241595569 -1.88E+00
   150 Broy./Diag. 0.40E+00    9.5     0.03270922     -1076.0364280993  1.79E+00
   151 Broy./Diag. 0.40E+00    9.5     0.02960940     -1076.0060651881  3.04E-02
   152 Broy./Diag. 0.40E+00    9.3     1.12434911     -1076.0902006146 -8.41E-02
   153 Broy./Diag. 0.40E+00    9.3     1.13537339     -1077.6880125849 -1.60E+00
   154 Broy./Diag. 0.40E+00    9.4     1.09438731     -1075.9933311629  1.69E+00
   155 Broy./Diag. 0.40E+00    9.6     1.10527496     -1077.7204150097 -1.73E+00
   156 Broy./Diag. 0.40E+00    9.2     0.04030906     -1076.0259601491  1.69E+00
   157 Broy./Diag. 0.40E+00    9.3     0.01978781     -1076.0048607455  2.11E-02
   158 Broy./Diag. 0.40E+00    9.4     0.04581155     -1076.0566863098 -5.18E-02
   159 Broy./Diag. 0.40E+00    9.4     0.02522840     -1076.0902358011 -3.35E-02
   160 Broy./Diag. 0.40E+00    9.6     0.02387618     -1076.0099793476  8.03E-02
   161 Broy./Diag. 0.40E+00    9.3     0.01936965     -1076.1468453190 -1.37E-01
   162 Broy./Diag. 0.40E+00    9.3     1.38501881     -1076.0594250330  8.74E-02
   163 Broy./Diag. 0.40E+00    9.5     1.39936325     -1077.8795794577 -1.82E+00
   164 Broy./Diag. 0.40E+00    9.4     1.15073834     -1077.7110809017  1.68E-01
   165 Broy./Diag. 0.40E+00    9.3     1.13631888     -1077.6314311691  7.96E-02
   166 Broy./Diag. 0.40E+00    9.5     0.11010905     -1075.7664432044  1.86E+00
   167 Broy./Diag. 0.40E+00    9.5     0.05614309     -1076.2704842791 -5.04E-01
   168 Broy./Diag. 0.40E+00    9.8     0.01564327     -1076.0043231887  2.66E-01
   169 Broy./Diag. 0.40E+00    9.5     0.00851832     -1075.9466383978  5.77E-02
   170 Broy./Diag. 0.40E+00    9.5     0.00610505     -1076.0518348987 -1.05E-01
   171 Broy./Diag. 0.40E+00    9.5     0.00514320     -1076.0203647587  3.15E-02
   172 Broy./Diag. 0.40E+00    9.3     0.00648502     -1076.0212055863 -8.41E-04
   173 Broy./Diag. 0.40E+00    9.4     0.96121533     -1076.0531636967 -3.20E-02
   174 Broy./Diag. 0.40E+00    9.3     1.74086857     -1079.2450662556 -3.19E+00
   175 Broy./Diag. 0.40E+00    9.3     1.77287266     -1077.5002498003  1.74E+00
   176 Broy./Diag. 0.40E+00    9.4     1.40084035     -1075.8048555492  1.70E+00
   177 Broy./Diag. 0.40E+00    9.4     1.40065434     -1078.1329498256 -2.33E+00
   178 Broy./Diag. 0.40E+00    9.3     1.11224672     -1076.2882892698  1.84E+00
   179 Broy./Diag. 0.40E+00    9.6     1.12438759     -1077.2129161752 -9.25E-01
   180 Broy./Diag. 0.40E+00    9.4     1.09778215     -1075.7237159312  1.49E+00
   181 Broy./Diag. 0.40E+00    9.5     1.10676108     -1078.2329058069 -2.51E+00
   182 Broy./Diag. 0.40E+00    9.5     1.00607359     -1077.8871257362  3.46E-01
   183 Broy./Diag. 0.40E+00    9.6     0.94375203     -1077.9613956833 -7.43E-02
   184 Broy./Diag. 0.40E+00    9.5     0.45348652     -1075.9900701979  1.97E+00
   185 Broy./Diag. 0.40E+00    9.4     0.52802967     -1076.5410207491 -5.51E-01
   186 Broy./Diag. 0.40E+00    9.2     0.18059923     -1075.6352725952  9.06E-01
   187 Broy./Diag. 0.40E+00    9.3     0.06753219     -1076.2669758406 -6.32E-01
   188 Broy./Diag. 0.40E+00    9.3     1.11286386     -1075.8896986662  3.77E-01
   189 Broy./Diag. 0.40E+00    9.4     1.12245256     -1077.6379545462 -1.75E+00
   190 Broy./Diag. 0.40E+00    9.6     0.04730193     -1075.9785358040  1.66E+00
   191 Broy./Diag. 0.40E+00    9.4     1.08836935     -1076.2425539777 -2.64E-01
   192 Broy./Diag. 0.40E+00    9.5     1.10555968     -1077.6840145316 -1.44E+00
   193 Broy./Diag. 0.40E+00    9.4     1.11067829     -1076.0701232222  1.61E+00
   194 Broy./Diag. 0.40E+00    9.4     1.09628778     -1077.9606554127 -1.89E+00
   195 Broy./Diag. 0.40E+00    9.4     1.03062045     -1077.7651901676  1.95E-01
   196 Broy./Diag. 0.40E+00    9.4     1.39559532     -1076.0400915413  1.73E+00
   197 Broy./Diag. 0.40E+00    9.3     1.41451558     -1077.3077293356 -1.27E+00
   198 Broy./Diag. 0.40E+00    9.2     1.29846722     -1075.6564144527  1.65E+00
   199 Broy./Diag. 0.40E+00    9.3     1.22648745     -1078.3214737003 -2.67E+00
   200 Broy./Diag. 0.40E+00    9.5     0.11961400     -1076.2682231473  2.05E+00
   201 Broy./Diag. 0.40E+00    9.4     1.10352985     -1075.8220684060  4.46E-01
   202 Broy./Diag. 0.40E+00    9.5     1.12737483     -1077.4183960693 -1.60E+00
   203 Broy./Diag. 0.40E+00    9.4     1.10215221     -1075.7893582153  1.63E+00
   204 Broy./Diag. 0.40E+00    9.3     1.11675184     -1078.4370299566 -2.65E+00
   205 Broy./Diag. 0.40E+00    9.3     0.13023617     -1076.4600579254  1.98E+00
   206 Broy./Diag. 0.40E+00    9.6     0.09995750     -1075.1778183969  1.28E+00
   207 Broy./Diag. 0.40E+00    9.7     0.02906050     -1076.1455382680 -9.68E-01
   208 Broy./Diag. 0.40E+00    9.6     0.09009050     -1076.0727909043  7.27E-02
   209 Broy./Diag. 0.40E+00    9.6     0.07961507     -1076.3315675182 -2.59E-01
   210 Broy./Diag. 0.40E+00    9.3     1.38741445     -1076.1327697025  1.99E-01
   211 Broy./Diag. 0.40E+00    9.5     1.39854429     -1077.7545587421 -1.62E+00
   212 Broy./Diag. 0.40E+00    9.5     1.14246759     -1077.6904113814  6.41E-02
   213 Broy./Diag. 0.40E+00    9.2     1.11850802     -1076.0355505189  1.65E+00
   214 Broy./Diag. 0.40E+00    9.4     1.12503006     -1078.0336870760 -2.00E+00
   215 Broy./Diag. 0.40E+00    9.5     0.07402847     -1076.0444816737  1.99E+00
   216 Broy./Diag. 0.40E+00    9.4     0.07543525     -1076.1926081361 -1.48E-01
   217 Broy./Diag. 0.40E+00    9.6     0.03139648     -1075.8502760482  3.42E-01
   218 Broy./Diag. 0.40E+00    9.4     0.01430906     -1076.0771271724 -2.27E-01
   219 Broy./Diag. 0.40E+00    9.2     0.01793997     -1075.9763932202  1.01E-01
   220 Broy./Diag. 0.40E+00    8.9     0.01510578     -1076.0455487051 -6.92E-02
   221 Broy./Diag. 0.40E+00    9.4     1.11739565     -1076.0748017871 -2.93E-02
   222 Broy./Diag. 0.40E+00    9.3     1.12551468     -1077.7229701441 -1.65E+00
   223 Broy./Diag. 0.40E+00    9.3     1.11641555     -1076.0254376998  1.70E+00
   224 Broy./Diag. 0.40E+00    9.5     1.12292642     -1077.8933927957 -1.87E+00
   225 Broy./Diag. 0.40E+00    9.2     0.02439764     -1076.0182728251  1.88E+00
   226 Broy./Diag. 0.40E+00    9.0     0.02062915     -1076.0721217088 -5.38E-02
   227 Broy./Diag. 0.40E+00    9.2     0.00772951     -1076.0011696069  7.10E-02
   228 Broy./Diag. 0.40E+00    9.2     0.00780031     -1076.0215502325 -2.04E-02
   229 Broy./Diag. 0.40E+00    9.2     0.00442961     -1076.0503874898 -2.88E-02
   230 Broy./Diag. 0.40E+00    9.5     0.00316989     -1076.0123612568  3.80E-02
   231 Broy./Diag. 0.40E+00    9.4     1.38480304     -1076.0408697807 -2.85E-02
   232 Broy./Diag. 0.40E+00    9.4     1.39469905     -1079.3706115395 -3.33E+00
   233 Broy./Diag. 0.40E+00    9.2     1.39244202     -1077.6178622936  1.75E+00
   234 Broy./Diag. 0.40E+00    9.4     1.42791494     -1077.4830999459  1.35E-01
   235 Broy./Diag. 0.40E+00    9.5     1.02669867     -1077.6922350572 -2.09E-01
   236 Broy./Diag. 0.40E+00    9.2     1.03322710     -1075.9268231485  1.77E+00
   237 Broy./Diag. 0.40E+00    9.1     1.48186087     -1077.5986829258 -1.67E+00
   238 Broy./Diag. 0.40E+00    9.4     1.50358067     -1077.8038422110 -2.05E-01
   239 Broy./Diag. 0.40E+00    9.5     0.99741443     -1077.5308918961  2.73E-01
   240 Broy./Diag. 0.40E+00    9.4     1.09431241     -1075.9911081499  1.54E+00
   241 Broy./Diag. 0.40E+00    9.3     1.12093453     -1077.2557905398 -1.26E+00
   242 Broy./Diag. 0.40E+00    9.4     1.16107048     -1077.0144094683  2.41E-01
   243 Broy./Diag. 0.40E+00    9.3     0.22492452     -1075.6754601697  1.34E+00
   244 Broy./Diag. 0.40E+00    9.5     0.19357872     -1076.5991361333 -9.24E-01
   245 Broy./Diag. 0.40E+00    9.4     0.07254274     -1075.3587055851  1.24E+00
   246 Broy./Diag. 0.40E+00    9.4     0.02936717     -1076.0040704119 -6.45E-01
   247 Broy./Diag. 0.40E+00    9.3     0.96556012     -1075.9642230661  3.98E-02
   248 Broy./Diag. 0.40E+00    9.3     0.98757479     -1077.9390114836 -1.97E+00
   249 Broy./Diag. 0.40E+00    9.4     0.18924152     -1076.1769244075  1.76E+00
   250 Broy./Diag. 0.40E+00    9.4     1.11303870     -1076.0533705078  1.24E-01
   251 Broy./Diag. 0.40E+00    9.5     1.38456183     -1077.9451558666 -1.89E+00
   252 Broy./Diag. 0.40E+00    9.3     1.41305126     -1077.8572871501  8.79E-02
   253 Broy./Diag. 0.40E+00    9.2     0.07575657     -1076.0086431569  1.85E+00
   254 Broy./Diag. 0.40E+00    8.8     0.07191606     -1075.8560061571  1.53E-01
   255 Broy./Diag. 0.40E+00    9.1     0.07648239     -1076.3410891510 -4.85E-01
   256 Broy./Diag. 0.40E+00    9.2     1.10364963     -1075.8427019337  4.98E-01
   257 Broy./Diag. 0.40E+00    9.6     1.12278892     -1077.6905794310 -1.85E+00
   258 Broy./Diag. 0.40E+00    9.3     0.09205186     -1076.0644180700  1.63E+00
   259 Broy./Diag. 0.40E+00    9.5     0.06566277     -1075.8925354227  1.72E-01
   260 Broy./Diag. 0.40E+00    9.3     1.10963659     -1076.1289955435 -2.36E-01
   261 Broy./Diag. 0.40E+00    9.6     1.12027927     -1077.8237283281 -1.69E+00
   262 Broy./Diag. 0.40E+00    9.2     0.10253439     -1076.0885327323  1.74E+00
   263 Broy./Diag. 0.40E+00    9.3     0.96876688     -1075.9468981866  1.42E-01
   264 Broy./Diag. 0.40E+00    9.4     0.97597901     -1077.7324277709 -1.79E+00
   265 Broy./Diag. 0.40E+00    9.6     0.07276856     -1075.9982859668  1.73E+00
   266 Broy./Diag. 0.40E+00    9.3     1.11582682     -1076.3489321180 -3.51E-01
   267 Broy./Diag. 0.40E+00    9.5     1.13394984     -1077.6505396537 -1.30E+00
   268 Broy./Diag. 0.40E+00    9.5     0.09473695     -1075.9176650894  1.73E+00
   269 Broy./Diag. 0.40E+00    9.5     0.10244682     -1076.3290373455 -4.11E-01
   270 Broy./Diag. 0.40E+00    9.3     1.10930373     -1076.0400885641  2.89E-01
   271 Broy./Diag. 0.40E+00    9.3     1.11999544     -1077.8572010982 -1.82E+00
   272 Broy./Diag. 0.40E+00    9.3     0.03605301     -1075.9708789810  1.89E+00
   273 Broy./Diag. 0.40E+00    9.3     0.02180983     -1076.0883081085 -1.17E-01
   274 Broy./Diag. 0.40E+00    9.4     0.01299551     -1076.0728093771  1.55E-02
   275 Broy./Diag. 0.40E+00    9.5     0.00806232     -1076.0473204990  2.55E-02
   276 Broy./Diag. 0.40E+00    9.5     0.96360778     -1076.0220820824  2.52E-02
   277 Broy./Diag. 0.40E+00    9.5     1.10142470     -1077.8009113486 -1.78E+00
   278 Broy./Diag. 0.40E+00    9.5     1.14945494     -1077.6412988765  1.60E-01
   279 Broy./Diag. 0.40E+00    9.3     0.05955461     -1075.9208534405  1.72E+00
   280 Broy./Diag. 0.40E+00    9.3     0.96432822     -1076.0807082427 -1.60E-01
   281 Broy./Diag. 0.40E+00    9.3     0.97673800     -1077.9053068609 -1.82E+00
   282 Broy./Diag. 0.40E+00    9.5     0.08593667     -1076.1363106457  1.77E+00
   283 Broy./Diag. 0.40E+00    9.4     0.06828818     -1075.7108074221  4.26E-01
   284 Broy./Diag. 0.40E+00    9.5     0.01328777     -1076.1109348011 -4.00E-01
   285 Broy./Diag. 0.40E+00    9.2     1.08637756     -1076.0913330181  1.96E-02
   286 Broy./Diag. 0.40E+00    9.5     1.09803887     -1077.7103556342 -1.62E+00
   287 Broy./Diag. 0.40E+00    9.4     0.04374694     -1076.0554708333  1.65E+00
   288 Broy./Diag. 0.40E+00    9.6     0.03413601     -1076.0215514118  3.39E-02
   289 Broy./Diag. 0.40E+00    9.2     0.03168356     -1076.1390718889 -1.18E-01
   290 Broy./Diag. 0.40E+00    9.2     1.10243410     -1076.0304104445  1.09E-01
   291 Broy./Diag. 0.40E+00    9.5     1.12970954     -1077.7937034000 -1.76E+00
   292 Broy./Diag. 0.40E+00    9.6     0.12076647     -1076.0867548888  1.71E+00
   293 Broy./Diag. 0.40E+00    9.3     0.09256551     -1075.9028975449  1.84E-01
   294 Broy./Diag. 0.40E+00    9.1     0.03135084     -1076.1601933109 -2.57E-01
   295 Broy./Diag. 0.40E+00    9.2     1.10795540     -1076.0410084856  1.19E-01
   296 Broy./Diag. 0.40E+00    9.7     1.11539181     -1077.8576489820 -1.82E+00
   297 Broy./Diag. 0.40E+00    9.5     0.02848490     -1076.0204910709  1.84E+00
   298 Broy./Diag. 0.40E+00    9.2     0.02448925     -1076.1624571405 -1.42E-01
   299 Broy./Diag. 0.40E+00    9.6     0.01832889     -1075.9957286512  1.67E-01
   300 Broy./Diag. 0.40E+00    9.4     0.96204706     -1076.0750119094 -7.93E-02

  Leaving inner SCF loop after reaching   300 steps.


  Electronic density on regular grids:       -511.9997473938        0.0002526062
  Core density on regular grids:              512.0001384659        0.0001384659
  Total charge density on r-space grids:        0.0003910720
  Total charge density g-space grids:           0.0003910720

  Overlap energy of the core charge distribution:               0.00000000000000
  Self energy of the core charge distribution:              -2838.21791979120962
  Core Hamiltonian energy:                                    760.42903269513442
  Hartree energy:                                            1240.52482159564579
  Exchange-correlation energy:                               -238.81094640893548

  Total energy:                                             -1076.07501190936478

 *** WARNING in qs_scf.F:542 :: SCF run NOT converged ***


 ENERGY| Total FORCE_EVAL ( QS ) energy (a.u.):            -1074.284257669914041


 ATOMIC FORCES in [a.u.]

 # Atom   Kind   Element          X              Y              Z
      1      1      O           0.07541290     0.02984799     0.07373987
      2      2      H           0.02813368    -0.03270382    -0.02648982
      3      2      H          -0.09160661    -0.00409722    -0.01302236
      4      1      O          -0.07880318     0.03543736    -0.12593367
      5      2      H           0.07380576     0.06050969     0.00549680
      6      2      H           0.00100624     0.00210230     0.11038270
      7      1      O           0.10262055    -0.06636954     0.04710924
      8      2      H          -0.07834617    -0.02100276    -0.04282621
      9      2      H          -0.06346928     0.00530054     0.06323494
     10      1      O           0.03456477     0.09293248     0.09185992
     11      2      H          -0.03408345    -0.00638685    -0.03708428
     12      2      H           0.07711818    -0.00933696    -0.01184766
     13      1      O          -0.08503458    -0.03130019    -0.00832317
     14      2      H           0.07110753     0.06478286     0.01414025
     15      2      H          -0.02037675    -0.03493069    -0.07115149
     16      1      O           0.06560903     0.11419402    -0.00142365
     17      2      H           0.06324533    -0.01980210     0.00106384
     18      2      H          -0.04745624    -0.03799184    -0.01699215
     19      1      O          -0.04840996    -0.13424153     0.06347020
     20      2      H          -0.02522043     0.12799123    -0.01154441
     21      2      H           0.07501397    -0.00742903    -0.05537925
     22      1      O          -0.08993275    -0.02592425    -0.08038455
     23      2      H           0.05880034    -0.04476682     0.05746453
     24      2      H          -0.02287991     0.05501051     0.02498345
     25      1      O          -0.12664529    -0.14824844     0.14116864
     26      2      H          -0.05520635     0.02352526    -0.06163315
     27      2      H           0.17606326     0.08215908    -0.02069528
     28      1      O          -0.06908997    -0.04288624     0.06751923
     29      2      H           0.00348974    -0.02479386    -0.03417854
     30      2      H           0.03038035     0.04756624    -0.00819975
     31      1      O          -0.01320938    -0.12064266    -0.02898622
     32      2      H           0.06126999    -0.00796686     0.01087656
     33      2      H          -0.00967642     0.07223492    -0.06383360
     34      1      O           0.02857831     0.09543141     0.05419877
     35      2      H          -0.04412405     0.05062395     0.00400162
     36      2      H           0.02425599    -0.10265276    -0.03410331
     37      1      O           0.13170644    -0.10922432    -0.05520170
     38      2      H          -0.07023784    -0.03645749     0.03159690
     39      2      H          -0.00270188     0.14554186    -0.06474056
     40      1      O           0.09028169     0.05537748    -0.12869155
     41      2      H          -0.02839565    -0.05574128     0.03360972
     42      2      H           0.00919666     0.03102866     0.04642645
     43      1      O           0.05009929     0.00764552    -0.02783803
     44      2      H           0.03804326     0.05094497     0.01829644
     45      2      H          -0.02063454    -0.04557037     0.03606245
     46      1      O          -0.04599937     0.01661232     0.04199976
     47      2      H           0.10445956    -0.00135643     0.06702802
     48      2      H          -0.00919299     0.00757978    -0.09973185
     49      1      O          -0.04953905    -0.12840869     0.01251197
     50      2      H           0.01315754     0.05730104    -0.07228621
     51      2      H          -0.04010040     0.03626254     0.08065712
     52      1      O           0.00012448     0.01843454     0.07264914
     53      2      H          -0.00432485     0.01394347    -0.04393400
     54      2      H          -0.00507272    -0.07055302     0.02229789
     55      1      O          -0.11709272    -0.03476223     0.02324125
     56      2      H           0.05612674    -0.04641046    -0.00758068
     57      2      H          -0.00669327     0.03835832    -0.04046773
     58      1      O          -0.01612893     0.09419465     0.06950524
     59      2      H          -0.02913688    -0.03952375     0.02761567
     60      2      H           0.02922600    -0.03422965    -0.02404642
     61      1      O           0.02429068     0.09228251    -0.01472559
     62      2      H          -0.02382859    -0.04943996    -0.04361828
     63      2      H           0.01287559    -0.00327241     0.03707756
     64      1      O          -0.06747111    -0.11502555    -0.03675070
     65      2      H          -0.01216009     0.06408566    -0.03278621
     66      2      H           0.01385681     0.01827614     0.11594821
     67      1      O          -0.01245966     0.04824393     0.06392035
     68      2      H           0.08219680     0.02503410    -0.00835053
     69      2      H          -0.03216810    -0.06308747    -0.01750934
     70      1      O          -0.02877850     0.06279219     0.04353356
     71      2      H          -0.04617547    -0.04295322    -0.01958677
     72      2      H           0.04832697    -0.02643089    -0.02444714
     73      1      O           0.03702809     0.14187322     0.06353391
     74      2      H          -0.10721444    -0.02132466     0.04858918
     75      2      H           0.02530667    -0.11063059    -0.07217696
     76      1      O           0.00046395     0.01958222    -0.03638798
     77      2      H           0.05617019    -0.03122949     0.00883279
     78      2      H          -0.08045846     0.01146375     0.05310762
     79      1      O          -0.02799094     0.00950176    -0.00402756
     80      2      H           0.05190656    -0.03959708    -0.07876342
     81      2      H           0.02215754    -0.03074983     0.08770419
     82      1      O           0.02131973     0.02594110     0.12898358
     83      2      H           0.01018575    -0.05353504    -0.07977684
     84      2      H          -0.04580724     0.08460923    -0.03516484
     85      1      O           0.01437451    -0.07628260     0.05926273
     86      2      H          -0.04185368     0.01100355     0.07189267
     87      2      H          -0.01545199     0.02456339    -0.09234092
     88      1      O          -0.07551643     0.04179098    -0.00948661
     89      2      H          -0.00051116    -0.02736496     0.03703876
     90      2      H           0.03368982     0.00626738    -0.06258753
     91      1      O           0.03728753    -0.00567958    -0.05060415
     92      2      H          -0.06061419     0.01488313     0.07865083
     93      2      H           0.04042092     0.03006887     0.04639943
     94      1      O           0.08169440    -0.02965215    -0.03049170
     95      2      H          -0.01173860    -0.07918141     0.00880004
     96      2      H          -0.02106662     0.07725742     0.06535968
     97      1      O          -0.03101106     0.13088177    -0.07363580
     98      2      H          -0.06357046    -0.08383660    -0.00268215
     99      2      H           0.06732936     0.00600229     0.06087121
    100      1      O          -0.02831730     0.04720679    -0.01065070
    101      2      H          -0.01992053    -0.06005966    -0.04794774
    102      2      H           0.04002581    -0.01532004     0.03220204
    103      1      O           0.00828233    -0.10388796     0.01065794
    104      2      H          -0.05775633     0.04320693    -0.05945799
    105      2      H          -0.01280056     0.03135868     0.02582285
    106      1      O          -0.00713797     0.03097577     0.08446363
    107      2      H           0.05110754    -0.05216588    -0.02417860
    108      2      H          -0.04789715     0.02354259    -0.06332358
    109      1      O          -0.01499252     0.00718007    -0.01577751
    110      2      H           0.06617893    -0.02412718    -0.07256737
    111      2      H          -0.05687316     0.00295598     0.00817997
    112      1      O           0.05389397    -0.00538407     0.00288232
    113      2      H           0.00651755    -0.08803493    -0.03376514
    114      2      H          -0.03203226     0.02988269    -0.01273885
    115      1      O          -0.05123350    -0.09531412    -0.09265754
    116      2      H           0.03139314     0.08192225     0.02113131
    117      2      H          -0.02299027     0.00265586     0.03255212
    118      1      O          -0.01499689     0.08632221    -0.01080863
    119      2      H           0.07774475    -0.01351696    -0.00450262
    120      2      H          -0.05726935    -0.03049197    -0.00282213
    121      1      O          -0.01711653    -0.09762600     0.03296656
    122      2      H          -0.04034475     0.02657381    -0.04727460
    123      2      H           0.06659044     0.02362876     0.07344540
    124      1      O          -0.03372153     0.03959552    -0.04589810
    125      2      H           0.07309330    -0.01642283     0.03315254
    126      2      H          -0.01275933    -0.00070748     0.06924545
    127      1      O           0.08507216     0.06963919     0.05244610
    128      2      H          -0.03726868     0.05900290    -0.01069151
    129      2      H          -0.05103184    -0.06339958     0.01708895
    130      1      O          -0.01069785    -0.05417212    -0.03495456
    131      2      H           0.02092620     0.02374945     0.04326125
    132      2      H          -0.01530681    -0.00417771     0.01832588
    133      1      O          -0.07998903     0.05833119    -0.02786440
    134      2      H          -0.02436888    -0.03009073    -0.08092624
    135      2      H           0.03935426     0.00316639     0.06129513
    136      1      O          -0.02799800     0.02444278    -0.01630387
    137      2      H          -0.03053612     0.02830938     0.05821231
    138      2      H           0.11536477     0.01284753    -0.01350377
    139      1      O          -0.03275587    -0.03903202    -0.05288789
    140      2      H           0.07013368     0.00457889    -0.01908495
    141      2      H          -0.01102490     0.03268988     0.06137666
    142      1      O          -0.04326477    -0.07789894     0.03753908
    143      2      H           0.05725498     0.04672702    -0.02448268
    144      2      H          -0.06854765     0.02917450     0.02536242
    145      1      O          -0.00153188    -0.03455568    -0.06837353
    146      2      H           0.04195066     0.02921947    -0.05248308
    147      2      H          -0.04438437     0.04859767     0.07162708
    148      1      O           0.03791547    -0.09777411     0.05041112
    149      2      H          -0.02224064     0.03007784    -0.09149219
    150      2      H          -0.03632092     0.02556588     0.05628284
    151      1      O           0.00600824     0.07291293    -0.02761964
    152      2      H           0.02709394    -0.04623091     0.03985597
    153      2      H          -0.07510099    -0.02876613    -0.07647886
    154      1      O           0.00062920     0.05031613    -0.07112860
    155      2      H          -0.02552018    -0.06084820    -0.03139719
    156      2      H           0.04043649     0.03393516     0.03177901
    157      1      O           0.10255387    -0.06113184    -0.03304072
    158      2      H           0.01225426     0.05561374    -0.00452437
    159      2      H          -0.07060207    -0.04061721    -0.03910232
    160      1      O           0.06083949    -0.00871547    -0.03732789
    161      2      H          -0.00635110     0.07540279     0.04915132
    162      2      H           0.02138598     0.00843533    -0.08478836
    163      1      O          -0.03141234    -0.00992774     0.07253335
    164      2      H           0.08013279    -0.03111450    -0.04589779
    165      2      H          -0.04046633     0.08087064    -0.01796568
    166      1      O           0.09925784     0.03417745     0.07773248
    167      2      H          -0.03177478     0.01914164    -0.10659661
    168      2      H          -0.04867377     0.00220831     0.00956976
    169      1      O          -0.00361808    -0.08525921     0.07659417
    170      2      H          -0.01331887     0.07398470     0.07421232
    171      2      H          -0.01511533    -0.01916003    -0.10631824
    172      1      O           0.03481748     0.01162041    -0.00857625
    173      2      H          -0.00920770    -0.00064474     0.06596386
    174      2      H          -0.02964543     0.07632968    -0.04173942
    175      1      O           0.09657085     0.10461770    -0.04141233
    176      2      H          -0.03484401    -0.08102919    -0.03224695
    177      2      H          -0.09517143     0.01011309     0.02379920
    178      1      O           0.09953937     0.06507929     0.04695847
    179      2      H          -0.06125293     0.04198085    -0.00609799
    180      2      H          -0.03153246    -0.06503149    -0.09222469
    181      1      O           0.03503331    -0.09247903     0.05441446
    182      2      H          -0.03670338    -0.01826169    -0.08737245
    183      2      H          -0.02114949     0.06682509     0.02312211
    184      1      O           0.04186741     0.01098074    -0.04076624
    185      2      H           0.03012769    -0.11883679    -0.02045795
    186      2      H           0.03137684     0.06986549     0.07111475
    187      1      O          -0.04102568    -0.09472754    -0.00947686
    188      2      H           0.05787940     0.02268180     0.04438743
    189      2      H          -0.00650986     0.01355704    -0.07345447
    190      1      O           0.01452424     0.06414041    -0.04526523
    191      2      H          -0.03781055    -0.00869869    -0.04809971
    192      2      H           0.01651721    -0.04038185     0.07701121
 SUM OF ATOMIC FORCES           0.01852171     0.21619003    -0.09940315     0.23866749

 -------------------------------------------------------------------------------
 -                                                                             -
 -                                DBCSR STATISTICS                             -
 -                                                                             -
 -------------------------------------------------------------------------------
 COUNTER                                    TOTAL       BLAS       SMM       ACC
 flops     5 x     5 x   256           5220544000       0.0%    100.0%      0.0%
 flops     5 x    13 x   256           6471162880       0.0%    100.0%      0.0%
 flops    13 x     5 x   256           6641456640       0.0%    100.0%      0.0%
 flops    13 x    13 x   256           8594826240       0.0%    100.0%      0.0%
 flops inhomo. stacks                           0       0.0%      0.0%      0.0%
 flops total                        26.927990E+09       0.0%    100.0%      0.0%
 flops max/rank                     26.927990E+09       0.0%    100.0%      0.0%
 matmuls inhomo. stacks                         0       0.0%      0.0%      0.0%
 matmuls total                             901194       0.0%    100.0%      0.0%
 number of processed stacks                 42140       0.0%    100.0%      0.0%
 average stack size                                     0.0      21.4       0.0
 marketing flops                   333.927416E+09
 -------------------------------------------------------------------------------
 # multiplications                            301
 max memory usage/rank               4.994093E+09
 # max total images/rank                        1
 # max 3D layers                                1
 # MPI messages exchanged                       0
 MPI messages size (bytes):
  total size                         0.000000E+00
  min size                           0.000000E+00
  max size                           0.000000E+00
  average size                       0.000000E+00
 MPI breakdown and total messages size (bytes):
             size <=      128                   0                        0
       128 < size <=     8192                   0                        0
      8192 < size <=    32768                   0                        0
     32768 < size <=   131072                   0                        0
    131072 < size <=  4194304                   0                        0
   4194304 < size <= 16777216                   0                        0
  16777216 < size                               0                        0
 -------------------------------------------------------------------------------

 MEMORY| Estimated peak process memory [MiB]                                4757

 -------------------------------------------------------------------------------
 -                                                                             -
 -                           R E F E R E N C E S                               -
 -                                                                             -
 -------------------------------------------------------------------------------
 
 CP2K version 7.1, the CP2K developers group (2019).
 CP2K is freely available from https://www.cp2k.org/ .

 Schuett, Ole; Messmer, Peter; Hutter, Juerg; VandeVondele, Joost. 
 Electronic Structure Calculations on Graphics Processing Units, John
 Wiley & Sons, Ltd, 173-190 (2016). 
 GPU-Accelerated Sparse Matrix-Matrix Multiplication for
 Linear Scaling Density Functional Theory.
 https://dx.doi.org/10.1002/9781118670712.ch8

 Borstnik, U; VandeVondele, J; Weber, V; Hutter, J. 
 PARALLEL COMPUTING, 40 (5-6), 47-58 (2014). 
 Sparse matrix multiplication: The distributed block-compressed sparse
 row library.
 https://dx.doi.org/10.1016/j.parco.2014.03.012

 Hutter, J; Iannuzzi, M; Schiffmann, F; VandeVondele, J. 
 WIREs Comput Mol Sci., 4 (1), 15-25 (2014). 
 CP2K: atomistic simulations of condensed matter systems.
 https://dx.doi.org/10.1002/wcms.1159

 Krack, M. 
 THEORETICAL CHEMISTRY ACCOUNTS, 114 (1-3), 145-152 (2005). 
 Pseudopotentials for H to Kr optimized for gradient-corrected
 exchange-correlation functionals.
 https://dx.doi.org/10.1007/s00214-005-0655-y

 VandeVondele, J; Krack, M; Mohamed, F; Parrinello, M; Chassaing, T;
 Hutter, J. COMPUTER PHYSICS COMMUNICATIONS, 167 (2), 103-128 (2005). 
 QUICKSTEP: Fast and accurate density functional calculations using a
 mixed Gaussian and plane waves approach.
 https://dx.doi.org/10.1016/j.cpc.2004.12.014

 Frigo, M; Johnson, SG. 
 PROCEEDINGS OF THE IEEE, 93 (2), 216-231 (2005). 
 The design and implementation of FFTW3.
 https://dx.doi.org/10.1109/JPROC.2004.840301

 Hartwigsen, C; Goedecker, S; Hutter, J. 
 PHYSICAL REVIEW B, 58 (7), 3641-3662 (1998). 
 Relativistic separable dual-space Gaussian pseudopotentials from H to Rn.
 https://dx.doi.org/10.1103/PhysRevB.58.3641

 Lippert, G; Hutter, J; Parrinello, M. 
 MOLECULAR PHYSICS, 92 (3), 477-487 (1997). 
 A hybrid Gaussian and plane wave density functional scheme.
 https://dx.doi.org/10.1080/002689797170220

 Goedecker, S; Teter, M; Hutter, J. 
 PHYSICAL REVIEW B, 54 (3), 1703-1710 (1996). 
 Separable dual-space Gaussian pseudopotentials.
 https://dx.doi.org/10.1103/PhysRevB.54.1703


 -------------------------------------------------------------------------------
 -                                                                             -
 -                                T I M I N G                                  -
 -                                                                             -
 -------------------------------------------------------------------------------
 SUBROUTINE                       CALLS  ASD         SELF TIME        TOTAL TIME
                                MAXIMUM       AVERAGE  MAXIMUM  AVERAGE  MAXIMUM
 CP2K                                 1  1.0    0.178    0.178 2803.100 2803.100
 qs_forces                            1  2.0    0.000    0.000 2801.108 2801.108
 qs_energies                          1  3.0    0.000    0.000 2800.383 2800.383
 scf_env_do_scf                       1  4.0    0.001    0.001 2797.955 2797.955
 scf_env_do_scf_inner_loop          300  5.0    0.061    0.061 2797.954 2797.954
 qs_scf_new_mos                     300  6.0    0.010    0.010 1986.663 1986.663
 eigensolver                        300  7.0    0.048    0.048 1951.865 1951.865
 cp_fm_syevd                        300  8.0 1271.018 1271.018 1272.801 1272.801
 cp_fm_cholesky_restore             900  8.0  677.989  677.989  677.989  677.989
 gspace_mixing                      299  6.0    6.730    6.730  456.437  456.437
 broyden_mixing                     299  7.0  413.899  413.899  413.902  413.902
 rebuild_ks_matrix                  301  7.0    0.001    0.001  185.886  185.886
 qs_ks_build_kohn_sham_matrix       301  8.0    0.076    0.076  185.885  185.885
 qs_ks_update_qs_env                300  6.0    0.003    0.003  185.671  185.671
 pw_transfer                       3912  9.9    0.301    0.301  172.986  172.986
 fft_wrap_pw1pw2                   3310 10.9    0.035    0.035  168.106  168.106
 qs_rho_update_rho                  301  6.0    0.003    0.003  168.097  168.097
 calculate_rho_elec                 301  7.0   78.897   78.897  168.093  168.093
 fft_wrap_pw1pw2_70                1504 11.2   18.740   18.740  154.097  154.097
 density_rs2pw                      301  8.0    0.024    0.024   86.180   86.180
 fft3d_s                           3311 12.9   74.926   74.926   74.959   74.959
 pw_scatter_s                      1804 13.2   59.233   59.233   59.233   59.233
 pw_poisson_solve                   301  9.0   54.527   54.527   59.205   59.205
 -------------------------------------------------------------------------------

 The number of warnings for this run is : 1
 
 -------------------------------------------------------------------------------
  **** **** ******  **  PROGRAM ENDED AT                 2021-01-14 02:14:54.273
 ***** ** ***  *** **   PROGRAM RAN ON                                   gnode23
 **    ****   ******    PROGRAM RAN BY                               mayank.modi
 ***** **    ** ** **   PROGRAM PROCESS ID                                 30920
  **** **  *******  **  PROGRAM STOPPED IN /home/mayank.modi/ab-initio-thermodyn
                                           amics-of-water/mayank/cp2k_energy_cal
                                           culations
