 DBCSR| CPU Multiplication driver                                           XSMM
 DBCSR| Multrec recursion limit                                              512
 DBCSR| Multiplication stack size                                           1000
 DBCSR| Maximum elements for images                                    UNLIMITED
 DBCSR| Multiplicative factor virtual images                                   1
 DBCSR| Use multiplication densification                                       T
 DBCSR| Multiplication size stacks                                             3


  **** **** ******  **  PROGRAM STARTED AT               2021-01-13 08:19:17.962
 ***** ** ***  *** **   PROGRAM STARTED ON                               gnode23
 **    ****   ******    PROGRAM STARTED BY                           mayank.modi
 ***** **    ** ** **   PROGRAM PROCESS ID                                 12307
  **** **  *******  **  PROGRAM STARTED IN /home/mayank.modi/ab-initio-thermodyn
                                           amics-of-water/mayank/cp2k_energy_cal
                                           culations

 CP2K| version string:                                          CP2K version 7.1
 CP2K| source code revision number:                                  git:e635599
 CP2K| cp2kflags: omp libint fftw3 libxc xsmm spglib                            
 CP2K| is freely available from                            https://www.cp2k.org/
 CP2K| Program compiled at                          Mon Dec 23 19:23:12 CET 2019
 CP2K| Program compiled on                                                pc9404
 CP2K| Program compiled for                                Linux-x86-64-gfortran
 CP2K| Data directory path                                        /opt/cp2k/data
 CP2K| Input file name                   input_training_correct_cell/input416.in

 GLOBAL| Force Environment number                                              1
 GLOBAL| Basis set file name                                           BASIS_SET
 GLOBAL| Potential file name                                      GTH_POTENTIALS
 GLOBAL| MM Potential file name                                     MM_POTENTIAL
 GLOBAL| Coordinate file name                                      __STD_INPUT__
 GLOBAL| Method name                                                        CP2K
 GLOBAL| Project name                                                   H2O_bulk
 GLOBAL| Preferred FFT library                                             FFTW3
 GLOBAL| Preferred diagonalization lib.                                       SL
 GLOBAL| Run type                                                   ENERGY_FORCE
 GLOBAL| All-to-all communication in single precision                          F
 GLOBAL| FFTs using library dependent lengths                                  F
 GLOBAL| Global print level                                                  LOW
 GLOBAL| MPI I/O enabled                                                       T
 GLOBAL| Total number of message passing processes                             1
 GLOBAL| Number of threads for this process                                   36
 GLOBAL| This output is from process                                           0
 GLOBAL| CPU model name                Intel(R) Xeon(R) CPU E5-2640 v4 @ 2.40GHz
 GLOBAL| CPUID                                                              1002
 GLOBAL| Compiled for CPUID                                                    0

 MEMORY| system memory details [Kb]
 MEMORY|                        rank 0           min           max       average
 MEMORY| MemTotal            131897972     131897972     131897972     131897972
 MEMORY| MemFree             125607272     125607272     125607272     125607272
 MEMORY| Buffers               1900976       1900976       1900976       1900976
 MEMORY| Cached                1392548       1392548       1392548       1392548
 MEMORY| Slab                  2525712       2525712       2525712       2525712
 MEMORY| SReclaimable          1495016       1495016       1495016       1495016
 MEMORY| MemLikelyFree       130395812     130395812     130395812     130395812


 GENERATE|  Preliminary Number of Bonds generated:                             0
 GENERATE|  Achieved consistency in connectivity generation.

 *******************************************************************************
 *******************************************************************************
 **                                                                           **
 **     #####                         ##              ##                      **
 **    ##   ##            ##          ##              ##                      **
 **   ##     ##                       ##            ######                    **
 **   ##     ##  ##   ##  ##   #####  ##  ##   ####   ##    #####    #####    **
 **   ##     ##  ##   ##  ##  ##      ## ##   ##      ##   ##   ##  ##   ##   **
 **   ##  ## ##  ##   ##  ##  ##      ####     ###    ##   ######   ######    **
 **    ##  ###   ##   ##  ##  ##      ## ##      ##   ##   ##       ##        **
 **     #######   #####   ##   #####  ##  ##  ####    ##    #####   ##        **
 **           ##                                                    ##        **
 **                                                                           **
 **                                                ... make the atoms dance   **
 **                                                                           **
 **            Copyright (C) by CP2K developers group (2000 - 2019)           **
 **                                                                           **
 *******************************************************************************


 TOTAL NUMBERS AND MAXIMUM NUMBERS

  Total number of            - Atomic kinds:                                   2
                             - Atoms:                                        192
                             - Shell sets:                                   384
                             - Shells:                                       704
                             - Primitive Cartesian functions:                960
                             - Cartesian basis functions:                   1536
                             - Spherical basis functions:                   1472

  Maximum angular momentum of- Orbital basis functions:                        2
                             - Local part of the GTH pseudopotential:          2
                             - Non-local part of the GTH pseudopotential:      0


 SCF PARAMETERS         Density guess:                                    ATOMIC
                        --------------------------------------------------------
                        max_scf:                                             300
                        max_scf_history:                                       0
                        max_diis:                                              4
                        --------------------------------------------------------
                        eps_scf:                                        1.00E-07
                        eps_scf_history:                                0.00E+00
                        eps_diis:                                       1.00E-01
                        eps_eigval:                                     1.00E-05
                        --------------------------------------------------------
                        level_shift [a.u.]:                                 0.00
                        --------------------------------------------------------
                        Mixing method:                            BROYDEN_MIXING
                                                charge density mixing in g-space
                        --------------------------------------------------------
                        No outer SCF

 Number of electrons:                                                        512
 Number of occupied orbitals:                                                256
 Number of molecular orbitals:                                               256

 Number of orbital functions:                                               1472
 Number of independent orbital functions:                                   1472

 Extrapolation method: initial_guess


 SCF WAVEFUNCTION OPTIMIZATION

  Step     Update method      Time    Convergence         Total energy    Change
  ------------------------------------------------------------------------------
     1 NoMix/Diag. 0.40E+00    7.1     0.68726084     -1064.0920404314 -1.06E+03
     2 Broy./Diag. 0.40E+00    7.5     1.92109156      -995.7297259260  6.84E+01
     3 Broy./Diag. 0.40E+00    7.7     1.95125375     -1264.0258080781 -2.68E+02
     4 Broy./Diag. 0.40E+00    7.9     1.75636023     -1115.1609584082  1.49E+02
     5 Broy./Diag. 0.40E+00    8.2     1.72036703     -1095.3942812571  1.98E+01
     6 Broy./Diag. 0.40E+00    8.1     1.84772348     -1096.5790802039 -1.18E+00
     7 Broy./Diag. 0.40E+00    8.1     1.74691391     -1091.2925504576  5.29E+00
     8 Broy./Diag. 0.40E+00    8.2     1.20940345     -1081.2131414749  1.01E+01
     9 Broy./Diag. 0.40E+00    8.6     1.34506682     -1079.5233635808  1.69E+00
    10 Broy./Diag. 0.40E+00    8.8     1.45914360     -1073.3498382475  6.17E+00
    11 Broy./Diag. 0.40E+00    8.7     1.53740623     -1080.7912957144 -7.44E+00
    12 Broy./Diag. 0.40E+00    8.6     1.71243946     -1079.7801879961  1.01E+00
    13 Broy./Diag. 0.40E+00    8.5     1.83765895     -1070.4886562010  9.29E+00
    14 Broy./Diag. 0.40E+00    8.8     1.37125066     -1076.5826259018 -6.09E+00
    15 Broy./Diag. 0.40E+00    8.7     1.50949723     -1074.6772690219  1.91E+00
    16 Broy./Diag. 0.40E+00    8.7     1.62408974     -1078.7661614516 -4.09E+00
    17 Broy./Diag. 0.40E+00    8.5     1.66630144     -1075.2470286676  3.52E+00
    18 Broy./Diag. 0.40E+00    8.6     1.73347483     -1080.8876408262 -5.64E+00
    19 Broy./Diag. 0.40E+00    8.6     1.70196915     -1074.3653004355  6.52E+00
    20 Broy./Diag. 0.40E+00    8.7     1.38383910     -1074.9366363179 -5.71E-01
    21 Broy./Diag. 0.40E+00    8.6     1.70819840     -1075.0287505481 -9.21E-02
    22 Broy./Diag. 0.40E+00    8.7     1.71770559     -1077.6667363973 -2.64E+00
    23 Broy./Diag. 0.40E+00    8.7     0.98584924     -1072.9369524602  4.73E+00
    24 Broy./Diag. 0.40E+00    8.5     1.73732847     -1072.4433300069  4.94E-01
    25 Broy./Diag. 0.40E+00    8.3     1.79664282     -1081.9193940180 -9.48E+00
    26 Broy./Diag. 0.40E+00    8.3     1.58943024     -1080.9710079454  9.48E-01
    27 Broy./Diag. 0.40E+00    8.7     1.71056791     -1075.0143121434  5.96E+00
    28 Broy./Diag. 0.40E+00    8.7     1.73636220     -1077.4816281910 -2.47E+00
    29 Broy./Diag. 0.40E+00    8.6     1.54600231     -1077.6761845816 -1.95E-01
    30 Broy./Diag. 0.40E+00    8.7     1.33934728     -1077.7282492156 -5.21E-02
    31 Broy./Diag. 0.40E+00    8.6     1.26774861     -1074.6105955752  3.12E+00
    32 Broy./Diag. 0.40E+00    8.6     1.72090930     -1077.0988696960 -2.49E+00
    33 Broy./Diag. 0.40E+00    8.7     1.73107139     -1075.0955572631  2.00E+00
    34 Broy./Diag. 0.40E+00    8.7     1.71132947     -1077.2843128320 -2.19E+00
    35 Broy./Diag. 0.40E+00    9.1     1.55484874     -1073.5902310186  3.69E+00
    36 Broy./Diag. 0.40E+00    8.4     1.74143247     -1074.7549940919 -1.16E+00
    37 Broy./Diag. 0.40E+00    8.5     1.77961673     -1078.2497192429 -3.49E+00
    38 Broy./Diag. 0.40E+00    8.5     1.54343981     -1074.6450391919  3.60E+00
    39 Broy./Diag. 0.40E+00    8.7     1.59616530     -1077.1373511403 -2.49E+00
    40 Broy./Diag. 0.40E+00    8.7     1.44693302     -1074.1484958935  2.99E+00
    41 Broy./Diag. 0.40E+00    8.6     1.27509336     -1072.2298202985  1.92E+00
    42 Broy./Diag. 0.40E+00    8.4     1.35457718     -1078.6000283327 -6.37E+00
    43 Broy./Diag. 0.40E+00    8.6     1.59082448     -1078.6090764337 -9.05E-03
    44 Broy./Diag. 0.40E+00    8.6     1.75691539     -1077.3523052372  1.26E+00
    45 Broy./Diag. 0.40E+00    8.9     1.76098861     -1077.6566335585 -3.04E-01
    46 Broy./Diag. 0.40E+00    8.5     1.64956734     -1075.0129691625  2.64E+00
    47 Broy./Diag. 0.40E+00    8.7     1.76604708     -1074.6638835669  3.49E-01
    48 Broy./Diag. 0.40E+00    8.6     1.51663595     -1074.3563998105  3.07E-01
    49 Broy./Diag. 0.40E+00    8.6     1.58446383     -1076.5475526068 -2.19E+00
    50 Broy./Diag. 0.40E+00    8.8     1.44571954     -1074.1498220530  2.40E+00
    51 Broy./Diag. 0.40E+00    8.5     1.28610418     -1074.4410772778 -2.91E-01
    52 Broy./Diag. 0.40E+00    8.5     1.72951855     -1075.4336278415 -9.93E-01
    53 Broy./Diag. 0.40E+00    8.8     1.76575296     -1078.2179638594 -2.78E+00
    54 Broy./Diag. 0.40E+00    8.7     1.72550539     -1076.6940579358  1.52E+00
    55 Broy./Diag. 0.40E+00    8.7     1.70837217     -1075.4359831340  1.26E+00
    56 Broy./Diag. 0.40E+00    8.6     1.77186879     -1077.2185276007 -1.78E+00
    57 Broy./Diag. 0.40E+00    8.7     1.38572924     -1074.2098303707  3.01E+00
    58 Broy./Diag. 0.40E+00    8.6     1.41449012     -1074.1471811352  6.26E-02
    59 Broy./Diag. 0.40E+00    8.7     1.36350895     -1075.1436094222 -9.96E-01
    60 Broy./Diag. 0.40E+00    8.6     1.72767590     -1074.5112878343  6.32E-01
    61 Broy./Diag. 0.40E+00    8.6     1.74233173     -1077.7853482974 -3.27E+00
    62 Broy./Diag. 0.40E+00    8.8     1.75820666     -1074.2629556855  3.52E+00
    63 Broy./Diag. 0.40E+00    8.6     1.71556553     -1074.9311637575 -6.68E-01
    64 Broy./Diag. 0.40E+00    8.8     1.77672097     -1077.1551722767 -2.22E+00
    65 Broy./Diag. 0.40E+00    8.5     1.79891960     -1077.1311858067  2.40E-02
    66 Broy./Diag. 0.40E+00    8.5     1.60924095     -1076.8900543794  2.41E-01
    67 Broy./Diag. 0.40E+00    8.8     1.20940789     -1073.8006435663  3.09E+00
    68 Broy./Diag. 0.40E+00    8.7     1.74069687     -1072.0977172703  1.70E+00
    69 Broy./Diag. 0.40E+00    8.5     1.73080449     -1081.7643242002 -9.67E+00
    70 Broy./Diag. 0.40E+00    8.5     1.73147154     -1075.7533613549  6.01E+00
    71 Broy./Diag. 0.40E+00    8.7     1.76878954     -1077.8440707515 -2.09E+00
    72 Broy./Diag. 0.40E+00    8.9     1.57803108     -1077.4374966131  4.07E-01
    73 Broy./Diag. 0.40E+00    8.8     1.67129450     -1074.8784647926  2.56E+00
    74 Broy./Diag. 0.40E+00    8.5     1.76814174     -1076.7891929446 -1.91E+00
    75 Broy./Diag. 0.40E+00    8.3     1.80581959     -1077.2891074469 -5.00E-01
    76 Broy./Diag. 0.40E+00    8.4     1.62759033     -1076.4797951353  8.09E-01
    77 Broy./Diag. 0.40E+00    8.5     1.32774271     -1074.7340129497  1.75E+00
    78 Broy./Diag. 0.40E+00    8.7     1.77527260     -1071.0826473862  3.65E+00
    79 Broy./Diag. 0.40E+00    8.6     1.77441121     -1079.2319474862 -8.15E+00
    80 Broy./Diag. 0.40E+00    8.6     1.35124225     -1078.1245812589  1.11E+00
    81 Broy./Diag. 0.40E+00    8.7     1.38085072     -1074.4988917189  3.63E+00
    82 Broy./Diag. 0.40E+00    8.8     1.66708962     -1074.1847866287  3.14E-01
    83 Broy./Diag. 0.40E+00    8.5     1.75116941     -1077.4612830561 -3.28E+00
    84 Broy./Diag. 0.40E+00    8.4     1.49298509     -1073.2542507892  4.21E+00
    85 Broy./Diag. 0.40E+00    8.8     1.73629906     -1076.7313334088 -3.48E+00
    86 Broy./Diag. 0.40E+00    8.8     1.76767073     -1076.8897860880 -1.58E-01
    87 Broy./Diag. 0.40E+00    8.7     1.23165628     -1078.1758476359 -1.29E+00
    88 Broy./Diag. 0.40E+00    8.6     1.22747345     -1074.9119953152  3.26E+00
    89 Broy./Diag. 0.40E+00    8.6     1.63326717     -1072.4834340618  2.43E+00
    90 Broy./Diag. 0.40E+00    8.7     1.69731065     -1081.7529159366 -9.27E+00
    91 Broy./Diag. 0.40E+00    8.7     1.69681258     -1077.7419994807  4.01E+00
    92 Broy./Diag. 0.40E+00    8.6     1.74681746     -1074.8321899243  2.91E+00
    93 Broy./Diag. 0.40E+00    8.6     1.77412149     -1077.6353120119 -2.80E+00
    94 Broy./Diag. 0.40E+00    8.7     1.56236657     -1077.0786398339  5.57E-01
    95 Broy./Diag. 0.40E+00    8.7     1.53971079     -1074.2992856801  2.78E+00
    96 Broy./Diag. 0.40E+00    8.6     1.59044763     -1077.3540132875 -3.05E+00
    97 Broy./Diag. 0.40E+00    8.8     1.25207971     -1077.9759221963 -6.22E-01
    98 Broy./Diag. 0.40E+00    8.7     1.67485451     -1072.8197512896  5.16E+00
    99 Broy./Diag. 0.40E+00    8.8     1.67271416     -1080.7163504166 -7.90E+00
   100 Broy./Diag. 0.40E+00    8.7     1.72830652     -1077.9686073871  2.75E+00
   101 Broy./Diag. 0.40E+00    8.8     1.75340651     -1074.6592451049  3.31E+00
   102 Broy./Diag. 0.40E+00    8.4     1.49044759     -1076.9511272947 -2.29E+00
   103 Broy./Diag. 0.40E+00    8.6     1.69028222     -1074.0817823635  2.87E+00
   104 Broy./Diag. 0.40E+00    8.4     1.76736221     -1074.7519412478 -6.70E-01
   105 Broy./Diag. 0.40E+00    8.7     1.54034301     -1074.9973523218 -2.45E-01
   106 Broy./Diag. 0.40E+00    9.1     1.67682026     -1074.6346896960  3.63E-01
   107 Broy./Diag. 0.40E+00    8.6     1.79252603     -1077.6811152218 -3.05E+00
   108 Broy./Diag. 0.40E+00    8.7     1.78666416     -1081.1772943079 -3.50E+00
   109 Broy./Diag. 0.40E+00    8.6     1.37424511     -1073.7126771406  7.46E+00
   110 Broy./Diag. 0.40E+00    8.8     1.41387354     -1071.2245515082  2.49E+00
   111 Broy./Diag. 0.40E+00    8.5     1.37636177     -1078.4969681831 -7.27E+00
   112 Broy./Diag. 0.40E+00    8.4     1.75044414     -1078.2132274735  2.84E-01
   113 Broy./Diag. 0.40E+00    8.7     1.77332614     -1080.7277630453 -2.51E+00
   114 Broy./Diag. 0.40E+00    8.7     1.61788168     -1077.6715670894  3.06E+00
   115 Broy./Diag. 0.40E+00    8.6     1.72843804     -1075.2870004186  2.38E+00
   116 Broy./Diag. 0.40E+00    8.6     1.48351349     -1074.4605057100  8.26E-01
   117 Broy./Diag. 0.40E+00    8.5     1.74893574     -1076.0900297752 -1.63E+00
   118 Broy./Diag. 0.40E+00    8.4     1.18437006     -1071.6752738913  4.41E+00
   119 Broy./Diag. 0.40E+00    8.8     1.27598188     -1078.5791019798 -6.90E+00
   120 Broy./Diag. 0.40E+00    8.7     1.70633834     -1078.6099105724 -3.08E-02
   121 Broy./Diag. 0.40E+00    8.6     1.73304626     -1077.6776319199  9.32E-01
   122 Broy./Diag. 0.40E+00    8.7     1.75130304     -1072.1521489740  5.53E+00
   123 Broy./Diag. 0.40E+00    8.7     1.82168239     -1080.3351426323 -8.18E+00
   124 Broy./Diag. 0.40E+00    8.7     1.59202413     -1077.8433553994  2.49E+00
   125 Broy./Diag. 0.40E+00    8.7     1.59929369     -1075.3397946149  2.50E+00
   126 Broy./Diag. 0.40E+00    8.7     1.72818475     -1077.2334231475 -1.89E+00
   127 Broy./Diag. 0.40E+00    8.6     1.76797238     -1076.5148409783  7.19E-01
   128 Broy./Diag. 0.40E+00    8.5     1.74703162     -1074.5543062637  1.96E+00
   129 Broy./Diag. 0.40E+00    8.5     1.38315299     -1077.3072753950 -2.75E+00
   130 Broy./Diag. 0.40E+00    8.9     1.50048184     -1077.5799291322 -2.73E-01
   131 Broy./Diag. 0.40E+00    8.7     1.53771873     -1077.0020892385  5.78E-01
   132 Broy./Diag. 0.40E+00    8.5     1.35063104     -1074.2709047949  2.73E+00
   133 Broy./Diag. 0.40E+00    8.8     1.17496428     -1075.4461639586 -1.18E+00
   134 Broy./Diag. 0.40E+00    8.6     1.40987947     -1078.3905402945 -2.94E+00
   135 Broy./Diag. 0.40E+00    8.8     1.73928096     -1074.4631068303  3.93E+00
   136 Broy./Diag. 0.40E+00    8.7     1.78352898     -1078.4068052646 -3.94E+00
   137 Broy./Diag. 0.40E+00    8.6     1.57213243     -1074.1550164198  4.25E+00
   138 Broy./Diag. 0.40E+00    8.7     1.73343505     -1074.9467837670 -7.92E-01
   139 Broy./Diag. 0.40E+00    8.8     1.78689579     -1076.5803711912 -1.63E+00
   140 Broy./Diag. 0.40E+00    8.6     1.56077968     -1071.5326613343  5.05E+00
   141 Broy./Diag. 0.40E+00    8.7     1.55998316     -1081.1680253709 -9.64E+00
   142 Broy./Diag. 0.40E+00    8.6     1.71692967     -1078.1100236249  3.06E+00
   143 Broy./Diag. 0.40E+00    8.5     1.74849028     -1077.4063441823  7.04E-01
   144 Broy./Diag. 0.40E+00    8.6     1.29083991     -1074.8208565791  2.59E+00
   145 Broy./Diag. 0.40E+00    8.6     1.50343171     -1074.7711943261  4.97E-02
   146 Broy./Diag. 0.40E+00    8.8     1.57128222     -1077.1611909636 -2.39E+00
   147 Broy./Diag. 0.40E+00    8.3     1.76016677     -1075.6802242718  1.48E+00
   148 Broy./Diag. 0.40E+00    8.6     1.78636649     -1077.7110448409 -2.03E+00
   149 Broy./Diag. 0.40E+00    8.8     1.65555080     -1077.3767477380  3.34E-01
   150 Broy./Diag. 0.40E+00    8.7     1.72193091     -1071.3999297387  5.98E+00
   151 Broy./Diag. 0.40E+00    8.6     1.76460180     -1080.9679509611 -9.57E+00
   152 Broy./Diag. 0.40E+00    8.5     1.72788631     -1076.5426887500  4.43E+00
   153 Broy./Diag. 0.40E+00    8.3     1.74418296     -1077.6354088892 -1.09E+00
   154 Broy./Diag. 0.40E+00    8.2     1.27447610     -1074.8294839528  2.81E+00
   155 Broy./Diag. 0.40E+00    8.3     1.49682145     -1074.4346726346  3.95E-01
   156 Broy./Diag. 0.40E+00    8.3     1.65280457     -1076.9496407312 -2.51E+00
   157 Broy./Diag. 0.40E+00    8.3     1.75373173     -1077.1156978346 -1.66E-01
   158 Broy./Diag. 0.40E+00    8.3     1.79562966     -1077.8396540941 -7.24E-01
   159 Broy./Diag. 0.40E+00    8.3     1.41253348     -1074.7148850308  3.12E+00
   160 Broy./Diag. 0.40E+00    8.8     1.36444572     -1071.2816796989  3.43E+00
   161 Broy./Diag. 0.40E+00    8.6     1.37389366     -1078.9833652507 -7.70E+00
   162 Broy./Diag. 0.40E+00    8.6     1.31477173     -1078.4415707469  5.42E-01
   163 Broy./Diag. 0.40E+00    8.5     1.13776549     -1073.6452231713  4.80E+00
   164 Broy./Diag. 0.40E+00    8.3     1.73758688     -1076.7866775617 -3.14E+00
   165 Broy./Diag. 0.40E+00    8.3     1.76122184     -1077.0088405960 -2.22E-01
   166 Broy./Diag. 0.40E+00    8.5     1.53238634     -1077.3247550784 -3.16E-01
   167 Broy./Diag. 0.40E+00    8.6     1.21910436     -1075.0538197567  2.27E+00
   168 Broy./Diag. 0.40E+00    8.6     1.70065206     -1074.4854651557  5.68E-01
   169 Broy./Diag. 0.40E+00    8.7     1.79233791     -1077.2358696867 -2.75E+00
   170 Broy./Diag. 0.40E+00    8.6     1.28633266     -1077.4567923862 -2.21E-01
   171 Broy./Diag. 0.40E+00    8.7     1.40684346     -1075.0186934657  2.44E+00
   172 Broy./Diag. 0.40E+00    8.8     1.45783531     -1075.1785481781 -1.60E-01
   173 Broy./Diag. 0.40E+00    8.7     1.56857186     -1077.5813081488 -2.40E+00
   174 Broy./Diag. 0.40E+00    8.7     1.75337548     -1074.9778958485  2.60E+00
   175 Broy./Diag. 0.40E+00    8.5     1.80080729     -1077.2637444485 -2.29E+00
   176 Broy./Diag. 0.40E+00    8.3     1.60467671     -1076.8457311028  4.18E-01
   177 Broy./Diag. 0.40E+00    8.2     1.33046377     -1071.6008388094  5.24E+00
   178 Broy./Diag. 0.40E+00    8.4     1.55134438     -1079.5421755687 -7.94E+00
   179 Broy./Diag. 0.40E+00    8.8     1.72888612     -1078.4369052117  1.11E+00
   180 Broy./Diag. 0.40E+00    8.8     1.55227955     -1075.8969022254  2.54E+00
   181 Broy./Diag. 0.40E+00    8.7     1.23980405     -1074.4236398542  1.47E+00
   182 Broy./Diag. 0.40E+00    8.7     1.74746092     -1074.2781580530  1.45E-01
   183 Broy./Diag. 0.40E+00    8.8     1.76368834     -1077.8748441770 -3.60E+00
   184 Broy./Diag. 0.40E+00    8.8     1.38831823     -1075.6585616249  2.22E+00
   185 Broy./Diag. 0.40E+00    8.6     1.53223209     -1075.4301936572  2.28E-01
   186 Broy./Diag. 0.40E+00    8.8     1.58332768     -1076.9236361167 -1.49E+00
   187 Broy./Diag. 0.40E+00    8.8     1.59132159     -1074.9708709956  1.95E+00
   188 Broy./Diag. 0.40E+00    8.7     1.74075634     -1078.5142706669 -3.54E+00
   189 Broy./Diag. 0.40E+00    8.7     1.76599524     -1077.4604991378  1.05E+00
   190 Broy./Diag. 0.40E+00    8.8     1.68416338     -1074.4225336771  3.04E+00
   191 Broy./Diag. 0.40E+00    8.8     1.76947330     -1076.9716618771 -2.55E+00
   192 Broy./Diag. 0.40E+00    8.8     1.52535133     -1071.1941811355  5.78E+00
   193 Broy./Diag. 0.40E+00    8.7     1.53317631     -1079.2848488022 -8.09E+00
   194 Broy./Diag. 0.40E+00    8.7     1.37321405     -1075.3359094646  3.95E+00
   195 Broy./Diag. 0.40E+00    9.1     1.28125492     -1072.4704456489  2.87E+00
   196 Broy./Diag. 0.40E+00    8.6     1.70478812     -1077.3723400247 -4.90E+00
   197 Broy./Diag. 0.40E+00    8.6     1.74530244     -1077.6909210093 -3.19E-01
   198 Broy./Diag. 0.40E+00    8.8     1.76187984     -1077.7815907094 -9.07E-02
   199 Broy./Diag. 0.40E+00    9.1     1.79263148     -1077.7202485875  6.13E-02
   200 Broy./Diag. 0.40E+00    8.8     1.69392775     -1075.1206626840  2.60E+00
   201 Broy./Diag. 0.40E+00    8.7     1.75992436     -1076.2780357792 -1.16E+00
   202 Broy./Diag. 0.40E+00    8.6     1.39416416     -1074.5319431081  1.75E+00
   203 Broy./Diag. 0.40E+00    8.6     1.59001044     -1078.1527018532 -3.62E+00
   204 Broy./Diag. 0.40E+00    8.9     1.64465735     -1075.3826978739  2.77E+00
   205 Broy./Diag. 0.40E+00    8.5     1.76003375     -1074.2761463873  1.11E+00
   206 Broy./Diag. 0.40E+00    8.5     1.62405024     -1074.4942161514 -2.18E-01
   207 Broy./Diag. 0.40E+00    8.4     1.72636355     -1077.9163293202 -3.42E+00
   208 Broy./Diag. 0.40E+00    8.8     1.78706360     -1074.2484739881  3.67E+00
   209 Broy./Diag. 0.40E+00    8.6     1.12497336     -1076.9430431936 -2.69E+00
   210 Broy./Diag. 0.40E+00    8.6     1.77101690     -1077.3079221766 -3.65E-01
   211 Broy./Diag. 0.40E+00    8.5     1.43795198     -1075.0115319050  2.30E+00
   212 Broy./Diag. 0.40E+00    8.3     1.39069039     -1074.1430201793  8.69E-01
   213 Broy./Diag. 0.40E+00    8.2     1.59351863     -1078.3260989309 -4.18E+00
   214 Broy./Diag. 0.40E+00    8.4     1.69270185     -1075.1137947875  3.21E+00
   215 Broy./Diag. 0.40E+00    9.4     1.75344293     -1077.3487603170 -2.23E+00
   216 Broy./Diag. 0.40E+00    8.6     1.74069364     -1073.8359568727  3.51E+00
   217 Broy./Diag. 0.40E+00    8.7     1.70333887     -1077.5322831731 -3.70E+00
   218 Broy./Diag. 0.40E+00    8.7     1.26161685     -1075.4647232937  2.07E+00
   219 Broy./Diag. 0.40E+00    8.7     1.53740343     -1078.3914829821 -2.93E+00
   220 Broy./Diag. 0.40E+00    8.6     1.76447316     -1077.6059361807  7.86E-01
   221 Broy./Diag. 0.40E+00    8.6     1.38351021     -1077.5604233691  4.55E-02
   222 Broy./Diag. 0.40E+00    8.6     1.33154705     -1073.9726131259  3.59E+00
   223 Broy./Diag. 0.40E+00    8.5     1.69267125     -1078.2053055419 -4.23E+00
   224 Broy./Diag. 0.40E+00    8.7     1.71973600     -1077.5413177442  6.64E-01
   225 Broy./Diag. 0.40E+00    8.5     1.75491981     -1072.8119647342  4.73E+00
   226 Broy./Diag. 0.40E+00    8.6     1.78060112     -1080.8730984090 -8.06E+00
   227 Broy./Diag. 0.40E+00    8.5     1.52374607     -1077.3788081869  3.49E+00
   228 Broy./Diag. 0.40E+00    8.6     1.49253530     -1072.7370850961  4.64E+00
   229 Broy./Diag. 0.40E+00    8.7     1.58481377     -1080.5665311292 -7.83E+00
   230 Broy./Diag. 0.40E+00    8.7     1.78608210     -1076.7694449020  3.80E+00
   231 Broy./Diag. 0.40E+00    8.6     1.73570501     -1075.3879026381  1.38E+00
   232 Broy./Diag. 0.40E+00    8.6     1.28011739     -1077.6649229873 -2.28E+00
   233 Broy./Diag. 0.40E+00    8.9     1.39005523     -1074.4767997460  3.19E+00
   234 Broy./Diag. 0.40E+00    8.7     1.75151541     -1074.7646221329 -2.88E-01
   235 Broy./Diag. 0.40E+00    8.6     1.80700221     -1077.4275440915 -2.66E+00
   236 Broy./Diag. 0.40E+00    8.2     1.56887811     -1077.0612813431  3.66E-01
   237 Broy./Diag. 0.40E+00    8.2     1.64853503     -1075.3430987296  1.72E+00
   238 Broy./Diag. 0.40E+00    8.4     1.72962216     -1077.4405532604 -2.10E+00
   239 Broy./Diag. 0.40E+00    8.6     1.40842851     -1071.4035615764  6.04E+00
   240 Broy./Diag. 0.40E+00    8.7     1.39273129     -1078.8755496995 -7.47E+00
   241 Broy./Diag. 0.40E+00    8.5     1.28882470     -1078.6248051784  2.51E-01
   242 Broy./Diag. 0.40E+00    8.2     1.38174933     -1077.8376241929  7.87E-01
   243 Broy./Diag. 0.40E+00    9.1     1.36448940     -1074.7083037689  3.13E+00
   244 Broy./Diag. 0.40E+00    8.6     1.75418136     -1077.1551245098 -2.45E+00
   245 Broy./Diag. 0.40E+00    8.3     1.76174528     -1078.0611725604 -9.06E-01
   246 Broy./Diag. 0.40E+00    8.2     1.72829718     -1077.1164592858  9.45E-01
   247 Broy./Diag. 0.40E+00    8.4     1.75649233     -1077.4648205806 -3.48E-01
   248 Broy./Diag. 0.40E+00    8.2     1.74001050     -1077.7525497503 -2.88E-01
   249 Broy./Diag. 0.40E+00    8.2     1.64904296     -1077.2366331420  5.16E-01
   250 Broy./Diag. 0.40E+00    8.3     1.29728110     -1069.6100915004  7.63E+00
   251 Broy./Diag. 0.40E+00    8.7     1.70447325     -1075.9482632688 -6.34E+00
   252 Broy./Diag. 0.40E+00    8.7     1.72254788     -1078.9243660772 -2.98E+00
   253 Broy./Diag. 0.40E+00    8.6     1.35793582     -1074.5968961528  4.33E+00
   254 Broy./Diag. 0.40E+00    8.7     1.45721001     -1074.3149781088  2.82E-01
   255 Broy./Diag. 0.40E+00    8.7     1.53820408     -1074.9445101161 -6.30E-01
   256 Broy./Diag. 0.40E+00    8.7     1.68316949     -1074.0369927067  9.08E-01
   257 Broy./Diag. 0.40E+00    8.8     1.74871415     -1076.2352400532 -2.20E+00
   258 Broy./Diag. 0.40E+00    8.6     1.79884524     -1077.2954794446 -1.06E+00
   259 Broy./Diag. 0.40E+00    8.3     1.62730909     -1077.2275669140  6.79E-02
   260 Broy./Diag. 0.40E+00    8.4     1.53419331     -1072.4445478399  4.78E+00
   261 Broy./Diag. 0.40E+00    8.8     1.38810264     -1082.1570143194 -9.71E+00
   262 Broy./Diag. 0.40E+00    8.6     1.71283607     -1081.1109661095  1.05E+00
   263 Broy./Diag. 0.40E+00    8.5     1.76715638     -1080.3772208651  7.34E-01
   264 Broy./Diag. 0.40E+00    8.7     1.25389573     -1076.9780442825  3.40E+00
   265 Broy./Diag. 0.40E+00    8.8     1.39563250     -1074.6889220669  2.29E+00
   266 Broy./Diag. 0.40E+00    8.5     1.65823303     -1077.6003153352 -2.91E+00
   267 Broy./Diag. 0.40E+00    8.3     1.79877293     -1076.8280136597  7.72E-01
   268 Broy./Diag. 0.40E+00    8.3     1.78670947     -1077.3026617690 -4.75E-01
   269 Broy./Diag. 0.40E+00    8.3     1.52678030     -1075.6155002006  1.69E+00
   270 Broy./Diag. 0.40E+00    8.1     1.57911153     -1076.7639011612 -1.15E+00
   271 Broy./Diag. 0.40E+00    8.3     1.36322565     -1074.5203937205  2.24E+00
   272 Broy./Diag. 0.40E+00    8.3     1.28505471     -1074.5717909335 -5.14E-02
   273 Broy./Diag. 0.40E+00    8.3     1.61927426     -1078.1560594315 -3.58E+00
   274 Broy./Diag. 0.40E+00    8.6     1.72640463     -1076.2674230869  1.89E+00
   275 Broy./Diag. 0.40E+00    8.7     1.74121557     -1073.4699984922  2.80E+00
   276 Broy./Diag. 0.40E+00    8.5     1.66941555     -1075.0666432518 -1.60E+00
   277 Broy./Diag. 0.40E+00    8.8     1.76312100     -1077.3752319138 -2.31E+00
   278 Broy./Diag. 0.40E+00    8.6     1.49248877     -1075.6860098186  1.69E+00
   279 Broy./Diag. 0.40E+00    8.8     1.56116219     -1078.0744202134 -2.39E+00
   280 Broy./Diag. 0.40E+00    8.7     1.21592053     -1077.8839576745  1.90E-01
   281 Broy./Diag. 0.40E+00    8.5     1.75119361     -1072.6021510562  5.28E+00
   282 Broy./Diag. 0.40E+00    8.4     1.75885356     -1081.5768003635 -8.97E+00
   283 Broy./Diag. 0.40E+00    8.7     1.73758176     -1077.4121968355  4.16E+00
   284 Broy./Diag. 0.40E+00    8.6     1.75050215     -1075.2417309949  2.17E+00
   285 Broy./Diag. 0.40E+00    8.5     1.55279740     -1077.5981936982 -2.36E+00
   286 Broy./Diag. 0.40E+00    8.5     1.30212068     -1077.7573605729 -1.59E-01
   287 Broy./Diag. 0.40E+00    8.9     1.29453668     -1074.6321521309  3.13E+00
   288 Broy./Diag. 0.40E+00    8.6     1.27973868     -1077.8548386391 -3.22E+00
   289 Broy./Diag. 0.40E+00    8.7     1.35042032     -1075.2073467434  2.65E+00
   290 Broy./Diag. 0.40E+00    8.7     1.45900451     -1074.4182864217  7.89E-01
   291 Broy./Diag. 0.40E+00    8.6     1.74769826     -1077.8617608367 -3.44E+00
   292 Broy./Diag. 0.40E+00    8.5     1.78526246     -1080.4926602287 -2.63E+00
   293 Broy./Diag. 0.40E+00    8.4     1.81378540     -1076.8104010262  3.68E+00
   294 Broy./Diag. 0.40E+00    8.2     1.57016907     -1071.1861048049  5.62E+00
   295 Broy./Diag. 0.40E+00    8.1     1.75124413     -1078.0538114283 -6.87E+00
   296 Broy./Diag. 0.40E+00    8.5     1.74633845     -1078.4236890526 -3.70E-01
   297 Broy./Diag. 0.40E+00    8.7     1.35400099     -1072.7347138032  5.69E+00
   298 Broy./Diag. 0.40E+00    8.7     1.49404984     -1079.7877916525 -7.05E+00
   299 Broy./Diag. 0.40E+00    8.6     1.35703692     -1079.5799160901  2.08E-01
   300 Broy./Diag. 0.40E+00    8.6     1.75286115     -1074.2050280870  5.37E+00

  Leaving inner SCF loop after reaching   300 steps.


  Electronic density on regular grids:       -512.0001267230       -0.0001267230
  Core density on regular grids:              511.9996287280       -0.0003712720
  Total charge density on r-space grids:       -0.0004979950
  Total charge density g-space grids:          -0.0004979950

  Overlap energy of the core charge distribution:               0.00000000000000
  Self energy of the core charge distribution:              -2838.21791979120962
  Core Hamiltonian energy:                                    761.53413661534432
  Hartree energy:                                            1240.97226699621592
  Exchange-correlation energy:                               -238.49351190739043

  Total energy:                                             -1074.20502808703986

 *** WARNING in qs_scf.F:542 :: SCF run NOT converged ***


 ENERGY| Total FORCE_EVAL ( QS ) energy (a.u.):            -1071.977870971517632


 ATOMIC FORCES in [a.u.]

 # Atom   Kind   Element          X              Y              Z
      1      1      O          -0.14702084     0.07242669    -0.04122673
      2      2      H          -0.02075791     0.03719610    -0.08429769
      3      2      H           0.03926255    -0.05559307     0.04971649
      4      1      O           0.01131119    -0.03663287     0.05912200
      5      2      H           0.06043313    -0.00405960    -0.04962922
      6      2      H          -0.00480246     0.02264268    -0.00617782
      7      1      O           0.05403286    -0.14043670    -0.02525996
      8      2      H          -0.01324999     0.04966103    -0.05158598
      9      2      H          -0.08323362     0.09792114     0.06767774
     10      1      O          -0.14842434     0.03961985    -0.07829423
     11      2      H           0.01770216    -0.03891088    -0.02472812
     12      2      H          -0.05016561     0.05342927     0.08266656
     13      1      O           0.05860866     0.06409128     0.07543620
     14      2      H          -0.07883956     0.04678387    -0.00370571
     15      2      H           0.02542583    -0.01987264     0.05444985
     16      1      O          -0.02210444     0.09798195     0.21553047
     17      2      H           0.00964587    -0.08318257    -0.21213520
     18      2      H           0.01564898     0.06642875     0.02872768
     19      1      O           0.01229649     0.12769417    -0.08464921
     20      2      H          -0.07330488    -0.07137125     0.03369766
     21      2      H           0.05989537     0.00251758    -0.00069789
     22      1      O          -0.09022705     0.15590080     0.16379331
     23      2      H          -0.02409543    -0.09371850    -0.00907810
     24      2      H           0.09608038    -0.04415906     0.00985486
     25      1      O           0.05595258     0.10881141     0.03609534
     26      2      H           0.05337204    -0.02963377    -0.07023154
     27      2      H          -0.01948583     0.02215099    -0.06431858
     28      1      O          -0.07846334    -0.17498341    -0.08051830
     29      2      H          -0.02440986     0.10392244    -0.03998661
     30      2      H           0.07241049     0.04614803     0.02638995
     31      1      O           0.01551491    -0.14694314    -0.05307871
     32      2      H           0.05011319     0.08771077    -0.00789672
     33      2      H          -0.12781752    -0.04823602    -0.03474838
     34      1      O           0.13035216    -0.04679313    -0.16240634
     35      2      H           0.00207159    -0.06226461     0.08230312
     36      2      H          -0.01156325     0.04119490     0.03582928
     37      1      O          -0.08961625    -0.10021523    -0.03117668
     38      2      H           0.07444845     0.01516801    -0.03679703
     39      2      H          -0.03709444     0.01337188     0.06866339
     40      1      O          -0.01795894     0.04690175     0.07069864
     41      2      H          -0.07400940     0.02789445    -0.05621120
     42      2      H           0.03269583    -0.02307925     0.02163316
     43      1      O           0.13514930    -0.08942242    -0.16651434
     44      2      H          -0.01714691    -0.04880579     0.03887485
     45      2      H           0.02427046     0.08847368    -0.02731590
     46      1      O          -0.15660700    -0.09120976    -0.14315356
     47      2      H          -0.00297489     0.05828995     0.07068094
     48      2      H           0.04771290    -0.05859520     0.01077849
     49      1      O          -0.14522992     0.08445626     0.04668580
     50      2      H           0.02145068    -0.02276478    -0.06414268
     51      2      H          -0.04787234    -0.02493867     0.04054346
     52      1      O          -0.07564384    -0.12604305     0.01183626
     53      2      H           0.01965905     0.00373206    -0.02615986
     54      2      H           0.02796588     0.00025342     0.09867249
     55      1      O          -0.04516790     0.06383076    -0.08082107
     56      2      H           0.05274216    -0.04590336    -0.05652874
     57      2      H           0.05102199     0.07614898     0.06656881
     58      1      O           0.05163765     0.02841800     0.10333936
     59      2      H           0.02935011    -0.04431305    -0.00550720
     60      2      H          -0.02586830    -0.01568612     0.00574203
     61      1      O          -0.15170308    -0.15275568    -0.03288958
     62      2      H          -0.03343041     0.00310016    -0.10098714
     63      2      H           0.00997555    -0.02671409     0.06673098
     64      1      O          -0.06598868     0.07348280     0.03370092
     65      2      H          -0.00399749     0.00278633     0.07663501
     66      2      H          -0.00005167    -0.03391748     0.06224142
     67      1      O          -0.14912559     0.01490737     0.13494696
     68      2      H           0.05300416     0.04486024    -0.00932074
     69      2      H          -0.02851083    -0.01049606    -0.03259110
     70      1      O           0.05787394    -0.05032587    -0.05041397
     71      2      H          -0.01277850     0.04189042     0.10836945
     72      2      H           0.06587665     0.10068724    -0.05942166
     73      1      O          -0.04516869    -0.08012410     0.02323363
     74      2      H          -0.09861479     0.07766461     0.03616087
     75      2      H          -0.04668255    -0.05423594     0.04303028
     76      1      O           0.11040490    -0.11404808    -0.14668962
     77      2      H          -0.01641844     0.06953665    -0.00736176
     78      2      H          -0.06063939    -0.00700731     0.01823888
     79      1      O          -0.08453010    -0.11784909    -0.12777509
     80      2      H          -0.03046802     0.09152580     0.07169795
     81      2      H          -0.02410184     0.01540142     0.00117197
     82      1      O          -0.07846550    -0.06171308    -0.00205969
     83      2      H           0.03889091    -0.02929901     0.02098077
     84      2      H          -0.01417683     0.00797195    -0.04932017
     85      1      O          -0.14240224    -0.18113842     0.02820771
     86      2      H           0.05297431     0.04667844    -0.06213521
     87      2      H           0.01424125     0.03023332     0.04878671
     88      1      O           0.05850346     0.16132025    -0.17276550
     89      2      H          -0.08721737    -0.07878193     0.05616554
     90      2      H           0.07414319     0.00847842    -0.04166306
     91      1      O          -0.00161015    -0.02254622     0.14262278
     92      2      H          -0.04002668    -0.01873605     0.05590733
     93      2      H           0.03673946    -0.02083464    -0.03044773
     94      1      O           0.08358945    -0.03404182    -0.03787507
     95      2      H          -0.04625571     0.11207965     0.00688189
     96      2      H          -0.02410998     0.05248891     0.11801085
     97      1      O           0.08340940    -0.18687661     0.05168460
     98      2      H           0.02837046     0.01968018    -0.06660825
     99      2      H           0.05242969     0.00709586     0.11489032
    100      1      O           0.06686521     0.05541615     0.00742630
    101      2      H           0.05376479     0.00093568    -0.01461348
    102      2      H          -0.05789392     0.02448078    -0.01233748
    103      1      O          -0.06620808    -0.14293790    -0.06951945
    104      2      H          -0.02374025    -0.04485043    -0.04162164
    105      2      H           0.00780600     0.05063395    -0.00060535
    106      1      O          -0.02815912     0.12680467    -0.11521469
    107      2      H           0.03132468    -0.01826018    -0.03259068
    108      2      H           0.07055351     0.01255772     0.02666660
    109      1      O          -0.04718890     0.04204150     0.15346488
    110      2      H          -0.03798112     0.10554710     0.01804698
    111      2      H           0.02914939     0.01631051    -0.07004212
    112      1      O           0.01983661    -0.07838479     0.17315355
    113      2      H           0.01226556    -0.10000064    -0.08571668
    114      2      H           0.06713301     0.10217925    -0.04848013
    115      1      O          -0.01602935     0.00441700     0.01451842
    116      2      H           0.00755404    -0.02143377    -0.06838996
    117      2      H          -0.02584127     0.00465043    -0.04736096
    118      1      O          -0.01101590     0.05255250    -0.13399618
    119      2      H           0.08947467    -0.00101876     0.05858780
    120      2      H          -0.06915893    -0.06880254     0.07010765
    121      1      O          -0.11951878    -0.17583479     0.07239116
    122      2      H          -0.02924817     0.09844461     0.04267805
    123      2      H           0.06805402     0.00193301     0.00170868
    124      1      O           0.16048127    -0.02141379    -0.12453140
    125      2      H           0.03924824     0.00524545     0.10423449
    126      2      H          -0.06747283     0.06284577    -0.03946324
    127      1      O          -0.00146823    -0.03805688     0.03975071
    128      2      H          -0.06814799     0.06664710    -0.02569770
    129      2      H           0.09544626    -0.00744969     0.00303252
    130      1      O           0.13995044    -0.08424402     0.07261969
    131      2      H          -0.02332895     0.01473918     0.06208836
    132      2      H          -0.00823275    -0.04512214    -0.02038094
    133      1      O          -0.12220963    -0.10946637     0.00847769
    134      2      H           0.01976988    -0.06669402    -0.05764259
    135      2      H           0.03257582     0.09427872    -0.03847280
    136      1      O           0.15860373    -0.03500826    -0.16437890
    137      2      H           0.06041341    -0.07181700     0.03227140
    138      2      H          -0.08895862     0.08662490     0.00392563
    139      1      O          -0.14740675     0.08013442    -0.04341306
    140      2      H           0.00181352     0.00568530    -0.06220880
    141      2      H           0.06256526    -0.01689242    -0.00732217
    142      1      O           0.18536155     0.14778660     0.01696504
    143      2      H          -0.02024317    -0.00466085     0.11697405
    144      2      H          -0.16402425     0.02527304    -0.01578684
    145      1      O          -0.04981951    -0.10267175     0.14221059
    146      2      H           0.03375483     0.02728434    -0.04119266
    147      2      H          -0.05331414     0.08996458    -0.00831035
    148      1      O           0.14420512     0.01609794     0.11278689
    149      2      H          -0.09820697     0.00829402     0.00730172
    150      2      H           0.01698270     0.04733560     0.03880316
    151      1      O          -0.05566028     0.15624475    -0.09034427
    152      2      H           0.03705742     0.02267449     0.03657871
    153      2      H           0.06882546    -0.05874720    -0.03268984
    154      1      O          -0.10406195     0.03336117    -0.02220526
    155      2      H          -0.07310037    -0.02641030     0.09568473
    156      2      H           0.06660729     0.09423541    -0.04804014
    157      1      O           0.07558368    -0.11465782     0.09282727
    158      2      H           0.02772622     0.02805587    -0.06809997
    159      2      H          -0.02738923    -0.05989817     0.08021362
    160      1      O           0.17657717     0.06353691     0.06319854
    161      2      H           0.00687333     0.09900785     0.01154925
    162      2      H          -0.05487249    -0.08247452    -0.01491915
    163      1      O          -0.07972060    -0.15596593     0.04327550
    164      2      H          -0.02640408     0.08017684    -0.05480366
    165      2      H          -0.01921517     0.08151518     0.11491273
    166      1      O          -0.09802335    -0.07315204     0.01629800
    167      2      H           0.02364575     0.04644182     0.02437700
    168      2      H           0.03929409     0.00839270     0.00306178
    169      1      O          -0.01230329    -0.07299853    -0.14040570
    170      2      H          -0.11497261    -0.02609780     0.03475264
    171      2      H           0.01917833     0.07742174    -0.00118511
    172      1      O          -0.17571406     0.04984270    -0.13897201
    173      2      H           0.04073166    -0.09183093     0.07653833
    174      2      H           0.07907315     0.02094258     0.00774375
    175      1      O           0.08507434     0.01614380    -0.00503998
    176      2      H          -0.01819288     0.04321928    -0.04049655
    177      2      H          -0.05903835    -0.00749300     0.00445454
    178      1      O          -0.16345947    -0.04856680    -0.08455877
    179      2      H           0.04778346    -0.04834214     0.07511612
    180      2      H          -0.00148630     0.00206333    -0.00609601
    181      1      O           0.12738345    -0.04159159    -0.13315871
    182      2      H           0.01603929     0.02060965     0.12320214
    183      2      H           0.00621389     0.06906570     0.00847467
    184      1      O           0.12826737    -0.01878302     0.16496761
    185      2      H          -0.02578072    -0.05647735    -0.08770607
    186      2      H           0.04314836     0.10725968     0.00528345
    187      1      O          -0.10975867    -0.12667994    -0.03571687
    188      2      H           0.00689381     0.01570512    -0.04737941
    189      2      H          -0.04274443    -0.04230501    -0.05769472
    190      1      O          -0.06773106     0.04484327    -0.08076420
    191      2      H          -0.02257839     0.08299135    -0.07354304
    192      2      H           0.06056616     0.00966940     0.01739106
 SUM OF ATOMIC FORCES          -0.75049703     0.10690291    -0.06601588     0.76094161

 -------------------------------------------------------------------------------
 -                                                                             -
 -                                DBCSR STATISTICS                             -
 -                                                                             -
 -------------------------------------------------------------------------------
 COUNTER                                    TOTAL       BLAS       SMM       ACC
 flops     5 x     5 x   256           6403353600       0.0%    100.0%      0.0%
 flops    13 x     5 x   256           7553029120       0.0%    100.0%      0.0%
 flops     5 x    13 x   256           7743357440       0.0%    100.0%      0.0%
 flops    13 x    13 x   256          10574240768       0.0%    100.0%      0.0%
 flops inhomo. stacks                           0       0.0%      0.0%      0.0%
 flops total                        32.273981E+09       0.0%    100.0%      0.0%
 flops max/rank                     32.273981E+09       0.0%    100.0%      0.0%
 matmuls inhomo. stacks                         0       0.0%      0.0%      0.0%
 matmuls total                            1082095       0.0%    100.0%      0.0%
 number of processed stacks                 42140       0.0%    100.0%      0.0%
 average stack size                                     0.0      25.7       0.0
 marketing flops                   333.927416E+09
 -------------------------------------------------------------------------------
 # multiplications                            301
 max memory usage/rank               3.579716E+09
 # max total images/rank                        1
 # max 3D layers                                1
 # MPI messages exchanged                       0
 MPI messages size (bytes):
  total size                         0.000000E+00
  min size                           0.000000E+00
  max size                           0.000000E+00
  average size                       0.000000E+00
 MPI breakdown and total messages size (bytes):
             size <=      128                   0                        0
       128 < size <=     8192                   0                        0
      8192 < size <=    32768                   0                        0
     32768 < size <=   131072                   0                        0
    131072 < size <=  4194304                   0                        0
   4194304 < size <= 16777216                   0                        0
  16777216 < size                               0                        0
 -------------------------------------------------------------------------------

 MEMORY| Estimated peak process memory [MiB]                                3412

 -------------------------------------------------------------------------------
 -                                                                             -
 -                           R E F E R E N C E S                               -
 -                                                                             -
 -------------------------------------------------------------------------------
 
 CP2K version 7.1, the CP2K developers group (2019).
 CP2K is freely available from https://www.cp2k.org/ .

 Schuett, Ole; Messmer, Peter; Hutter, Juerg; VandeVondele, Joost. 
 Electronic Structure Calculations on Graphics Processing Units, John
 Wiley & Sons, Ltd, 173-190 (2016). 
 GPU-Accelerated Sparse Matrix-Matrix Multiplication for
 Linear Scaling Density Functional Theory.
 https://dx.doi.org/10.1002/9781118670712.ch8

 Borstnik, U; VandeVondele, J; Weber, V; Hutter, J. 
 PARALLEL COMPUTING, 40 (5-6), 47-58 (2014). 
 Sparse matrix multiplication: The distributed block-compressed sparse
 row library.
 https://dx.doi.org/10.1016/j.parco.2014.03.012

 Hutter, J; Iannuzzi, M; Schiffmann, F; VandeVondele, J. 
 WIREs Comput Mol Sci., 4 (1), 15-25 (2014). 
 CP2K: atomistic simulations of condensed matter systems.
 https://dx.doi.org/10.1002/wcms.1159

 Krack, M. 
 THEORETICAL CHEMISTRY ACCOUNTS, 114 (1-3), 145-152 (2005). 
 Pseudopotentials for H to Kr optimized for gradient-corrected
 exchange-correlation functionals.
 https://dx.doi.org/10.1007/s00214-005-0655-y

 VandeVondele, J; Krack, M; Mohamed, F; Parrinello, M; Chassaing, T;
 Hutter, J. COMPUTER PHYSICS COMMUNICATIONS, 167 (2), 103-128 (2005). 
 QUICKSTEP: Fast and accurate density functional calculations using a
 mixed Gaussian and plane waves approach.
 https://dx.doi.org/10.1016/j.cpc.2004.12.014

 Frigo, M; Johnson, SG. 
 PROCEEDINGS OF THE IEEE, 93 (2), 216-231 (2005). 
 The design and implementation of FFTW3.
 https://dx.doi.org/10.1109/JPROC.2004.840301

 Hartwigsen, C; Goedecker, S; Hutter, J. 
 PHYSICAL REVIEW B, 58 (7), 3641-3662 (1998). 
 Relativistic separable dual-space Gaussian pseudopotentials from H to Rn.
 https://dx.doi.org/10.1103/PhysRevB.58.3641

 Lippert, G; Hutter, J; Parrinello, M. 
 MOLECULAR PHYSICS, 92 (3), 477-487 (1997). 
 A hybrid Gaussian and plane wave density functional scheme.
 https://dx.doi.org/10.1080/002689797170220

 Goedecker, S; Teter, M; Hutter, J. 
 PHYSICAL REVIEW B, 54 (3), 1703-1710 (1996). 
 Separable dual-space Gaussian pseudopotentials.
 https://dx.doi.org/10.1103/PhysRevB.54.1703


 -------------------------------------------------------------------------------
 -                                                                             -
 -                                T I M I N G                                  -
 -                                                                             -
 -------------------------------------------------------------------------------
 SUBROUTINE                       CALLS  ASD         SELF TIME        TOTAL TIME
                                MAXIMUM       AVERAGE  MAXIMUM  AVERAGE  MAXIMUM
 CP2K                                 1  1.0    0.133    0.133 2580.952 2580.952
 qs_forces                            1  2.0    0.000    0.000 2579.426 2579.426
 qs_energies                          1  3.0    0.000    0.000 2578.797 2578.797
 scf_env_do_scf                       1  4.0    0.000    0.000 2576.828 2576.828
 scf_env_do_scf_inner_loop          300  5.0    0.055    0.055 2576.827 2576.827
 qs_scf_new_mos                     300  6.0    0.008    0.008 1999.639 1999.639
 eigensolver                        300  7.0    0.043    0.043 1968.966 1968.966
 cp_fm_syevd                        300  8.0 1270.540 1270.540 1272.283 1272.283
 cp_fm_cholesky_restore             900  8.0  695.586  695.586  695.586  695.586
 gspace_mixing                      299  6.0    4.597    4.597  318.034  318.034
 broyden_mixing                     299  7.0  288.130  288.130  288.133  288.133
 rebuild_ks_matrix                  301  7.0    0.001    0.001  134.091  134.091
 qs_ks_build_kohn_sham_matrix       301  8.0    0.066    0.066  134.090  134.090
 qs_ks_update_qs_env                300  6.0    0.003    0.003  134.064  134.064
 qs_rho_update_rho                  301  6.0    0.003    0.003  123.726  123.726
 calculate_rho_elec                 301  7.0   59.799   59.799  123.724  123.724
 pw_transfer                       3912  9.9    0.280    0.280  123.018  123.018
 fft_wrap_pw1pw2                   3310 10.9    0.035    0.035  119.212  119.212
 fft_wrap_pw1pw2_70                1504 11.2   14.286   14.286  110.681  110.681
 density_rs2pw                      301  8.0    0.026    0.026   61.399   61.399
 fft3d_s                           3311 12.9   54.508   54.508   54.529   54.529
 -------------------------------------------------------------------------------

 The number of warnings for this run is : 1
 
 -------------------------------------------------------------------------------
  **** **** ******  **  PROGRAM ENDED AT                 2021-01-13 09:02:19.475
 ***** ** ***  *** **   PROGRAM RAN ON                                   gnode23
 **    ****   ******    PROGRAM RAN BY                               mayank.modi
 ***** **    ** ** **   PROGRAM PROCESS ID                                 12307
  **** **  *******  **  PROGRAM STOPPED IN /home/mayank.modi/ab-initio-thermodyn
                                           amics-of-water/mayank/cp2k_energy_cal
                                           culations
