 DBCSR| CPU Multiplication driver                                           XSMM
 DBCSR| Multrec recursion limit                                              512
 DBCSR| Multiplication stack size                                           1000
 DBCSR| Maximum elements for images                                    UNLIMITED
 DBCSR| Multiplicative factor virtual images                                   1
 DBCSR| Use multiplication densification                                       T
 DBCSR| Multiplication size stacks                                             3


  **** **** ******  **  PROGRAM STARTED AT               2021-01-10 08:11:42.533
 ***** ** ***  *** **   PROGRAM STARTED ON                               gnode23
 **    ****   ******    PROGRAM STARTED BY                           mayank.modi
 ***** **    ** ** **   PROGRAM PROCESS ID                                 25752
  **** **  *******  **  PROGRAM STARTED IN /home/mayank.modi/ab-initio-thermodyn
                                           amics-of-water/mayank/cp2k_energy_cal
                                           culations

 CP2K| version string:                                          CP2K version 7.1
 CP2K| source code revision number:                                  git:e635599
 CP2K| cp2kflags: omp libint fftw3 libxc xsmm spglib                            
 CP2K| is freely available from                            https://www.cp2k.org/
 CP2K| Program compiled at                          Mon Dec 23 19:23:12 CET 2019
 CP2K| Program compiled on                                                pc9404
 CP2K| Program compiled for                                Linux-x86-64-gfortran
 CP2K| Data directory path                                        /opt/cp2k/data
 CP2K| Input file name                    input_training_correct_cell/input24.in

 GLOBAL| Force Environment number                                              1
 GLOBAL| Basis set file name                                           BASIS_SET
 GLOBAL| Potential file name                                      GTH_POTENTIALS
 GLOBAL| MM Potential file name                                     MM_POTENTIAL
 GLOBAL| Coordinate file name                                      __STD_INPUT__
 GLOBAL| Method name                                                        CP2K
 GLOBAL| Project name                                                   H2O_bulk
 GLOBAL| Preferred FFT library                                             FFTW3
 GLOBAL| Preferred diagonalization lib.                                       SL
 GLOBAL| Run type                                                   ENERGY_FORCE
 GLOBAL| All-to-all communication in single precision                          F
 GLOBAL| FFTs using library dependent lengths                                  F
 GLOBAL| Global print level                                                  LOW
 GLOBAL| MPI I/O enabled                                                       T
 GLOBAL| Total number of message passing processes                             1
 GLOBAL| Number of threads for this process                                   36
 GLOBAL| This output is from process                                           0
 GLOBAL| CPU model name                Intel(R) Xeon(R) CPU E5-2640 v4 @ 2.40GHz
 GLOBAL| CPUID                                                              1002
 GLOBAL| Compiled for CPUID                                                    0

 MEMORY| system memory details [Kb]
 MEMORY|                        rank 0           min           max       average
 MEMORY| MemTotal            131897972     131897972     131897972     131897972
 MEMORY| MemFree             125583232     125583232     125583232     125583232
 MEMORY| Buffers               1890396       1890396       1890396       1890396
 MEMORY| Cached                1366544       1366544       1366544       1366544
 MEMORY| Slab                  2590544       2590544       2590544       2590544
 MEMORY| SReclaimable          1562236       1562236       1562236       1562236
 MEMORY| MemLikelyFree       130402408     130402408     130402408     130402408


 GENERATE|  Preliminary Number of Bonds generated:                             0
 GENERATE|  Achieved consistency in connectivity generation.

 *******************************************************************************
 *******************************************************************************
 **                                                                           **
 **     #####                         ##              ##                      **
 **    ##   ##            ##          ##              ##                      **
 **   ##     ##                       ##            ######                    **
 **   ##     ##  ##   ##  ##   #####  ##  ##   ####   ##    #####    #####    **
 **   ##     ##  ##   ##  ##  ##      ## ##   ##      ##   ##   ##  ##   ##   **
 **   ##  ## ##  ##   ##  ##  ##      ####     ###    ##   ######   ######    **
 **    ##  ###   ##   ##  ##  ##      ## ##      ##   ##   ##       ##        **
 **     #######   #####   ##   #####  ##  ##  ####    ##    #####   ##        **
 **           ##                                                    ##        **
 **                                                                           **
 **                                                ... make the atoms dance   **
 **                                                                           **
 **            Copyright (C) by CP2K developers group (2000 - 2019)           **
 **                                                                           **
 *******************************************************************************


 TOTAL NUMBERS AND MAXIMUM NUMBERS

  Total number of            - Atomic kinds:                                   2
                             - Atoms:                                        192
                             - Shell sets:                                   384
                             - Shells:                                       704
                             - Primitive Cartesian functions:                960
                             - Cartesian basis functions:                   1536
                             - Spherical basis functions:                   1472

  Maximum angular momentum of- Orbital basis functions:                        2
                             - Local part of the GTH pseudopotential:          2
                             - Non-local part of the GTH pseudopotential:      0


 SCF PARAMETERS         Density guess:                                    ATOMIC
                        --------------------------------------------------------
                        max_scf:                                             300
                        max_scf_history:                                       0
                        max_diis:                                              4
                        --------------------------------------------------------
                        eps_scf:                                        1.00E-07
                        eps_scf_history:                                0.00E+00
                        eps_diis:                                       1.00E-01
                        eps_eigval:                                     1.00E-05
                        --------------------------------------------------------
                        level_shift [a.u.]:                                 0.00
                        --------------------------------------------------------
                        Mixing method:                            BROYDEN_MIXING
                                                charge density mixing in g-space
                        --------------------------------------------------------
                        No outer SCF

 Number of electrons:                                                        512
 Number of occupied orbitals:                                                256
 Number of molecular orbitals:                                               256

 Number of orbital functions:                                               1472
 Number of independent orbital functions:                                   1472

 Extrapolation method: initial_guess


 SCF WAVEFUNCTION OPTIMIZATION

  Step     Update method      Time    Convergence         Total energy    Change
  ------------------------------------------------------------------------------
     1 NoMix/Diag. 0.40E+00    7.2     0.59418215     -1064.2851436881 -1.06E+03
     2 Broy./Diag. 0.40E+00    7.8     1.20357740      -998.0906701578  6.62E+01
     3 Broy./Diag. 0.40E+00    8.0     0.63016708     -1255.6035692249 -2.58E+02
     4 Broy./Diag. 0.40E+00    8.2     0.14544843     -1095.5092397934  1.60E+02
     5 Broy./Diag. 0.40E+00    8.3     0.28956251     -1100.7989821161 -5.29E+00
     6 Broy./Diag. 0.40E+00    8.9     0.24863148     -1075.1448566643  2.57E+01
     7 Broy./Diag. 0.40E+00    9.0     0.03710072     -1074.6181638755  5.27E-01
     8 Broy./Diag. 0.40E+00    9.2     0.05808053     -1078.2919311796 -3.67E+00
     9 Broy./Diag. 0.40E+00    9.4     0.02607299     -1077.6499547046  6.42E-01
    10 Broy./Diag. 0.40E+00    9.4     0.00610366     -1076.2701604960  1.38E+00
    11 Broy./Diag. 0.40E+00    9.4     0.00564932     -1076.5713510972 -3.01E-01
    12 Broy./Diag. 0.40E+00    9.2     0.00233118     -1076.6508643283 -7.95E-02
    13 Broy./Diag. 0.40E+00    9.4     0.00343795     -1076.4695564104  1.81E-01
    14 Broy./Diag. 0.40E+00    9.8     0.00260410     -1076.4255116189  4.40E-02
    15 Broy./Diag. 0.40E+00    9.4     0.00103039     -1076.4114182157  1.41E-02
    16 Broy./Diag. 0.40E+00    9.4     0.00128777     -1076.4421739844 -3.08E-02
    17 Broy./Diag. 0.40E+00    9.4     0.00095322     -1076.4822151975 -4.00E-02
    18 Broy./Diag. 0.40E+00    9.5     0.00085603     -1076.5203560586 -3.81E-02
    19 Broy./Diag. 0.40E+00    9.6     0.00093843     -1076.5040994460  1.63E-02
    20 Broy./Diag. 0.40E+00    9.4     0.00083329     -1076.4765572992  2.75E-02
    21 Broy./Diag. 0.40E+00    9.2     0.00052107     -1076.5144118142 -3.79E-02
    22 Broy./Diag. 0.40E+00    9.2     0.00030654     -1076.5016882215  1.27E-02
    23 Broy./Diag. 0.40E+00    9.6     0.00027748     -1076.4817913610  1.99E-02
    24 Broy./Diag. 0.40E+00    9.5     0.00025140     -1076.4903019048 -8.51E-03
    25 Broy./Diag. 0.40E+00    9.7     0.00013831     -1076.4951823822 -4.88E-03
    26 Broy./Diag. 0.40E+00    9.6     0.00014597     -1076.4966555280 -1.47E-03
    27 Broy./Diag. 0.40E+00    9.5     0.00009630     -1076.4955337370  1.12E-03
    28 Broy./Diag. 0.40E+00    9.4     0.00005933     -1076.4952050003  3.29E-04
    29 Broy./Diag. 0.40E+00    9.3     0.00007042     -1076.4933416964  1.86E-03
    30 Broy./Diag. 0.40E+00    9.5     0.00007551     -1076.4922619406  1.08E-03
    31 Broy./Diag. 0.40E+00    9.4     0.00005354     -1076.4937637398 -1.50E-03
    32 Broy./Diag. 0.40E+00    9.6     0.00002533     -1076.4940559773 -2.92E-04
    33 Broy./Diag. 0.40E+00    9.8     0.00003248     -1076.4930634678  9.93E-04
    34 Broy./Diag. 0.40E+00    9.5     0.00002922     -1076.4936918662 -6.28E-04
    35 Broy./Diag. 0.40E+00    9.4     0.00001722     -1076.4946305629 -9.39E-04
    36 Broy./Diag. 0.40E+00    9.4     0.00001343     -1076.4939171811  7.13E-04
    37 Broy./Diag. 0.40E+00    9.7     0.00001085     -1076.4934541850  4.63E-04
    38 Broy./Diag. 0.40E+00    9.2     0.00001243     -1076.4937912434 -3.37E-04
    39 Broy./Diag. 0.40E+00    9.0     0.00000916     -1076.4935581561  2.33E-04
    40 Broy./Diag. 0.40E+00    9.8     0.00000593     -1076.4936288671 -7.07E-05
    41 Broy./Diag. 0.40E+00    9.8     0.00000601     -1076.4938035488 -1.75E-04
    42 Broy./Diag. 0.40E+00    9.6     0.00000297     -1076.4937983421  5.21E-06
    43 Broy./Diag. 0.40E+00   10.0     0.00000329     -1076.4936692319  1.29E-04
    44 Broy./Diag. 0.40E+00    9.4     0.00000249     -1076.4937636587 -9.44E-05
    45 Broy./Diag. 0.40E+00    9.5     0.00000196     -1076.4938181322 -5.45E-05
    46 Broy./Diag. 0.40E+00    9.4     0.00000102     -1076.4937195210  9.86E-05
    47 Broy./Diag. 0.40E+00    9.4     0.00000114     -1076.4936948447  2.47E-05
    48 Broy./Diag. 0.40E+00    9.5     0.00000122     -1076.4937303402 -3.55E-05
    49 Broy./Diag. 0.40E+00    9.8     0.00000163     -1076.4937016217  2.87E-05
    50 Broy./Diag. 0.40E+00    9.5     0.00000094     -1076.4937157867 -1.42E-05
    51 Broy./Diag. 0.40E+00    9.5     0.00000103     -1076.4937562400 -4.05E-05
    52 Broy./Diag. 0.40E+00    9.4     0.00000050     -1076.4937444051  1.18E-05
    53 Broy./Diag. 0.40E+00    9.6     0.00000044     -1076.4937292872  1.51E-05
    54 Broy./Diag. 0.40E+00    9.6     0.00000033     -1076.4937464659 -1.72E-05
    55 Broy./Diag. 0.40E+00    9.2     0.00000038     -1076.4937471596 -6.94E-07
    56 Broy./Diag. 0.40E+00    9.2     0.00000025     -1076.4937260373  2.11E-05
    57 Broy./Diag. 0.40E+00    9.4     0.00000016     -1076.4937297201 -3.68E-06
    58 Broy./Diag. 0.40E+00    9.6     0.00000018     -1076.4937374817 -7.76E-06
    59 Broy./Diag. 0.40E+00    9.3     0.00000018     -1076.4937341020  3.38E-06
    60 Broy./Diag. 0.40E+00    9.3     0.00000011     -1076.4937366336 -2.53E-06
    61 Broy./Diag. 0.40E+00    9.5     0.00000008     -1076.4937396634 -3.03E-06

  *** SCF run converged in    61 steps ***


  Electronic density on regular grids:       -511.9999220228        0.0000779772
  Core density on regular grids:              512.0000402926        0.0000402926
  Total charge density on r-space grids:        0.0001182698
  Total charge density g-space grids:           0.0001182698

  Overlap energy of the core charge distribution:               0.00000000000000
  Self energy of the core charge distribution:              -2838.21791979120962
  Core Hamiltonian energy:                                    759.61478904382955
  Hartree energy:                                            1240.93388434142094
  Exchange-correlation energy:                               -238.82449325741325

  Total energy:                                             -1076.49373966337225

 ENERGY| Total FORCE_EVAL ( QS ) energy (a.u.):            -1076.493737700643578


 ATOMIC FORCES in [a.u.]

 # Atom   Kind   Element          X              Y              Z
      1      1      O          -0.11811528     0.00564499     0.03330254
      2      2      H           0.07376998    -0.01688239     0.03891824
      3      2      H           0.03038572     0.00432739    -0.08584571
      4      1      O          -0.03120601     0.03941446     0.10418456
      5      2      H          -0.01809995    -0.03227918    -0.08459571
      6      2      H           0.08759200     0.03344284    -0.02543350
      7      1      O          -0.03197928    -0.07874267     0.09544952
      8      2      H          -0.07472142     0.03110462    -0.05560381
      9      2      H           0.08213827    -0.01289645    -0.05882844
     10      1      O           0.01391226    -0.01311065     0.09223571
     11      2      H           0.03927588    -0.02974558    -0.07208675
     12      2      H          -0.06411871     0.06081176    -0.02360909
     13      1      O           0.00237087    -0.01902776     0.05304410
     14      2      H          -0.08970586     0.03234926    -0.00783550
     15      2      H           0.02468546     0.03171086    -0.06284706
     16      1      O          -0.01357978     0.05007494     0.02656522
     17      2      H           0.06057722    -0.03124476     0.02069129
     18      2      H          -0.08298744    -0.02581772    -0.01410595
     19      1      O           0.04257346     0.04116952     0.01661976
     20      2      H          -0.04012599    -0.04642484    -0.04785958
     21      2      H          -0.01822723    -0.05441083     0.08430263
     22      1      O           0.10042395    -0.07530578     0.04749334
     23      2      H          -0.07350798    -0.00669809    -0.04303836
     24      2      H           0.00581393     0.09237943     0.02147709
     25      1      O          -0.11577795    -0.06522067     0.00378980
     26      2      H           0.05382992     0.01269262    -0.07155845
     27      2      H           0.02965888    -0.01666390     0.08429959
     28      1      O           0.02806634     0.08575958     0.03659902
     29      2      H          -0.05639105    -0.00024609    -0.08022442
     30      2      H           0.02690924    -0.08434993     0.01899072
     31      1      O           0.03879681     0.02565620     0.07316368
     32      2      H          -0.09017267    -0.00478820     0.00383885
     33      2      H           0.03174586    -0.01455826    -0.04888366
     34      1      O          -0.01963570    -0.05583718     0.07971906
     35      2      H          -0.05405298    -0.04032231    -0.05587366
     36      2      H           0.02587255     0.05971685    -0.01249643
     37      1      O           0.08566697     0.03060727     0.05308455
     38      2      H          -0.04819290     0.04658106    -0.07563009
     39      2      H          -0.03167962    -0.04923869    -0.00444442
     40      1      O           0.01963563    -0.03804708     0.00408296
     41      2      H          -0.04306276     0.05962230    -0.01030966
     42      2      H           0.07453294     0.00761715     0.04933642
     43      1      O          -0.10375804     0.02754201    -0.04087093
     44      2      H           0.03842100     0.07280133     0.07336554
     45      2      H           0.06297357    -0.05510168    -0.03567147
     46      1      O           0.01014483     0.02100412    -0.11394177
     47      2      H          -0.01586071     0.06841726     0.04385755
     48      2      H          -0.05678011    -0.06098758     0.01460875
     49      1      O           0.02927357     0.00743496     0.09057542
     50      2      H           0.00746770    -0.06644596    -0.01543484
     51      2      H          -0.06437662     0.04637597    -0.03327858
     52      1      O          -0.11523934     0.02063834    -0.00331553
     53      2      H           0.04773404    -0.01555930    -0.03245245
     54      2      H           0.00160630    -0.01667010     0.09066137
     55      1      O          -0.06388165    -0.09354571     0.05882364
     56      2      H          -0.03912486     0.01664221    -0.05908045
     57      2      H           0.04738757     0.03671740     0.00682518
     58      1      O           0.03408939    -0.10140904     0.01355939
     59      2      H          -0.02831526     0.04709395    -0.04049470
     60      2      H           0.05033538     0.02015781     0.07432507
     61      1      O          -0.04392503     0.00355329     0.00630591
     62      2      H          -0.01903190     0.08327879     0.06281263
     63      2      H           0.09209761    -0.03125552    -0.01409607
     64      1      O           0.08075423    -0.10609188     0.02731970
     65      2      H          -0.00511002     0.05599045    -0.08662015
     66      2      H          -0.03872074     0.03407035     0.04847962
     67      1      O          -0.06264468    -0.08971711    -0.02418214
     68      2      H          -0.02889353     0.07420301    -0.02924231
     69      2      H           0.06039828    -0.01973330     0.02815148
     70      1      O          -0.03294155     0.04472856     0.08260625
     71      2      H          -0.07060451    -0.01398898    -0.06782568
     72      2      H           0.06655341    -0.03862542    -0.03216256
     73      1      O           0.08824962     0.02658175    -0.03311326
     74      2      H          -0.02148822    -0.09620878    -0.01834528
     75      2      H          -0.07891178     0.06768299    -0.00862894
     76      1      O          -0.03534438    -0.06004053     0.04503675
     77      2      H           0.07185554     0.01730842    -0.02102371
     78      2      H          -0.05274595    -0.03220059    -0.06526731
     79      1      O           0.09482103     0.01644685    -0.02496108
     80      2      H          -0.03223915     0.03611833     0.03851533
     81      2      H          -0.00792249    -0.06210020     0.01847308
     82      1      O           0.03100401    -0.07209993     0.04329167
     83      2      H           0.03732490     0.06191789     0.03508001
     84      2      H          -0.08013155     0.00023119    -0.02680796
     85      1      O          -0.03597176    -0.02213259     0.12073830
     86      2      H           0.05390561     0.06166935    -0.02764310
     87      2      H          -0.02676446    -0.07251587    -0.03426150
     88      1      O          -0.08284050     0.04026513     0.06448527
     89      2      H           0.08656054    -0.03167768     0.03996854
     90      2      H           0.01495654     0.04387980    -0.06150239
     91      1      O          -0.03982523     0.01422277     0.11471274
     92      2      H          -0.00884847     0.04168068    -0.07711908
     93      2      H           0.04550189    -0.05370080    -0.03656355
     94      1      O           0.06820370    -0.01996327    -0.06295949
     95      2      H           0.02027691     0.00645448     0.07191339
     96      2      H          -0.08088552     0.05442490    -0.01628735
     97      1      O           0.02964238    -0.01493279     0.07974767
     98      2      H          -0.00290630     0.05875430    -0.05813052
     99      2      H          -0.05696444    -0.01258021    -0.02290590
    100      1      O          -0.09601623    -0.03840516     0.02663135
    101      2      H           0.03042598    -0.05010830    -0.07684896
    102      2      H           0.02549049     0.05621118     0.07105828
    103      1      O           0.03779869    -0.06174001    -0.00013448
    104      2      H          -0.00142947     0.04693317     0.06266371
    105      2      H          -0.05671058    -0.03128320    -0.02390649
    106      1      O           0.10153070    -0.01021554     0.00589397
    107      2      H          -0.00795752    -0.04921480    -0.03223936
    108      2      H          -0.04882348     0.07536552     0.00232911
    109      1      O          -0.04469660    -0.01571151     0.00053984
    110      2      H           0.06683229     0.05116332    -0.01071091
    111      2      H           0.01723198    -0.04363008    -0.06432500
    112      1      O          -0.04224918    -0.09905838    -0.00113068
    113      2      H           0.03294710    -0.00112246    -0.06001284
    114      2      H          -0.01741626     0.08730777     0.01494409
    115      1      O          -0.04587408    -0.11635909    -0.01435852
    116      2      H           0.05933788     0.00102764    -0.05398976
    117      2      H          -0.02700057     0.04764110    -0.00250581
    118      1      O           0.06730568     0.01192272     0.05584221
    119      2      H           0.01890049    -0.01437513    -0.04409211
    120      2      H          -0.07845782     0.02329413    -0.02523091
    121      1      O           0.03688562    -0.08833284     0.04555110
    122      2      H          -0.00639850     0.01373691    -0.07994408
    123      2      H          -0.01178838     0.05355775     0.06427431
    124      1      O           0.00210579     0.07237257    -0.03294765
    125      2      H           0.03974355    -0.05367509     0.05911627
    126      2      H           0.01500379    -0.04202851    -0.04735612
    127      1      O           0.09402968    -0.06591027     0.09823182
    128      2      H           0.02665817     0.08418871    -0.01697426
    129      2      H          -0.05214302    -0.01975156    -0.04053921
    130      1      O          -0.01750483     0.10673097     0.01833505
    131      2      H           0.05018465    -0.02255938    -0.04191596
    132      2      H          -0.05741433    -0.01559815    -0.02204759
    133      1      O          -0.07377176     0.06331640     0.02285425
    134      2      H           0.06205401     0.04085471    -0.04974241
    135      2      H          -0.00654633    -0.08304546    -0.03245186
    136      1      O           0.07141523     0.03802727    -0.01862191
    137      2      H          -0.03469256    -0.04509818     0.06375261
    138      2      H           0.01159589    -0.02215795    -0.05977623
    139      1      O          -0.09853167     0.03780269     0.07133776
    140      2      H           0.03166781    -0.09340020    -0.00211236
    141      2      H           0.02263398     0.03459497    -0.07973122
    142      1      O           0.04106903     0.08001384     0.01501821
    143      2      H          -0.03479187    -0.01844861     0.04346376
    144      2      H          -0.01728947    -0.02274645    -0.05130877
    145      1      O           0.04683700    -0.07448886    -0.00034786
    146      2      H           0.05595988     0.04153825    -0.00300643
    147      2      H          -0.05973795     0.01220110    -0.01125643
    148      1      O           0.08382611     0.01699193     0.03035532
    149      2      H          -0.02152087     0.05380321    -0.00664665
    150      2      H          -0.04907548    -0.03854164    -0.03088584
    151      1      O          -0.06586597     0.10206440    -0.01767076
    152      2      H           0.01624474    -0.04400263     0.06317914
    153      2      H           0.06932767     0.00297835    -0.05944373
    154      1      O          -0.09654794    -0.04972710     0.01045834
    155      2      H          -0.00548520     0.01759315    -0.06569891
    156      2      H           0.06425628     0.05449641     0.04296205
    157      1      O           0.02942154     0.07233937     0.09567685
    158      2      H           0.08415472    -0.04775845    -0.04577204
    159      2      H          -0.07660411    -0.01965398    -0.03018738
    160      1      O          -0.01370983     0.02753854     0.02646575
    161      2      H           0.05545507     0.00618766    -0.04434718
    162      2      H          -0.04509292    -0.07857629    -0.01311969
    163      1      O           0.04178386     0.11450036    -0.00191717
    164      2      H          -0.03846477    -0.01766442     0.03567099
    165      2      H           0.01534098    -0.05429947    -0.05614179
    166      1      O          -0.00852776    -0.06529665     0.02061204
    167      2      H          -0.04739256     0.05570890     0.03006080
    168      2      H           0.06580373     0.03277942    -0.05837157
    169      1      O          -0.06972028     0.01765659     0.09183288
    170      2      H          -0.00183976    -0.03641507    -0.08367800
    171      2      H           0.04203134     0.05385683    -0.01090101
    172      1      O           0.00569604     0.06268295     0.03566378
    173      2      H           0.06978708    -0.04257628    -0.02705269
    174      2      H          -0.04824521    -0.03863178     0.03098260
    175      1      O          -0.07094714     0.00435753     0.02599022
    176      2      H           0.00715204     0.08038381    -0.01542473
    177      2      H           0.03405085    -0.05839794    -0.03338897
    178      1      O           0.12430824     0.04529233     0.03598070
    179      2      H          -0.04974811    -0.08587775     0.03583637
    180      2      H          -0.05917041     0.05997409     0.00234848
    181      1      O          -0.04706694    -0.09914897     0.07290905
    182      2      H          -0.03058794     0.08755811    -0.00629355
    183      2      H           0.03253286     0.01225904    -0.04826354
    184      1      O          -0.01443402    -0.09126679     0.07222541
    185      2      H          -0.05417428     0.00973558    -0.04755961
    186      2      H           0.04869579     0.01573926    -0.02162223
    187      1      O          -0.08603534    -0.02249581    -0.08083199
    188      2      H          -0.02397968     0.06451660     0.02746677
    189      2      H           0.07390756    -0.01215843     0.04113133
    190      1      O          -0.09914282     0.03706033    -0.00921259
    191      2      H          -0.02203609    -0.04999934    -0.03594551
    192      2      H           0.06289616     0.03405252     0.00909967
 SUM OF ATOMIC FORCES          -0.28890550    -0.02121607    -0.00106838     0.28968544

 -------------------------------------------------------------------------------
 -                                                                             -
 -                                DBCSR STATISTICS                             -
 -                                                                             -
 -------------------------------------------------------------------------------
 COUNTER                                    TOTAL       BLAS       SMM       ACC
 flops     5 x     5 x   256           1111040000       0.0%    100.0%      0.0%
 flops     5 x    13 x   256           1330867200       0.0%    100.0%      0.0%
 flops    13 x     5 x   256           1365944320       0.0%    100.0%      0.0%
 flops    13 x    13 x   256           1845469184       0.0%    100.0%      0.0%
 flops inhomo. stacks                           0       0.0%      0.0%      0.0%
 flops total                         5.653321E+09       0.0%    100.0%      0.0%
 flops max/rank                      5.653321E+09       0.0%    100.0%      0.0%
 matmuls inhomo. stacks                         0       0.0%      0.0%      0.0%
 matmuls total                             189162       0.0%    100.0%      0.0%
 number of processed stacks                  8680       0.0%    100.0%      0.0%
 average stack size                                     0.0      21.8       0.0
 marketing flops                    68.782391E+09
 -------------------------------------------------------------------------------
 # multiplications                             62
 max memory usage/rank               4.994093E+09
 # max total images/rank                        1
 # max 3D layers                                1
 # MPI messages exchanged                       0
 MPI messages size (bytes):
  total size                         0.000000E+00
  min size                           0.000000E+00
  max size                           0.000000E+00
  average size                       0.000000E+00
 MPI breakdown and total messages size (bytes):
             size <=      128                   0                        0
       128 < size <=     8192                   0                        0
      8192 < size <=    32768                   0                        0
     32768 < size <=   131072                   0                        0
    131072 < size <=  4194304                   0                        0
   4194304 < size <= 16777216                   0                        0
  16777216 < size                               0                        0
 -------------------------------------------------------------------------------

 MEMORY| Estimated peak process memory [MiB]                                4757

 -------------------------------------------------------------------------------
 -                                                                             -
 -                           R E F E R E N C E S                               -
 -                                                                             -
 -------------------------------------------------------------------------------
 
 CP2K version 7.1, the CP2K developers group (2019).
 CP2K is freely available from https://www.cp2k.org/ .

 Schuett, Ole; Messmer, Peter; Hutter, Juerg; VandeVondele, Joost. 
 Electronic Structure Calculations on Graphics Processing Units, John
 Wiley & Sons, Ltd, 173-190 (2016). 
 GPU-Accelerated Sparse Matrix-Matrix Multiplication for
 Linear Scaling Density Functional Theory.
 https://dx.doi.org/10.1002/9781118670712.ch8

 Borstnik, U; VandeVondele, J; Weber, V; Hutter, J. 
 PARALLEL COMPUTING, 40 (5-6), 47-58 (2014). 
 Sparse matrix multiplication: The distributed block-compressed sparse
 row library.
 https://dx.doi.org/10.1016/j.parco.2014.03.012

 Hutter, J; Iannuzzi, M; Schiffmann, F; VandeVondele, J. 
 WIREs Comput Mol Sci., 4 (1), 15-25 (2014). 
 CP2K: atomistic simulations of condensed matter systems.
 https://dx.doi.org/10.1002/wcms.1159

 Krack, M. 
 THEORETICAL CHEMISTRY ACCOUNTS, 114 (1-3), 145-152 (2005). 
 Pseudopotentials for H to Kr optimized for gradient-corrected
 exchange-correlation functionals.
 https://dx.doi.org/10.1007/s00214-005-0655-y

 VandeVondele, J; Krack, M; Mohamed, F; Parrinello, M; Chassaing, T;
 Hutter, J. COMPUTER PHYSICS COMMUNICATIONS, 167 (2), 103-128 (2005). 
 QUICKSTEP: Fast and accurate density functional calculations using a
 mixed Gaussian and plane waves approach.
 https://dx.doi.org/10.1016/j.cpc.2004.12.014

 Frigo, M; Johnson, SG. 
 PROCEEDINGS OF THE IEEE, 93 (2), 216-231 (2005). 
 The design and implementation of FFTW3.
 https://dx.doi.org/10.1109/JPROC.2004.840301

 Hartwigsen, C; Goedecker, S; Hutter, J. 
 PHYSICAL REVIEW B, 58 (7), 3641-3662 (1998). 
 Relativistic separable dual-space Gaussian pseudopotentials from H to Rn.
 https://dx.doi.org/10.1103/PhysRevB.58.3641

 Lippert, G; Hutter, J; Parrinello, M. 
 MOLECULAR PHYSICS, 92 (3), 477-487 (1997). 
 A hybrid Gaussian and plane wave density functional scheme.
 https://dx.doi.org/10.1080/002689797170220

 Goedecker, S; Teter, M; Hutter, J. 
 PHYSICAL REVIEW B, 54 (3), 1703-1710 (1996). 
 Separable dual-space Gaussian pseudopotentials.
 https://dx.doi.org/10.1103/PhysRevB.54.1703


 -------------------------------------------------------------------------------
 -                                                                             -
 -                                T I M I N G                                  -
 -                                                                             -
 -------------------------------------------------------------------------------
 SUBROUTINE                       CALLS  ASD         SELF TIME        TOTAL TIME
                                MAXIMUM       AVERAGE  MAXIMUM  AVERAGE  MAXIMUM
 CP2K                                 1  1.0    0.161    0.161  574.372  574.372
 qs_forces                            1  2.0    0.000    0.000  572.312  572.312
 qs_energies                          1  3.0    0.000    0.000  571.579  571.579
 scf_env_do_scf                       1  4.0    0.000    0.000  569.166  569.166
 scf_env_do_scf_inner_loop           61  5.0    0.013    0.013  569.166  569.166
 qs_scf_new_mos                      61  6.0    0.002    0.002  408.291  408.291
 eigensolver                         61  7.0    0.010    0.010  401.051  401.051
 cp_fm_syevd                         61  8.0  261.726  261.726  262.075  262.075
 cp_fm_cholesky_restore             183  8.0  138.746  138.746  138.746  138.746
 gspace_mixing                       60  6.0    1.347    1.347   87.881   87.881
 broyden_mixing                      60  7.0   79.287   79.287   79.288   79.288
 rebuild_ks_matrix                   62  7.0    0.000    0.000   38.038   38.038
 qs_ks_build_kohn_sham_matrix        62  8.0    0.017    0.017   38.037   38.037
 qs_ks_update_qs_env                 61  6.0    0.001    0.001   37.471   37.471
 qs_rho_update_rho                   62  6.0    0.001    0.001   35.690   35.690
 calculate_rho_elec                  62  7.0   17.450   17.450   35.689   35.689
 pw_transfer                        805  9.9    0.072    0.072   35.395   35.395
 fft_wrap_pw1pw2                    681 10.9    0.008    0.008   34.436   34.436
 fft_wrap_pw1pw2_70                 309 11.2    3.821    3.821   31.805   31.805
 density_rs2pw                       62  8.0    0.005    0.005   17.742   17.742
 fft3d_s                            682 12.9   15.523   15.523   15.533   15.533
 pw_poisson_solve                    62  9.0   11.135   11.135   12.082   12.082
 pw_scatter_s                       370 13.2   12.007   12.007   12.007   12.007
 -------------------------------------------------------------------------------

 The number of warnings for this run is : 0
 
 -------------------------------------------------------------------------------
  **** **** ******  **  PROGRAM ENDED AT                 2021-01-10 08:21:17.031
 ***** ** ***  *** **   PROGRAM RAN ON                                   gnode23
 **    ****   ******    PROGRAM RAN BY                               mayank.modi
 ***** **    ** ** **   PROGRAM PROCESS ID                                 25752
  **** **  *******  **  PROGRAM STOPPED IN /home/mayank.modi/ab-initio-thermodyn
                                           amics-of-water/mayank/cp2k_energy_cal
                                           culations
