 DBCSR| CPU Multiplication driver                                           XSMM
 DBCSR| Multrec recursion limit                                              512
 DBCSR| Multiplication stack size                                           1000
 DBCSR| Maximum elements for images                                    UNLIMITED
 DBCSR| Multiplicative factor virtual images                                   1
 DBCSR| Use multiplication densification                                       T
 DBCSR| Multiplication size stacks                                             3


  **** **** ******  **  PROGRAM STARTED AT               2021-02-27 07:39:22.565
 ***** ** ***  *** **   PROGRAM STARTED ON                               gnode75
 **    ****   ******    PROGRAM STARTED BY                           mayank.modi
 ***** **    ** ** **   PROGRAM PROCESS ID                                 13062
  **** **  *******  **  PROGRAM STARTED IN /home/mayank.modi/ab-initio-thermodyn
                                           amics-of-water/mayank/cp2k_energy_cal
                                           culations

 CP2K| version string:                                          CP2K version 7.1
 CP2K| source code revision number:                                  git:e635599
 CP2K| cp2kflags: omp libint fftw3 libxc xsmm spglib                            
 CP2K| is freely available from                            https://www.cp2k.org/
 CP2K| Program compiled at                          Mon Dec 23 19:23:12 CET 2019
 CP2K| Program compiled on                                                pc9404
 CP2K| Program compiled for                                Linux-x86-64-gfortran
 CP2K| Data directory path                                        /opt/cp2k/data
 CP2K| Input file name                   input_training_correct_cell/input445.in

 GLOBAL| Force Environment number                                              1
 GLOBAL| Basis set file name                                           BASIS_SET
 GLOBAL| Potential file name                                      GTH_POTENTIALS
 GLOBAL| MM Potential file name                                     MM_POTENTIAL
 GLOBAL| Coordinate file name                                      __STD_INPUT__
 GLOBAL| Method name                                                        CP2K
 GLOBAL| Project name                                                   H2O_bulk
 GLOBAL| Preferred FFT library                                             FFTW3
 GLOBAL| Preferred diagonalization lib.                                       SL
 GLOBAL| Run type                                                   ENERGY_FORCE
 GLOBAL| All-to-all communication in single precision                          F
 GLOBAL| FFTs using library dependent lengths                                  F
 GLOBAL| Global print level                                                  LOW
 GLOBAL| MPI I/O enabled                                                       T
 GLOBAL| Total number of message passing processes                             1
 GLOBAL| Number of threads for this process                                   36
 GLOBAL| This output is from process                                           0
 GLOBAL| CPU model name                Intel(R) Xeon(R) CPU E5-2640 v4 @ 2.40GHz
 GLOBAL| CPUID                                                              1002
 GLOBAL| Compiled for CPUID                                                    0

 MEMORY| system memory details [Kb]
 MEMORY|                        rank 0           min           max       average
 MEMORY| MemTotal            131893432     131893432     131893432     131893432
 MEMORY| MemFree             123193272     123193272     123193272     123193272
 MEMORY| Buffers               1045200       1045200       1045200       1045200
 MEMORY| Cached                6257308       6257308       6257308       6257308
 MEMORY| Slab                   960804        960804        960804        960804
 MEMORY| SReclaimable           704680        704680        704680        704680
 MEMORY| MemLikelyFree       131200460     131200460     131200460     131200460


 GENERATE| WARNING:: No connections detected for Hydrogen - Atom Nr:        62 !
 GENERATE|  Preliminary Number of Bonds generated:                             0
 GENERATE|  Achieved consistency in connectivity generation.

 *******************************************************************************
 *******************************************************************************
 **                                                                           **
 **     #####                         ##              ##                      **
 **    ##   ##            ##          ##              ##                      **
 **   ##     ##                       ##            ######                    **
 **   ##     ##  ##   ##  ##   #####  ##  ##   ####   ##    #####    #####    **
 **   ##     ##  ##   ##  ##  ##      ## ##   ##      ##   ##   ##  ##   ##   **
 **   ##  ## ##  ##   ##  ##  ##      ####     ###    ##   ######   ######    **
 **    ##  ###   ##   ##  ##  ##      ## ##      ##   ##   ##       ##        **
 **     #######   #####   ##   #####  ##  ##  ####    ##    #####   ##        **
 **           ##                                                    ##        **
 **                                                                           **
 **                                                ... make the atoms dance   **
 **                                                                           **
 **            Copyright (C) by CP2K developers group (2000 - 2019)           **
 **                                                                           **
 *******************************************************************************


 TOTAL NUMBERS AND MAXIMUM NUMBERS

  Total number of            - Atomic kinds:                                   2
                             - Atoms:                                        192
                             - Shell sets:                                   384
                             - Shells:                                       704
                             - Primitive Cartesian functions:                960
                             - Cartesian basis functions:                   1536
                             - Spherical basis functions:                   1472

  Maximum angular momentum of- Orbital basis functions:                        2
                             - Local part of the GTH pseudopotential:          2
                             - Non-local part of the GTH pseudopotential:      0


 SCF PARAMETERS         Density guess:                                    ATOMIC
                        --------------------------------------------------------
                        max_scf:                                             300
                        max_scf_history:                                       0
                        max_diis:                                              4
                        --------------------------------------------------------
                        eps_scf:                                        1.00E-07
                        eps_scf_history:                                0.00E+00
                        eps_diis:                                       1.00E-01
                        eps_eigval:                                     1.00E-05
                        --------------------------------------------------------
                        level_shift [a.u.]:                                 0.00
                        --------------------------------------------------------
                        Mixing method:                            BROYDEN_MIXING
                                                charge density mixing in g-space
                        --------------------------------------------------------
                        No outer SCF

 Number of electrons:                                                        512
 Number of occupied orbitals:                                                256
 Number of molecular orbitals:                                               256

 Number of orbital functions:                                               1472
 Number of independent orbital functions:                                   1472

 Extrapolation method: initial_guess


 SCF WAVEFUNCTION OPTIMIZATION

  Step     Update method      Time    Convergence         Total energy    Change
  ------------------------------------------------------------------------------
     1 NoMix/Diag. 0.40E+00    7.1     0.68384941     -1063.8899443517 -1.06E+03
     2 Broy./Diag. 0.40E+00    7.6     1.88298063      -993.6014927716  7.03E+01
     3 Broy./Diag. 0.40E+00    7.7     1.90903377     -1273.6333795860 -2.80E+02
     4 Broy./Diag. 0.40E+00    7.7     1.71472053     -1128.8121415114  1.45E+02
     5 Broy./Diag. 0.40E+00    7.8     1.61411901     -1091.8913101864  3.69E+01
     6 Broy./Diag. 0.40E+00    7.8     1.81605622     -1098.1565848628 -6.27E+00
     7 Broy./Diag. 0.40E+00    7.9     1.78427184     -1098.8118005402 -6.55E-01
     8 Broy./Diag. 0.40E+00    8.0     1.62100008     -1092.8975845866  5.91E+00
     9 Broy./Diag. 0.40E+00    8.1     1.62100724     -1084.3046352186  8.59E+00
    10 Broy./Diag. 0.40E+00    8.1     1.76123629     -1082.3525675651  1.95E+00
    11 Broy./Diag. 0.40E+00    8.4     1.66183347     -1083.0413101781 -6.89E-01
    12 Broy./Diag. 0.40E+00    8.7     1.77723179     -1079.7065430491  3.33E+00
    13 Broy./Diag. 0.40E+00    8.7     1.53935198     -1062.0263968234  1.77E+01
    14 Broy./Diag. 0.40E+00    8.7     1.59517706     -1084.2967842744 -2.23E+01
    15 Broy./Diag. 0.40E+00    8.9     1.71526847     -1084.1631807177  1.34E-01
    16 Broy./Diag. 0.40E+00    8.8     1.81211858     -1081.5594390236  2.60E+00
    17 Broy./Diag. 0.40E+00    8.8     1.55805697     -1074.1770619554  7.38E+00
    18 Broy./Diag. 0.40E+00    8.7     1.62747009     -1080.1416373442 -5.96E+00
    19 Broy./Diag. 0.40E+00    8.7     1.08088919     -1072.0086710516  8.13E+00
    20 Broy./Diag. 0.40E+00    8.7     1.60803037     -1070.9126235898  1.10E+00
    21 Broy./Diag. 0.40E+00    8.6     1.62390382     -1074.4455827771 -3.53E+00
    22 Broy./Diag. 0.40E+00    8.6     1.67104182     -1077.1493632554 -2.70E+00
    23 Broy./Diag. 0.40E+00    8.8     1.65455757     -1081.4711957288 -4.32E+00
    24 Broy./Diag. 0.40E+00    8.8     1.61944169     -1079.9271491536  1.54E+00
    25 Broy./Diag. 0.40E+00    9.1     1.69461403     -1073.3265391796  6.60E+00
    26 Broy./Diag. 0.40E+00    8.7     1.80230963     -1078.3854588157 -5.06E+00
    27 Broy./Diag. 0.40E+00    8.6     1.57584277     -1074.7523578672  3.63E+00
    28 Broy./Diag. 0.40E+00    8.6     1.66038763     -1078.3593477341 -3.61E+00
    29 Broy./Diag. 0.40E+00    8.7     1.75997296     -1073.5297279309  4.83E+00
    30 Broy./Diag. 0.40E+00    8.6     1.58066678     -1076.7294420451 -3.20E+00
    31 Broy./Diag. 0.40E+00    8.7     1.68798738     -1078.3879435515 -1.66E+00
    32 Broy./Diag. 0.40E+00    8.6     1.63082022     -1073.4144712117  4.97E+00
    33 Broy./Diag. 0.40E+00    8.4     1.69901452     -1074.3274870536 -9.13E-01
    34 Broy./Diag. 0.40E+00    8.5     1.62779812     -1080.2150926664 -5.89E+00
    35 Broy./Diag. 0.40E+00    8.7     1.72494960     -1076.0235735642  4.19E+00
    36 Broy./Diag. 0.40E+00    8.5     1.77672421     -1076.4398018999 -4.16E-01
    37 Broy./Diag. 0.40E+00    8.4     1.64360621     -1074.8076191389  1.63E+00
    38 Broy./Diag. 0.40E+00    8.4     1.68014474     -1075.2697332672 -4.62E-01
    39 Broy./Diag. 0.40E+00    8.8     1.71996432     -1074.6527447459  6.17E-01
    40 Broy./Diag. 0.40E+00    8.9     1.61987281     -1077.2113792250 -2.56E+00
    41 Broy./Diag. 0.40E+00    8.7     1.06592040     -1072.2227622072  4.99E+00
    42 Broy./Diag. 0.40E+00    8.5     1.52450648     -1074.7198907797 -2.50E+00
    43 Broy./Diag. 0.40E+00    8.4     1.61675110     -1077.3345562659 -2.61E+00
    44 Broy./Diag. 0.40E+00    8.7     1.62735068     -1079.0124425024 -1.68E+00
    45 Broy./Diag. 0.40E+00    8.7     1.71824765     -1074.3311396221  4.68E+00
    46 Broy./Diag. 0.40E+00    8.6     1.76263516     -1078.5546113611 -4.22E+00
    47 Broy./Diag. 0.40E+00    8.4     1.37067694     -1072.2319172169  6.32E+00
    48 Broy./Diag. 0.40E+00    8.8     1.56035237     -1073.6790218285 -1.45E+00
    49 Broy./Diag. 0.40E+00    8.8     1.59548387     -1076.1808103358 -2.50E+00
    50 Broy./Diag. 0.40E+00    8.8     1.64873576     -1077.2579567665 -1.08E+00
    51 Broy./Diag. 0.40E+00    8.8     1.61691148     -1072.5925147315  4.67E+00
    52 Broy./Diag. 0.40E+00    8.4     1.74324529     -1075.6137153541 -3.02E+00
    53 Broy./Diag. 0.40E+00    8.3     1.69190907     -1075.4867605536  1.27E-01
    54 Broy./Diag. 0.40E+00    8.7     1.72458278     -1082.7329263589 -7.25E+00
    55 Broy./Diag. 0.40E+00    8.8     1.49174167     -1075.2304748746  7.50E+00
    56 Broy./Diag. 0.40E+00    8.7     1.55932289     -1076.4316628569 -1.20E+00
    57 Broy./Diag. 0.40E+00    8.6     1.49319184     -1070.5096746383  5.92E+00
    58 Broy./Diag. 0.40E+00    8.7     1.58677296     -1074.2320959555 -3.72E+00
    59 Broy./Diag. 0.40E+00    8.8     1.63056445     -1077.8441531647 -3.61E+00
    60 Broy./Diag. 0.40E+00    8.6     1.51971670     -1074.6042852741  3.24E+00
    61 Broy./Diag. 0.40E+00    8.4     1.59957119     -1076.7240333421 -2.12E+00
    62 Broy./Diag. 0.40E+00    8.2     1.64496304     -1074.0415543521  2.68E+00
    63 Broy./Diag. 0.40E+00    8.7     1.77091847     -1077.0332681207 -2.99E+00
    64 Broy./Diag. 0.40E+00    8.5     1.77178097     -1081.0163515670 -3.98E+00
    65 Broy./Diag. 0.40E+00    8.3     1.51007443     -1073.7300844322  7.29E+00
    66 Broy./Diag. 0.40E+00    9.1     1.67151513     -1075.3996509048 -1.67E+00
    67 Broy./Diag. 0.40E+00    8.8     1.39311471     -1073.4958649884  1.90E+00
    68 Broy./Diag. 0.40E+00    8.9     1.68727251     -1075.3763173979 -1.88E+00
    69 Broy./Diag. 0.40E+00    8.6     1.57319140     -1072.7388990225  2.64E+00
    70 Broy./Diag. 0.40E+00    8.8     1.65494779     -1077.0506650815 -4.31E+00
    71 Broy./Diag. 0.40E+00    8.7     1.66665682     -1077.0337501977  1.69E-02
    72 Broy./Diag. 0.40E+00    8.7     1.64204067     -1076.6422182776  3.92E-01
    73 Broy./Diag. 0.40E+00    8.7     1.72990094     -1074.0897302548  2.55E+00
    74 Broy./Diag. 0.40E+00    8.7     1.76413178     -1081.6380230843 -7.55E+00
    75 Broy./Diag. 0.40E+00    8.8     1.62314653     -1075.4643521947  6.17E+00
    76 Broy./Diag. 0.40E+00    8.6     1.81345556     -1073.3049392943  2.16E+00
    77 Broy./Diag. 0.40E+00    8.3     1.64223188     -1075.2070548770 -1.90E+00
    78 Broy./Diag. 0.40E+00    8.6     1.67556715     -1072.7843714736  2.42E+00
    79 Broy./Diag. 0.40E+00    8.8     1.56781218     -1077.9835876197 -5.20E+00
    80 Broy./Diag. 0.40E+00    8.8     1.57536135     -1075.4433378957  2.54E+00
    81 Broy./Diag. 0.40E+00    8.7     1.70089034     -1072.5435849041  2.90E+00
    82 Broy./Diag. 0.40E+00    8.6     1.62385526     -1077.3448421141 -4.80E+00
    83 Broy./Diag. 0.40E+00    8.6     1.72257756     -1074.7752821764  2.57E+00
    84 Broy./Diag. 0.40E+00    8.4     1.79317455     -1081.7827920086 -7.01E+00
    85 Broy./Diag. 0.40E+00    8.4     1.66576829     -1074.5593248902  7.22E+00
    86 Broy./Diag. 0.40E+00    8.7     1.73940958     -1073.0597913469  1.50E+00
    87 Broy./Diag. 0.40E+00    8.7     1.67263643     -1076.0378121481 -2.98E+00
    88 Broy./Diag. 0.40E+00    8.8     1.59868862     -1074.7177415040  1.32E+00
    89 Broy./Diag. 0.40E+00    8.5     1.62047890     -1076.7950974316 -2.08E+00
    90 Broy./Diag. 0.40E+00    8.4     1.64358924     -1079.2144553785 -2.42E+00
    91 Broy./Diag. 0.40E+00    8.3     1.40729494     -1074.0664679112  5.15E+00
    92 Broy./Diag. 0.40E+00    8.3     1.56061962     -1072.0304395326  2.04E+00
    93 Broy./Diag. 0.40E+00    8.8     1.70426596     -1078.1564579535 -6.13E+00
    94 Broy./Diag. 0.40E+00    8.8     1.79716365     -1078.5260882381 -3.70E-01
    95 Broy./Diag. 0.40E+00    8.8     1.43674833     -1073.9482365463  4.58E+00
    96 Broy./Diag. 0.40E+00    8.8     1.47343237     -1074.8675554573 -9.19E-01
    97 Broy./Diag. 0.40E+00    8.8     1.63155467     -1074.1732513410  6.94E-01
    98 Broy./Diag. 0.40E+00    8.7     1.66220910     -1078.3871194115 -4.21E+00
    99 Broy./Diag. 0.40E+00    8.6     1.73372627     -1075.2621886603  3.12E+00
   100 Broy./Diag. 0.40E+00    8.8     1.34819193     -1071.8894123946  3.37E+00
   101 Broy./Diag. 0.40E+00    8.9     1.53541758     -1074.7290101728 -2.84E+00
   102 Broy./Diag. 0.40E+00    8.5     1.62753458     -1075.0400525235 -3.11E-01
   103 Broy./Diag. 0.40E+00    8.7     1.68413673     -1079.2910650814 -4.25E+00
   104 Broy./Diag. 0.40E+00    8.8     1.79393889     -1079.0654539459  2.26E-01
   105 Broy./Diag. 0.40E+00    8.7     1.57738994     -1073.4816934050  5.58E+00
   106 Broy./Diag. 0.40E+00    8.7     1.72191015     -1073.9756261412 -4.94E-01
   107 Broy./Diag. 0.40E+00    8.6     1.70658880     -1074.3942051385 -4.19E-01
   108 Broy./Diag. 0.40E+00    8.5     1.64163270     -1079.1364183022 -4.74E+00
   109 Broy./Diag. 0.40E+00    8.9     1.79711620     -1073.3337961020  5.80E+00
   110 Broy./Diag. 0.40E+00    8.6     1.35248435     -1072.7398833902  5.94E-01
   111 Broy./Diag. 0.40E+00    8.6     1.58946636     -1075.6983472194 -2.96E+00
   112 Broy./Diag. 0.40E+00    8.7     1.68833718     -1074.6725863245  1.03E+00
   113 Broy./Diag. 0.40E+00    8.6     1.71200897     -1079.3095879070 -4.64E+00
   114 Broy./Diag. 0.40E+00    8.5     1.80799573     -1080.0774980535 -7.68E-01
   115 Broy./Diag. 0.40E+00    8.4     1.41427670     -1073.6038858384  6.47E+00
   116 Broy./Diag. 0.40E+00    8.4     1.51217479     -1073.5022683493  1.02E-01
   117 Broy./Diag. 0.40E+00    8.7     1.60355288     -1079.0381495280 -5.54E+00
   118 Broy./Diag. 0.40E+00    8.5     1.65300277     -1075.3389593149  3.70E+00
   119 Broy./Diag. 0.40E+00    8.3     1.73313097     -1073.0254851704  2.31E+00
   120 Broy./Diag. 0.40E+00    8.8     1.61192101     -1077.5387668269 -4.51E+00
   121 Broy./Diag. 0.40E+00    8.7     1.57322005     -1073.6122788698  3.93E+00
   122 Broy./Diag. 0.40E+00    8.8     1.64639659     -1077.6778537681 -4.07E+00
   123 Broy./Diag. 0.40E+00    8.5     1.69743248     -1077.4038636388  2.74E-01
   124 Broy./Diag. 0.40E+00    8.6     1.81968935     -1076.7783718371  6.25E-01
   125 Broy./Diag. 0.40E+00    8.5     1.53205699     -1073.7965481215  2.98E+00
   126 Broy./Diag. 0.40E+00    8.6     1.68964174     -1074.4664045334 -6.70E-01
   127 Broy./Diag. 0.40E+00    8.7     1.66548665     -1077.3980805149 -2.93E+00
   128 Broy./Diag. 0.40E+00    8.7     1.66005283     -1073.8385892111  3.56E+00
   129 Broy./Diag. 0.40E+00    8.7     1.70540981     -1075.6502312248 -1.81E+00
   130 Broy./Diag. 0.40E+00    8.7     1.64690845     -1078.1309313861 -2.48E+00
   131 Broy./Diag. 0.40E+00    8.7     1.69000650     -1074.6512910212  3.48E+00
   132 Broy./Diag. 0.40E+00    8.6     1.26210923     -1074.2682383951  3.83E-01
   133 Broy./Diag. 0.40E+00    8.6     1.71477260     -1077.4365852058 -3.17E+00
   134 Broy./Diag. 0.40E+00    8.8     1.80827775     -1078.2141781175 -7.78E-01
   135 Broy./Diag. 0.40E+00    8.7     1.60344827     -1073.4890154339  4.73E+00
   136 Broy./Diag. 0.40E+00    8.8     1.73595316     -1077.4975756960 -4.01E+00
   137 Broy./Diag. 0.40E+00    8.7     1.73292407     -1071.9391152751  5.56E+00
   138 Broy./Diag. 0.40E+00    8.8     1.68064338     -1078.8946851037 -6.96E+00
   139 Broy./Diag. 0.40E+00    8.8     1.61281001     -1076.0158139053  2.88E+00
   140 Broy./Diag. 0.40E+00    8.7     1.65053287     -1079.8750314339 -3.86E+00
   141 Broy./Diag. 0.40E+00    8.7     1.73391736     -1072.8639594695  7.01E+00
   142 Broy./Diag. 0.40E+00    8.7     1.58758126     -1071.7373601418  1.13E+00
   143 Broy./Diag. 0.40E+00    8.7     1.71231050     -1078.6266085313 -6.89E+00
   144 Broy./Diag. 0.40E+00    8.6     1.81143017     -1076.7211182622  1.91E+00
   145 Broy./Diag. 0.40E+00    8.6     1.71628275     -1073.5095363055  3.21E+00
   146 Broy./Diag. 0.40E+00    8.9     1.75757541     -1077.0966825309 -3.59E+00
   147 Broy./Diag. 0.40E+00    8.7     1.58432272     -1073.7564736581  3.34E+00
   148 Broy./Diag. 0.40E+00    8.5     1.65943115     -1074.6150111036 -8.59E-01
   149 Broy./Diag. 0.40E+00    8.5     1.48058923     -1076.9283209512 -2.31E+00
   150 Broy./Diag. 0.40E+00    8.8     1.62156702     -1077.6047650563 -6.76E-01
   151 Broy./Diag. 0.40E+00    8.7     1.51359695     -1071.8240934310  5.78E+00
   152 Broy./Diag. 0.40E+00    8.8     1.48324786     -1076.9104801183 -5.09E+00
   153 Broy./Diag. 0.40E+00    8.6     1.76201041     -1077.0434645393 -1.33E-01
   154 Broy./Diag. 0.40E+00    8.7     1.81193666     -1080.2151838063 -3.17E+00
   155 Broy./Diag. 0.40E+00    8.8     1.68353807     -1073.1298773927  7.09E+00
   156 Broy./Diag. 0.40E+00    8.7     1.67846887     -1073.7116964997 -5.82E-01
   157 Broy./Diag. 0.40E+00    8.5     1.59237185     -1077.4835466859 -3.77E+00
   158 Broy./Diag. 0.40E+00    8.3     1.68427632     -1076.1893787524  1.29E+00
   159 Broy./Diag. 0.40E+00    8.5     1.35070416     -1076.1690692201  2.03E-02
   160 Broy./Diag. 0.40E+00    8.7     1.36715688     -1072.6499229240  3.52E+00
   161 Broy./Diag. 0.40E+00    8.6     1.44353919     -1075.0534231071 -2.40E+00
   162 Broy./Diag. 0.40E+00    8.6     1.59246460     -1076.0171477038 -9.64E-01
   163 Broy./Diag. 0.40E+00    8.7     1.74034027     -1077.8350396108 -1.82E+00
   164 Broy./Diag. 0.40E+00    8.7     1.81342764     -1077.0997921916  7.35E-01
   165 Broy./Diag. 0.40E+00    8.5     1.71308789     -1074.5603087651  2.54E+00
   166 Broy./Diag. 0.40E+00    8.4     1.68951742     -1072.2245327950  2.34E+00
   167 Broy./Diag. 0.40E+00    8.8     1.59748840     -1077.0795420960 -4.86E+00
   168 Broy./Diag. 0.40E+00    8.7     1.70503808     -1074.3307590409  2.75E+00
   169 Broy./Diag. 0.40E+00    8.7     1.69232176     -1076.0380886563 -1.71E+00
   170 Broy./Diag. 0.40E+00    8.6     1.59504296     -1076.4652868637 -4.27E-01
   171 Broy./Diag. 0.40E+00    8.6     1.64737005     -1076.0259743495  4.39E-01
   172 Broy./Diag. 0.40E+00    8.5     1.62804066     -1073.9407580533  2.09E+00
   173 Broy./Diag. 0.40E+00    8.7     1.75629342     -1074.7037181812 -7.63E-01
   174 Broy./Diag. 0.40E+00    8.5     1.79167427     -1077.4011707252 -2.70E+00
   175 Broy./Diag. 0.40E+00    8.6     1.61706561     -1074.8273290112  2.57E+00
   176 Broy./Diag. 0.40E+00    8.5     1.63473048     -1077.7997683347 -2.97E+00
   177 Broy./Diag. 0.40E+00    8.8     1.58669286     -1075.6057731112  2.19E+00
   178 Broy./Diag. 0.40E+00    8.6     1.66675288     -1076.7103909529 -1.10E+00
   179 Broy./Diag. 0.40E+00    8.6     1.54595892     -1072.0618370807  4.65E+00
   180 Broy./Diag. 0.40E+00    8.6     1.52435546     -1080.3910684986 -8.33E+00
   181 Broy./Diag. 0.40E+00    8.6     1.51750497     -1078.8096374659  1.58E+00
   182 Broy./Diag. 0.40E+00    8.7     1.63769369     -1074.7257385629  4.08E+00
   183 Broy./Diag. 0.40E+00    8.6     1.73643075     -1079.5926113431 -4.87E+00
   184 Broy./Diag. 0.40E+00    8.3     1.79300070     -1078.0614150500  1.53E+00
   185 Broy./Diag. 0.40E+00    8.4     1.71510354     -1077.8604651471  2.01E-01
   186 Broy./Diag. 0.40E+00    8.1     1.61075290     -1075.9787437724  1.88E+00
   187 Broy./Diag. 0.40E+00    8.3     1.65415370     -1072.7013452508  3.28E+00
   188 Broy./Diag. 0.40E+00    8.6     1.57662032     -1073.3665904376 -6.65E-01
   189 Broy./Diag. 0.40E+00    8.6     1.66365811     -1078.8783658044 -5.51E+00
   190 Broy./Diag. 0.40E+00    8.6     1.62162899     -1076.2176177936  2.66E+00
   191 Broy./Diag. 0.40E+00    8.5     1.67643646     -1077.7534300050 -1.54E+00
   192 Broy./Diag. 0.40E+00    8.4     1.54431227     -1076.1622886912  1.59E+00
   193 Broy./Diag. 0.40E+00    8.7     1.72966794     -1074.5260863824  1.64E+00
   194 Broy./Diag. 0.40E+00    8.6     1.78007905     -1077.8081363899 -3.28E+00
   195 Broy./Diag. 0.40E+00    8.6     1.50728184     -1073.5053565799  4.30E+00
   196 Broy./Diag. 0.40E+00    8.7     1.58992558     -1080.0123571168 -6.51E+00
   197 Broy./Diag. 0.40E+00    8.9     1.27780432     -1073.4161725535  6.60E+00
   198 Broy./Diag. 0.40E+00    8.8     1.53951883     -1075.2617986180 -1.85E+00
   199 Broy./Diag. 0.40E+00    8.6     1.58301443     -1080.2793899926 -5.02E+00
   200 Broy./Diag. 0.40E+00    8.5     1.55997617     -1074.1766115613  6.10E+00
   201 Broy./Diag. 0.40E+00    8.7     1.66504170     -1074.8706151170 -6.94E-01
   202 Broy./Diag. 0.40E+00    8.7     1.77094124     -1073.5586235250  1.31E+00
   203 Broy./Diag. 0.40E+00    8.8     1.71371888     -1073.8852188374 -3.27E-01
   204 Broy./Diag. 0.40E+00    8.6     1.77126686     -1078.9074507176 -5.02E+00
   205 Broy./Diag. 0.40E+00    8.4     1.63869608     -1074.8565402040  4.05E+00
   206 Broy./Diag. 0.40E+00    8.2     1.60451438     -1077.7792505608 -2.92E+00
   207 Broy./Diag. 0.40E+00    8.4     1.61767382     -1078.5569524838 -7.78E-01
   208 Broy./Diag. 0.40E+00    8.2     1.69264695     -1073.8864107915  4.67E+00
   209 Broy./Diag. 0.40E+00    8.8     1.31482172     -1071.8286028078  2.06E+00
   210 Broy./Diag. 0.40E+00    8.8     1.29862454     -1072.9498855736 -1.12E+00
   211 Broy./Diag. 0.40E+00    8.6     1.13105403     -1073.4671828816 -5.17E-01
   212 Broy./Diag. 0.40E+00    8.6     1.60240193     -1074.8463850131 -1.38E+00
   213 Broy./Diag. 0.40E+00    8.7     1.74004506     -1077.5839076106 -2.74E+00
   214 Broy./Diag. 0.40E+00    8.6     1.77352571     -1078.3162496338 -7.32E-01
   215 Broy./Diag. 0.40E+00    8.6     1.68119895     -1073.6382215535  4.68E+00
   216 Broy./Diag. 0.40E+00    8.7     1.66136748     -1076.9584120123 -3.32E+00
   217 Broy./Diag. 0.40E+00    8.8     1.63147689     -1079.3136413954 -2.36E+00
   218 Broy./Diag. 0.40E+00    8.7     1.69675751     -1075.9768715012  3.34E+00
   219 Broy./Diag. 0.40E+00    8.8     1.58129435     -1073.2493674447  2.73E+00
   220 Broy./Diag. 0.40E+00    8.6     1.64892202     -1074.4937458734 -1.24E+00
   221 Broy./Diag. 0.40E+00    8.6     1.63385827     -1075.7262456692 -1.23E+00
   222 Broy./Diag. 0.40E+00    8.7     1.70609191     -1078.4763304182 -2.75E+00
   223 Broy./Diag. 0.40E+00    8.6     1.78230605     -1074.2342423293  4.24E+00
   224 Broy./Diag. 0.40E+00    8.7     1.53507959     -1073.8241005782  4.10E-01
   225 Broy./Diag. 0.40E+00    8.8     1.68199541     -1074.2154755127 -3.91E-01
   226 Broy./Diag. 0.40E+00    8.6     1.56742806     -1079.7270456781 -5.51E+00
   227 Broy./Diag. 0.40E+00    8.3     1.64059264     -1076.6080127327  3.12E+00
   228 Broy./Diag. 0.40E+00    8.3     1.67305318     -1078.0392848004 -1.43E+00
   229 Broy./Diag. 0.40E+00    8.7     1.59955832     -1074.3930453925  3.65E+00
   230 Broy./Diag. 0.40E+00    8.5     1.67430216     -1074.7173661909 -3.24E-01
   231 Broy./Diag. 0.40E+00    8.3     1.47230412     -1071.9295540592  2.79E+00
   232 Broy./Diag. 0.40E+00    8.5     1.68836928     -1078.9154542740 -6.99E+00
   233 Broy./Diag. 0.40E+00    8.8     1.74780593     -1077.2626459667  1.65E+00
   234 Broy./Diag. 0.40E+00    8.7     1.60966990     -1075.3104239924  1.95E+00
   235 Broy./Diag. 0.40E+00    8.5     1.56944335     -1075.3884655020 -7.80E-02
   236 Broy./Diag. 0.40E+00    8.3     1.63093175     -1077.8263243060 -2.44E+00
   237 Broy./Diag. 0.40E+00    8.6     1.71727072     -1076.5263517690  1.30E+00
   238 Broy./Diag. 0.40E+00    8.7     1.49910775     -1073.2384293178  3.29E+00
   239 Broy./Diag. 0.40E+00    8.6     1.59846251     -1077.2115754161 -3.97E+00
   240 Broy./Diag. 0.40E+00    8.8     1.66404811     -1074.5791160769  2.63E+00
   241 Broy./Diag. 0.40E+00    8.7     1.61820984     -1075.2001799406 -6.21E-01
   242 Broy./Diag. 0.40E+00    8.7     1.76968217     -1078.3990093977 -3.20E+00
   243 Broy./Diag. 0.40E+00    8.6     1.84506139     -1073.6993032658  4.70E+00
   244 Broy./Diag. 0.40E+00    8.6     1.34870890     -1072.1525828250  1.55E+00
   245 Broy./Diag. 0.40E+00    8.8     1.57403444     -1075.0803649646 -2.93E+00
   246 Broy./Diag. 0.40E+00    8.7     1.64560657     -1079.6994474350 -4.62E+00
   247 Broy./Diag. 0.40E+00    8.6     1.64638573     -1074.5726241873  5.13E+00
   248 Broy./Diag. 0.40E+00    8.6     1.36736607     -1076.4975845919 -1.92E+00
   249 Broy./Diag. 0.40E+00    8.3     1.61472188     -1076.7236794654 -2.26E-01
   250 Broy./Diag. 0.40E+00    8.3     1.74454085     -1073.9785880003  2.75E+00
   251 Broy./Diag. 0.40E+00    8.3     1.67737777     -1080.9679107915 -6.99E+00
   252 Broy./Diag. 0.40E+00    8.3     1.73165664     -1074.9576106373  6.01E+00
   253 Broy./Diag. 0.40E+00    8.2     1.80933914     -1073.6592256915  1.30E+00
   254 Broy./Diag. 0.40E+00    8.5     1.56201616     -1072.8025423089  8.57E-01
   255 Broy./Diag. 0.40E+00    8.8     1.62328909     -1078.9816287189 -6.18E+00
   256 Broy./Diag. 0.40E+00    8.7     1.61760529     -1080.1977455874 -1.22E+00
   257 Broy./Diag. 0.40E+00    8.8     1.68927374     -1076.2975345790  3.90E+00
   258 Broy./Diag. 0.40E+00    8.8     1.23677626     -1073.6151944792  2.68E+00
   259 Broy./Diag. 0.40E+00    8.9     1.60502939     -1077.2673184797 -3.65E+00
   260 Broy./Diag. 0.40E+00    8.7     1.71386444     -1072.2424667981  5.02E+00
   261 Broy./Diag. 0.40E+00    8.6     1.59833932     -1078.4611689023 -6.22E+00
   262 Broy./Diag. 0.40E+00    8.5     1.70916424     -1077.4593374603  1.00E+00
   263 Broy./Diag. 0.40E+00    8.6     1.81335924     -1073.1588186465  4.30E+00
   264 Broy./Diag. 0.40E+00    8.8     1.52453242     -1072.7692868388  3.90E-01
   265 Broy./Diag. 0.40E+00    8.7     1.60802085     -1074.2490029195 -1.48E+00
   266 Broy./Diag. 0.40E+00    8.8     1.40470401     -1076.7598879128 -2.51E+00
   267 Broy./Diag. 0.40E+00    8.6     1.24609781     -1074.3427036584  2.42E+00
   268 Broy./Diag. 0.40E+00    8.7     1.19352121     -1075.2053082957 -8.63E-01
   269 Broy./Diag. 0.40E+00    8.7     1.58766118     -1073.5176749763  1.69E+00
   270 Broy./Diag. 0.40E+00    8.8     1.61071679     -1078.0661505842 -4.55E+00
   271 Broy./Diag. 0.40E+00    8.7     1.66503498     -1080.1005549579 -2.03E+00
   272 Broy./Diag. 0.40E+00    8.7     1.72579287     -1075.0553050575  5.05E+00
   273 Broy./Diag. 0.40E+00    8.8     1.82397332     -1073.1944565591  1.86E+00
   274 Broy./Diag. 0.40E+00    8.6     1.74827999     -1077.0219824157 -3.83E+00
   275 Broy./Diag. 0.40E+00    8.4     1.66771531     -1072.7608382906  4.26E+00
   276 Broy./Diag. 0.40E+00    8.2     1.42266258     -1078.0640980659 -5.30E+00
   277 Broy./Diag. 0.40E+00    8.4     1.61122698     -1076.6329454650  1.43E+00
   278 Broy./Diag. 0.40E+00    8.7     1.62520447     -1075.1509394265  1.48E+00
   279 Broy./Diag. 0.40E+00    8.7     1.74363325     -1075.9744702888 -8.24E-01
   280 Broy./Diag. 0.40E+00    8.6     1.55655038     -1075.2104213783  7.64E-01
   281 Broy./Diag. 0.40E+00    8.6     1.64369886     -1078.1946144197 -2.98E+00
   282 Broy./Diag. 0.40E+00    8.7     1.71346031     -1075.6394193458  2.56E+00
   283 Broy./Diag. 0.40E+00    8.6     1.80291226     -1075.8665826474 -2.27E-01
   284 Broy./Diag. 0.40E+00    8.4     1.60481256     -1073.6602656284  2.21E+00
   285 Broy./Diag. 0.40E+00    8.5     1.68646933     -1073.5336103153  1.27E-01
   286 Broy./Diag. 0.40E+00    8.6     1.51766262     -1078.7638514997 -5.23E+00
   287 Broy./Diag. 0.40E+00    8.8     1.64966486     -1075.8998923941  2.86E+00
   288 Broy./Diag. 0.40E+00    8.7     1.65247037     -1077.6046615066 -1.70E+00
   289 Broy./Diag. 0.40E+00    8.5     1.78447550     -1072.5632691586  5.04E+00
   290 Broy./Diag. 0.40E+00    8.7     1.62220476     -1072.6588260860 -9.56E-02
   291 Broy./Diag. 0.40E+00    8.8     1.66919052     -1081.5579793858 -8.90E+00
   292 Broy./Diag. 0.40E+00    8.7     1.72535945     -1072.2029699878  9.36E+00
   293 Broy./Diag. 0.40E+00    8.6     1.78726087     -1075.3893987131 -3.19E+00
   294 Broy./Diag. 0.40E+00    8.6     1.67158003     -1073.7188365973  1.67E+00
   295 Broy./Diag. 0.40E+00    8.8     1.66214681     -1074.1702597648 -4.51E-01
   296 Broy./Diag. 0.40E+00    8.7     1.67784065     -1081.2252030714 -7.05E+00
   297 Broy./Diag. 0.40E+00    8.7     1.70681860     -1074.6095780476  6.62E+00
   298 Broy./Diag. 0.40E+00    8.6     1.60726648     -1079.4570170854 -4.85E+00
   299 Broy./Diag. 0.40E+00    8.8     1.77849064     -1074.5848420522  4.87E+00
   300 Broy./Diag. 0.40E+00    8.7     1.55785807     -1070.6704723164  3.91E+00

  Leaving inner SCF loop after reaching   300 steps.


  Electronic density on regular grids:       -512.0000611563       -0.0000611563
  Core density on regular grids:              512.0005896635        0.0005896635
  Total charge density on r-space grids:        0.0005285072
  Total charge density g-space grids:           0.0005285072

  Overlap energy of the core charge distribution:               0.00000000000000
  Self energy of the core charge distribution:              -2838.21791979120962
  Core Hamiltonian energy:                                    765.14136886715778
  Hartree energy:                                            1240.62645607997069
  Exchange-correlation energy:                               -238.22037747230999

  Total energy:                                             -1070.67047231639117

 *** WARNING in qs_scf.F:542 :: SCF run NOT converged ***


 ENERGY| Total FORCE_EVAL ( QS ) energy (a.u.):            -1067.977991785681070


 ATOMIC FORCES in [a.u.]

 # Atom   Kind   Element          X              Y              Z
      1      1      O           0.11217933     0.14789392     0.13795940
      2      2      H           0.07259544    -0.07744903     0.01349351
      3      2      H          -0.09463111    -0.04444475    -0.01308102
      4      1      O           0.03067346    -0.00721597     0.17010799
      5      2      H           0.04535135    -0.05701806    -0.03607964
      6      2      H           0.01817890     0.04125647    -0.04458298
      7      1      O          -0.04621016    -0.16982891     0.04562357
      8      2      H          -0.01120310     0.05020795     0.00727279
      9      2      H           0.00687556     0.05733388    -0.01243479
     10      1      O           0.11470062     0.02844070     0.03310585
     11      2      H          -0.01584635     0.04483142    -0.00253573
     12      2      H          -0.02612329    -0.05129790     0.01445147
     13      1      O          -0.11193903     0.09158824     0.06716535
     14      2      H          -0.03095472     0.04217999     0.05408489
     15      2      H           0.00049835     0.02022587    -0.04259069
     16      1      O           0.12686203     0.04561733    -0.17222721
     17      2      H           0.03355393     0.01199747    -0.01142135
     18      2      H          -0.10059562     0.04814221     0.00832125
     19      1      O           0.07589217     0.19221962     0.10908760
     20      2      H          -0.08679801     0.03447145     0.01587044
     21      2      H           0.04549468    -0.11594636    -0.02743400
     22      1      O          -0.03144536    -0.01846999     0.07078870
     23      2      H           0.06262543     0.01114257    -0.00583037
     24      2      H          -0.06910159    -0.10080030     0.04223339
     25      1      O           0.13785903    -0.02603322     0.03868604
     26      2      H           0.01226897     0.03436158    -0.02476004
     27      2      H          -0.00673200    -0.04345542    -0.01068784
     28      1      O          -0.03585907     0.00901054    -0.09109393
     29      2      H           0.06795273    -0.00201195    -0.01179912
     30      2      H          -0.02518398    -0.05722680     0.00005647
     31      1      O           0.03208730     0.02766726     0.10551139
     32      2      H          -0.04257018    -0.08316813    -0.01051542
     33      2      H          -0.03596383    -0.01344733     0.02742729
     34      1      O           0.00887677     0.07232326    -0.02113352
     35      2      H           0.00616528     0.04010981    -0.03178797
     36      2      H           0.04719119     0.03570719     0.07643857
     37      1      O          -0.04660011    -0.06503468    -0.00236448
     38      2      H          -0.03266646    -0.02803197     0.04660317
     39      2      H          -0.07135791     0.00807153    -0.03637197
     40      1      O           0.03943898    -0.05936940     0.01275947
     41      2      H          -0.04313482    -0.06077145     0.01224729
     42      2      H          -0.02995691     0.08223788    -0.03285683
     43      1      O           0.14244185     0.11176557     0.03577470
     44      2      H           0.00201595    -0.04754882    -0.04563059
     45      2      H          -0.05100022    -0.01597324     0.06669837
     46      1      O          -0.01197336    -0.11388516     0.01394888
     47      2      H          -0.04450454     0.06137211    -0.01509772
     48      2      H          -0.00584850    -0.01587760     0.01770837
     49      1      O           0.12231644     0.09429689     0.09883373
     50      2      H          -0.06881866     0.00998244    -0.01127026
     51      2      H           0.02841305     0.05736656    -0.07376851
     52      1      O           0.09826077    -0.09019732    -0.04608755
     53      2      H           0.01008830     0.07556259    -0.03484600
     54      2      H          -0.01247250     0.01731320    -0.00031972
     55      1      O           0.08651880    -0.09816985    -0.15831152
     56      2      H           0.01935661     0.03512250     0.04028618
     57      2      H           0.05142215     0.00409831     0.04641644
     58      1      O           0.18117065     0.13230497     0.03396943
     59      2      H          -0.05958594    -0.00078113    -0.08105568
     60      2      H          -0.00744055    -0.01993308    -0.00475667
     61      1      O          -0.13718985     0.10027945     0.31096811
     62      2      H           0.05957608    -0.02635537    -0.01710174
     63      2      H           0.10653435    -0.08213073    -0.21368124
     64      1      O           0.03202728     0.08818836     0.12304854
     65      2      H          -0.14920045    -0.07423163    -0.01419230
     66      2      H          -0.02957582     0.02889827     0.01525940
     67      1      O           0.07579526    -0.04408530    -0.02947990
     68      2      H          -0.06569784    -0.09074434    -0.03942318
     69      2      H           0.02537466     0.05148595    -0.01052524
     70      1      O           0.10721260    -0.04789118    -0.06062374
     71      2      H          -0.00869118    -0.01883023    -0.02459510
     72      2      H           0.04145273     0.01530745    -0.05294972
     73      1      O          -0.07481959     0.15178996    -0.06421576
     74      2      H           0.09347124    -0.00951591     0.05193357
     75      2      H          -0.03532603    -0.07388840    -0.01781216
     76      1      O          -0.12809641     0.13347144    -0.08602645
     77      2      H           0.04756319    -0.08181812    -0.08414474
     78      2      H           0.07410786     0.00275890    -0.00458698
     79      1      O           0.12254156     0.10000255     0.09310447
     80      2      H          -0.01031798     0.01475801    -0.03337965
     81      2      H          -0.00589758     0.01372799     0.04169161
     82      1      O          -0.17766674     0.04551084    -0.15906541
     83      2      H           0.02237758    -0.03544775     0.05975480
     84      2      H           0.06939287    -0.10272191    -0.01463458
     85      1      O           0.12024308     0.08075169    -0.01051227
     86      2      H           0.01745602     0.06996356     0.08466542
     87      2      H          -0.09717357     0.02183499    -0.08213095
     88      1      O           0.03587435     0.14058746    -0.12520081
     89      2      H          -0.10082117    -0.03774844     0.00710581
     90      2      H           0.11255340     0.05872499     0.13477935
     91      1      O           0.06076941     0.14637580     0.02450890
     92      2      H           0.01935542     0.06069046     0.03632438
     93      2      H           0.01905006    -0.05059157     0.03305748
     94      1      O           0.12734626     0.02920484    -0.15344243
     95      2      H           0.02806487    -0.03832636     0.05939885
     96      2      H          -0.08388020    -0.04857126    -0.04646500
     97      1      O          -0.01319485    -0.10779287     0.09179074
     98      2      H          -0.07087008     0.03482523    -0.01633986
     99      2      H          -0.08569546    -0.02793450    -0.01525747
    100      1      O          -0.01178201    -0.16461369    -0.06128784
    101      2      H          -0.04608892    -0.06319167     0.03190500
    102      2      H           0.01372933     0.11499679     0.00396897
    103      1      O           0.10690941    -0.10667896     0.04040634
    104      2      H          -0.03043085     0.00510287    -0.12114725
    105      2      H           0.03139860     0.06927154    -0.04014343
    106      1      O          -0.03637177    -0.02516447     0.15339940
    107      2      H          -0.11503345    -0.02773032    -0.00493465
    108      2      H           0.01515350     0.03889820    -0.05086114
    109      1      O           0.11040496    -0.08206930     0.08640027
    110      2      H          -0.03875433     0.00838859    -0.01801775
    111      2      H          -0.02809983    -0.02808477    -0.03862213
    112      1      O           0.04796292     0.12934143     0.03187231
    113      2      H          -0.03652737    -0.02398451    -0.02771143
    114      2      H          -0.00009606     0.00040787     0.06003119
    115      1      O          -0.05421184     0.09070854     0.09166557
    116      2      H          -0.05823769    -0.02322260     0.01087171
    117      2      H           0.04391228    -0.00315030     0.04407158
    118      1      O           0.12771719     0.18072746    -0.10348531
    119      2      H          -0.01564187    -0.09909292    -0.08602420
    120      2      H          -0.06890570    -0.02553219    -0.02128939
    121      1      O          -0.02633704    -0.02881487    -0.05741961
    122      2      H          -0.00115811    -0.00394683    -0.00387290
    123      2      H           0.03600226     0.03876486    -0.00563551
    124      1      O           0.00197528     0.18327363     0.08928405
    125      2      H          -0.04988721    -0.09140624     0.05093926
    126      2      H          -0.01441408    -0.02598268    -0.04562792
    127      1      O          -0.15839105     0.14763091    -0.11907074
    128      2      H           0.00069427     0.06081433    -0.01620508
    129      2      H          -0.06373063    -0.06773128    -0.00046014
    130      1      O           0.04940844    -0.06834384    -0.04698975
    131      2      H          -0.01100219    -0.02735073     0.00260635
    132      2      H          -0.06264028    -0.05877155     0.08604313
    133      1      O           0.12033919     0.09436523     0.09415645
    134      2      H           0.01985697     0.04955164    -0.02613339
    135      2      H          -0.02866370     0.04243215    -0.00337055
    136      1      O           0.12096369    -0.02897462    -0.13302795
    137      2      H           0.02318571     0.04727267     0.09427991
    138      2      H          -0.04893207    -0.01508114    -0.02646761
    139      1      O           0.03812128     0.10377275    -0.04526248
    140      2      H           0.07312066     0.04654525     0.04858115
    141      2      H          -0.05089952    -0.02778799     0.03223012
    142      1      O          -0.03265947    -0.09359758     0.15463686
    143      2      H           0.08244543    -0.00472747     0.02587983
    144      2      H           0.03384467     0.08929899     0.02161510
    145      1      O           0.06631694    -0.09077828     0.15841861
    146      2      H           0.07774545     0.06373527    -0.07953849
    147      2      H          -0.09049415     0.00621344    -0.00290373
    148      1      O           0.09291614    -0.01076885    -0.08609818
    149      2      H           0.10674189     0.02425308    -0.03789253
    150      2      H          -0.01147612    -0.06515428     0.00533313
    151      1      O          -0.15388194    -0.09464394     0.12976523
    152      2      H          -0.02041908     0.03463685    -0.04972545
    153      2      H           0.13749495     0.05598164    -0.07109928
    154      1      O          -0.16646369    -0.04276183    -0.10917791
    155      2      H          -0.01718020    -0.09000862    -0.00960713
    156      2      H           0.05765748    -0.01805561     0.07362499
    157      1      O          -0.06535336    -0.09412031     0.17193962
    158      2      H          -0.03054785    -0.00794907    -0.01471291
    159      2      H           0.02170605    -0.01793556    -0.01032059
    160      1      O          -0.05587164     0.00776910    -0.07339710
    161      2      H           0.10961021    -0.06789120    -0.00111062
    162      2      H          -0.03581129    -0.05130814     0.03143702
    163      1      O           0.15110284     0.05896288    -0.01027156
    164      2      H          -0.03364610     0.01705576     0.03931850
    165      2      H           0.00616169    -0.05328617    -0.07661157
    166      1      O          -0.03645616    -0.12265269    -0.11984585
    167      2      H           0.09260268     0.04459557     0.05062243
    168      2      H          -0.04337925     0.02783456    -0.04911385
    169      1      O           0.10351999    -0.16268754     0.18429599
    170      2      H          -0.05285236     0.06892669    -0.07038851
    171      2      H           0.05221192     0.08150500     0.02777525
    172      1      O          -0.15871753     0.13135219     0.03705420
    173      2      H          -0.00426153    -0.02909185     0.02283161
    174      2      H           0.07010622     0.01731285     0.05054007
    175      1      O          -0.17432250    -0.14776012    -0.18367874
    176      2      H           0.02040230     0.12065466     0.06352061
    177      2      H           0.09529381    -0.09670031     0.00290848
    178      1      O          -0.05491891     0.02691557    -0.04616369
    179      2      H          -0.05688782    -0.05989052    -0.07054507
    180      2      H           0.01068510     0.01802620     0.00376806
    181      1      O          -0.02082244     0.09213591     0.04124057
    182      2      H          -0.01994109     0.04754645     0.07745788
    183      2      H           0.06331587     0.04778263    -0.08318076
    184      1      O          -0.04352442    -0.11771380     0.08637618
    185      2      H          -0.01251326     0.01059886    -0.02432828
    186      2      H           0.01338382    -0.01179513     0.00961459
    187      1      O           0.03474830    -0.12918084     0.04679137
    188      2      H           0.01551203     0.03395048    -0.07104835
    189      2      H          -0.01166232    -0.05959889     0.07312563
    190      1      O           0.10969726    -0.03222303     0.01854601
    191      2      H           0.03858696    -0.02554327    -0.03861094
    192      2      H           0.02838185     0.05421452     0.04389230
 SUM OF ATOMIC FORCES           0.93957917     0.40234129     0.35440722     1.08180036

 -------------------------------------------------------------------------------
 -                                                                             -
 -                                DBCSR STATISTICS                             -
 -                                                                             -
 -------------------------------------------------------------------------------
 COUNTER                                    TOTAL       BLAS       SMM       ACC
 flops     5 x     5 x   256           6283916800       0.0%    100.0%      0.0%
 flops    13 x     5 x   256           7522977280       0.0%    100.0%      0.0%
 flops     5 x    13 x   256           7613132800       0.0%    100.0%      0.0%
 flops    13 x    13 x   256          10027297280       0.0%    100.0%      0.0%
 flops inhomo. stacks                           0       0.0%      0.0%      0.0%
 flops total                        31.447324E+09       0.0%    100.0%      0.0%
 flops max/rank                     31.447324E+09       0.0%    100.0%      0.0%
 matmuls inhomo. stacks                         0       0.0%      0.0%      0.0%
 matmuls total                            1061627       0.0%    100.0%      0.0%
 number of processed stacks                 42140       0.0%    100.0%      0.0%
 average stack size                                     0.0      25.2       0.0
 marketing flops                   333.927416E+09
 -------------------------------------------------------------------------------
 # multiplications                            301
 max memory usage/rank               3.579953E+09
 # max total images/rank                        1
 # max 3D layers                                1
 # MPI messages exchanged                       0
 MPI messages size (bytes):
  total size                         0.000000E+00
  min size                           0.000000E+00
  max size                           0.000000E+00
  average size                       0.000000E+00
 MPI breakdown and total messages size (bytes):
             size <=      128                   0                        0
       128 < size <=     8192                   0                        0
      8192 < size <=    32768                   0                        0
     32768 < size <=   131072                   0                        0
    131072 < size <=  4194304                   0                        0
   4194304 < size <= 16777216                   0                        0
  16777216 < size                               0                        0
 -------------------------------------------------------------------------------

 MEMORY| Estimated peak process memory [MiB]                                3413

 -------------------------------------------------------------------------------
 -                                                                             -
 -                           R E F E R E N C E S                               -
 -                                                                             -
 -------------------------------------------------------------------------------
 
 CP2K version 7.1, the CP2K developers group (2019).
 CP2K is freely available from https://www.cp2k.org/ .

 Schuett, Ole; Messmer, Peter; Hutter, Juerg; VandeVondele, Joost. 
 Electronic Structure Calculations on Graphics Processing Units, John
 Wiley & Sons, Ltd, 173-190 (2016). 
 GPU-Accelerated Sparse Matrix-Matrix Multiplication for
 Linear Scaling Density Functional Theory.
 https://dx.doi.org/10.1002/9781118670712.ch8

 Borstnik, U; VandeVondele, J; Weber, V; Hutter, J. 
 PARALLEL COMPUTING, 40 (5-6), 47-58 (2014). 
 Sparse matrix multiplication: The distributed block-compressed sparse
 row library.
 https://dx.doi.org/10.1016/j.parco.2014.03.012

 Hutter, J; Iannuzzi, M; Schiffmann, F; VandeVondele, J. 
 WIREs Comput Mol Sci., 4 (1), 15-25 (2014). 
 CP2K: atomistic simulations of condensed matter systems.
 https://dx.doi.org/10.1002/wcms.1159

 Krack, M. 
 THEORETICAL CHEMISTRY ACCOUNTS, 114 (1-3), 145-152 (2005). 
 Pseudopotentials for H to Kr optimized for gradient-corrected
 exchange-correlation functionals.
 https://dx.doi.org/10.1007/s00214-005-0655-y

 VandeVondele, J; Krack, M; Mohamed, F; Parrinello, M; Chassaing, T;
 Hutter, J. COMPUTER PHYSICS COMMUNICATIONS, 167 (2), 103-128 (2005). 
 QUICKSTEP: Fast and accurate density functional calculations using a
 mixed Gaussian and plane waves approach.
 https://dx.doi.org/10.1016/j.cpc.2004.12.014

 Frigo, M; Johnson, SG. 
 PROCEEDINGS OF THE IEEE, 93 (2), 216-231 (2005). 
 The design and implementation of FFTW3.
 https://dx.doi.org/10.1109/JPROC.2004.840301

 Hartwigsen, C; Goedecker, S; Hutter, J. 
 PHYSICAL REVIEW B, 58 (7), 3641-3662 (1998). 
 Relativistic separable dual-space Gaussian pseudopotentials from H to Rn.
 https://dx.doi.org/10.1103/PhysRevB.58.3641

 Lippert, G; Hutter, J; Parrinello, M. 
 MOLECULAR PHYSICS, 92 (3), 477-487 (1997). 
 A hybrid Gaussian and plane wave density functional scheme.
 https://dx.doi.org/10.1080/002689797170220

 Goedecker, S; Teter, M; Hutter, J. 
 PHYSICAL REVIEW B, 54 (3), 1703-1710 (1996). 
 Separable dual-space Gaussian pseudopotentials.
 https://dx.doi.org/10.1103/PhysRevB.54.1703


 -------------------------------------------------------------------------------
 -                                                                             -
 -                                T I M I N G                                  -
 -                                                                             -
 -------------------------------------------------------------------------------
 SUBROUTINE                       CALLS  ASD         SELF TIME        TOTAL TIME
                                MAXIMUM       AVERAGE  MAXIMUM  AVERAGE  MAXIMUM
 CP2K                                 1  1.0    0.128    0.128 2586.072 2586.072
 qs_forces                            1  2.0    0.000    0.000 2584.584 2584.584
 qs_energies                          1  3.0    0.000    0.000 2584.009 2584.009
 scf_env_do_scf                       1  4.0    0.001    0.001 2582.033 2582.033
 scf_env_do_scf_inner_loop          300  5.0    0.057    0.057 2582.032 2582.032
 qs_scf_new_mos                     300  6.0    0.012    0.012 1992.514 1992.514
 eigensolver                        300  7.0    0.057    0.057 1962.030 1962.030
 cp_fm_syevd                        300  8.0 1261.584 1261.584 1263.275 1263.275
 cp_fm_cholesky_restore             900  8.0  697.636  697.636  697.636  697.636
 gspace_mixing                      299  6.0    4.626    4.626  323.471  323.471
 broyden_mixing                     299  7.0  292.410  292.410  292.413  292.413
 qs_ks_update_qs_env                300  6.0    0.004    0.004  133.545  133.545
 rebuild_ks_matrix                  301  7.0    0.001    0.001  133.534  133.534
 qs_ks_build_kohn_sham_matrix       301  8.0    0.074    0.074  133.533  133.533
 qs_rho_update_rho                  301  6.0    0.002    0.002  131.217  131.217
 calculate_rho_elec                 301  7.0   67.034   67.034  131.215  131.215
 pw_transfer                       3912  9.9    0.306    0.306  125.569  125.569
 fft_wrap_pw1pw2                   3310 10.9    0.038    0.038  121.956  121.956
 fft_wrap_pw1pw2_70                1504 11.2   14.417   14.417  113.547  113.547
 density_rs2pw                      301  8.0    0.025    0.025   61.952   61.952
 fft3d_s                           3311 12.9   56.700   56.700   56.729   56.729
 -------------------------------------------------------------------------------

 The number of warnings for this run is : 1
 
 -------------------------------------------------------------------------------
  **** **** ******  **  PROGRAM ENDED AT                 2021-02-27 08:22:28.851
 ***** ** ***  *** **   PROGRAM RAN ON                                   gnode75
 **    ****   ******    PROGRAM RAN BY                               mayank.modi
 ***** **    ** ** **   PROGRAM PROCESS ID                                 13062
  **** **  *******  **  PROGRAM STOPPED IN /home/mayank.modi/ab-initio-thermodyn
                                           amics-of-water/mayank/cp2k_energy_cal
                                           culations
