 DBCSR| CPU Multiplication driver                                           XSMM
 DBCSR| Multrec recursion limit                                              512
 DBCSR| Multiplication stack size                                           1000
 DBCSR| Maximum elements for images                                    UNLIMITED
 DBCSR| Multiplicative factor virtual images                                   1
 DBCSR| Use multiplication densification                                       T
 DBCSR| Multiplication size stacks                                             3


  **** **** ******  **  PROGRAM STARTED AT               2021-01-18 12:22:57.622
 ***** ** ***  *** **   PROGRAM STARTED ON                               gnode52
 **    ****   ******    PROGRAM STARTED BY                           mayank.modi
 ***** **    ** ** **   PROGRAM PROCESS ID                                  7394
  **** **  *******  **  PROGRAM STARTED IN /home/mayank.modi/ab-initio-thermodyn
                                           amics-of-water/mayank/cp2k_energy_cal
                                           culations

 CP2K| version string:                                          CP2K version 7.1
 CP2K| source code revision number:                                  git:e635599
 CP2K| cp2kflags: omp libint fftw3 libxc xsmm spglib                            
 CP2K| is freely available from                            https://www.cp2k.org/
 CP2K| Program compiled at                          Mon Dec 23 19:23:12 CET 2019
 CP2K| Program compiled on                                                pc9404
 CP2K| Program compiled for                                Linux-x86-64-gfortran
 CP2K| Data directory path                                        /opt/cp2k/data
 CP2K| Input file name                   input_training_correct_cell/input980.in

 GLOBAL| Force Environment number                                              1
 GLOBAL| Basis set file name                                           BASIS_SET
 GLOBAL| Potential file name                                      GTH_POTENTIALS
 GLOBAL| MM Potential file name                                     MM_POTENTIAL
 GLOBAL| Coordinate file name                                      __STD_INPUT__
 GLOBAL| Method name                                                        CP2K
 GLOBAL| Project name                                                   H2O_bulk
 GLOBAL| Preferred FFT library                                             FFTW3
 GLOBAL| Preferred diagonalization lib.                                       SL
 GLOBAL| Run type                                                   ENERGY_FORCE
 GLOBAL| All-to-all communication in single precision                          F
 GLOBAL| FFTs using library dependent lengths                                  F
 GLOBAL| Global print level                                                  LOW
 GLOBAL| MPI I/O enabled                                                       T
 GLOBAL| Total number of message passing processes                             1
 GLOBAL| Number of threads for this process                                   36
 GLOBAL| This output is from process                                           0
 GLOBAL| CPU model name                Intel(R) Xeon(R) CPU E5-2640 v4 @ 2.40GHz
 GLOBAL| CPUID                                                              1002
 GLOBAL| Compiled for CPUID                                                    0

 MEMORY| system memory details [Kb]
 MEMORY|                        rank 0           min           max       average
 MEMORY| MemTotal            131893316     131893316     131893316     131893316
 MEMORY| MemFree             107493172     107493172     107493172     107493172
 MEMORY| Buffers              13833664      13833664      13833664      13833664
 MEMORY| Cached                2583124       2583124       2583124       2583124
 MEMORY| Slab                  7248808       7248808       7248808       7248808
 MEMORY| SReclaimable          4176036       4176036       4176036       4176036
 MEMORY| MemLikelyFree       128085996     128085996     128085996     128085996


 GENERATE| WARNING:: No connections detected for Hydrogen - Atom Nr:        71 !
 GENERATE| WARNING:: No connections detected for Hydrogen - Atom Nr:        72 !
 GENERATE|  Preliminary Number of Bonds generated:                             0
 GENERATE|  Achieved consistency in connectivity generation.

 *******************************************************************************
 *******************************************************************************
 **                                                                           **
 **     #####                         ##              ##                      **
 **    ##   ##            ##          ##              ##                      **
 **   ##     ##                       ##            ######                    **
 **   ##     ##  ##   ##  ##   #####  ##  ##   ####   ##    #####    #####    **
 **   ##     ##  ##   ##  ##  ##      ## ##   ##      ##   ##   ##  ##   ##   **
 **   ##  ## ##  ##   ##  ##  ##      ####     ###    ##   ######   ######    **
 **    ##  ###   ##   ##  ##  ##      ## ##      ##   ##   ##       ##        **
 **     #######   #####   ##   #####  ##  ##  ####    ##    #####   ##        **
 **           ##                                                    ##        **
 **                                                                           **
 **                                                ... make the atoms dance   **
 **                                                                           **
 **            Copyright (C) by CP2K developers group (2000 - 2019)           **
 **                                                                           **
 *******************************************************************************


 TOTAL NUMBERS AND MAXIMUM NUMBERS

  Total number of            - Atomic kinds:                                   2
                             - Atoms:                                        192
                             - Shell sets:                                   384
                             - Shells:                                       704
                             - Primitive Cartesian functions:                960
                             - Cartesian basis functions:                   1536
                             - Spherical basis functions:                   1472

  Maximum angular momentum of- Orbital basis functions:                        2
                             - Local part of the GTH pseudopotential:          2
                             - Non-local part of the GTH pseudopotential:      0


 SCF PARAMETERS         Density guess:                                    ATOMIC
                        --------------------------------------------------------
                        max_scf:                                             300
                        max_scf_history:                                       0
                        max_diis:                                              4
                        --------------------------------------------------------
                        eps_scf:                                        1.00E-07
                        eps_scf_history:                                0.00E+00
                        eps_diis:                                       1.00E-01
                        eps_eigval:                                     1.00E-05
                        --------------------------------------------------------
                        level_shift [a.u.]:                                 0.00
                        --------------------------------------------------------
                        Mixing method:                            BROYDEN_MIXING
                                                charge density mixing in g-space
                        --------------------------------------------------------
                        No outer SCF

 Number of electrons:                                                        512
 Number of occupied orbitals:                                                256
 Number of molecular orbitals:                                               256

 Number of orbital functions:                                               1472
 Number of independent orbital functions:                                   1472

 Extrapolation method: initial_guess


 SCF WAVEFUNCTION OPTIMIZATION

  Step     Update method      Time    Convergence         Total energy    Change
  ------------------------------------------------------------------------------
     1 NoMix/Diag. 0.40E+00    7.1     0.68585445     -1063.5956470923 -1.06E+03
     2 Broy./Diag. 0.40E+00    7.6     1.93985882      -990.5668158912  7.30E+01
     3 Broy./Diag. 0.40E+00    7.7     1.90944256     -1281.8801461418 -2.91E+02
     4 Broy./Diag. 0.40E+00    7.8     1.74807047     -1135.0474816693  1.47E+02
     5 Broy./Diag. 0.40E+00    8.2     1.76402225     -1094.5704365527  4.05E+01
     6 Broy./Diag. 0.40E+00    8.3     1.94810581     -1093.4522900711  1.12E+00
     7 Broy./Diag. 0.40E+00    8.8     1.82940386     -1096.0131418254 -2.56E+00
     8 Broy./Diag. 0.40E+00    8.7     1.73272455     -1092.4184291910  3.59E+00
     9 Broy./Diag. 0.40E+00    8.5     1.71729752     -1082.6094173456  9.81E+00
    10 Broy./Diag. 0.40E+00    8.6     1.87155384     -1082.6419080982 -3.25E-02
    11 Broy./Diag. 0.40E+00    8.9     1.54971353     -1077.0811218803  5.56E+00
    12 Broy./Diag. 0.40E+00    9.0     1.76622902     -1071.7369090364  5.34E+00
    13 Broy./Diag. 0.40E+00    8.9     1.55389145     -1065.4980710973  6.24E+00
    14 Broy./Diag. 0.40E+00    8.7     1.68309111     -1079.3398289221 -1.38E+01
    15 Broy./Diag. 0.40E+00    8.8     1.74682080     -1082.3662756586 -3.03E+00
    16 Broy./Diag. 0.40E+00    8.9     1.66287730     -1078.2230886962  4.14E+00
    17 Broy./Diag. 0.40E+00    8.9     1.72527396     -1073.9400075514  4.28E+00
    18 Broy./Diag. 0.40E+00    8.5     1.56756230     -1083.6052869060 -9.67E+00
    19 Broy./Diag. 0.40E+00    8.4     1.73513900     -1073.7964457848  9.81E+00
    20 Broy./Diag. 0.40E+00    8.7     1.79734499     -1078.7911391126 -4.99E+00
    21 Broy./Diag. 0.40E+00    9.2     1.81784395     -1070.6717284025  8.12E+00
    22 Broy./Diag. 0.40E+00    9.0     1.66241792     -1077.5501261360 -6.88E+00
    23 Broy./Diag. 0.40E+00    9.0     1.79818628     -1076.9046291957  6.45E-01
    24 Broy./Diag. 0.40E+00    8.9     1.73842054     -1083.5809841236 -6.68E+00
    25 Broy./Diag. 0.40E+00    8.8     1.77848950     -1068.3502401143  1.52E+01
    26 Broy./Diag. 0.40E+00    8.8     1.75586450     -1078.9050862193 -1.06E+01
    27 Broy./Diag. 0.40E+00    9.0     1.76905331     -1075.6401119124  3.26E+00
    28 Broy./Diag. 0.40E+00    8.9     1.74573186     -1073.5273093121  2.11E+00
    29 Broy./Diag. 0.40E+00    8.5     1.84268796     -1075.6496529020 -2.12E+00
    30 Broy./Diag. 0.40E+00    8.6     1.66426176     -1075.8218925497 -1.72E-01
    31 Broy./Diag. 0.40E+00    9.0     1.45750780     -1073.8524436510  1.97E+00
    32 Broy./Diag. 0.40E+00    8.8     1.52946522     -1076.5992200802 -2.75E+00
    33 Broy./Diag. 0.40E+00    8.9     1.57774319     -1074.0380369799  2.56E+00
    34 Broy./Diag. 0.40E+00    8.9     1.67821163     -1075.9333761433 -1.90E+00
    35 Broy./Diag. 0.40E+00    8.8     1.77476543     -1078.1463200625 -2.21E+00
    36 Broy./Diag. 0.40E+00    8.9     1.77901038     -1073.5004070110  4.65E+00
    37 Broy./Diag. 0.40E+00    8.7     1.30337144     -1073.3265082180  1.74E-01
    38 Broy./Diag. 0.40E+00    8.7     1.67644606     -1071.1739962445  2.15E+00
    39 Broy./Diag. 0.40E+00    8.7     1.86415535     -1076.6192542199 -5.45E+00
    40 Broy./Diag. 0.40E+00    8.9     1.78571275     -1074.1510159583  2.47E+00
    41 Broy./Diag. 0.40E+00    8.8     1.77032633     -1080.5247497489 -6.37E+00
    42 Broy./Diag. 0.40E+00    8.8     1.65048943     -1074.1167923899  6.41E+00
    43 Broy./Diag. 0.40E+00    8.6     1.70430020     -1076.5456126039 -2.43E+00
    44 Broy./Diag. 0.40E+00    9.0     1.54859389     -1073.2336602847  3.31E+00
    45 Broy./Diag. 0.40E+00    8.7     1.69741820     -1075.0197885084 -1.79E+00
    46 Broy./Diag. 0.40E+00    8.7     1.70752159     -1077.1910824474 -2.17E+00
    47 Broy./Diag. 0.40E+00    8.8     1.71770301     -1078.8175860347 -1.63E+00
    48 Broy./Diag. 0.40E+00    8.8     1.66875593     -1073.5978094429  5.22E+00
    49 Broy./Diag. 0.40E+00    8.8     1.72545562     -1074.5444807669 -9.47E-01
    50 Broy./Diag. 0.40E+00    8.7     1.69909019     -1076.6255846384 -2.08E+00
    51 Broy./Diag. 0.40E+00    8.9     1.82094310     -1072.1945917646  4.43E+00
    52 Broy./Diag. 0.40E+00    8.7     1.74716599     -1076.2109168049 -4.02E+00
    53 Broy./Diag. 0.40E+00    9.1     1.66560916     -1073.7348402474  2.48E+00
    54 Broy./Diag. 0.40E+00    9.2     1.72063817     -1075.7491156460 -2.01E+00
    55 Broy./Diag. 0.40E+00    9.3     1.79770321     -1074.8330683154  9.16E-01
    56 Broy./Diag. 0.40E+00    9.1     1.79876528     -1077.7225488902 -2.89E+00
    57 Broy./Diag. 0.40E+00    9.0     1.75788209     -1075.1865258117  2.54E+00
    58 Broy./Diag. 0.40E+00    9.0     1.54775826     -1072.9067881422  2.28E+00
    59 Broy./Diag. 0.40E+00    9.0     1.66705971     -1076.1137195421 -3.21E+00
    60 Broy./Diag. 0.40E+00    8.8     1.71777878     -1072.2683289655  3.85E+00
    61 Broy./Diag. 0.40E+00    9.1     1.76009217     -1076.9017903427 -4.63E+00
    62 Broy./Diag. 0.40E+00    8.9     1.74972938     -1073.5282521247  3.37E+00
    63 Broy./Diag. 0.40E+00    9.2     1.78521981     -1075.9467539673 -2.42E+00
    64 Broy./Diag. 0.40E+00    9.0     1.79029985     -1075.6137244029  3.33E-01
    65 Broy./Diag. 0.40E+00    9.2     1.23606435     -1076.4673781414 -8.54E-01
    66 Broy./Diag. 0.40E+00    9.1     1.71407173     -1071.7165867928  4.75E+00
    67 Broy./Diag. 0.40E+00    8.6     1.83821515     -1075.8175533123 -4.10E+00
    68 Broy./Diag. 0.40E+00    9.1     1.67788403     -1076.3952991008 -5.78E-01
    69 Broy./Diag. 0.40E+00    9.3     1.57195271     -1075.4663250424  9.29E-01
    70 Broy./Diag. 0.40E+00    9.5     1.75571157     -1072.1833026837  3.28E+00
    71 Broy./Diag. 0.40E+00    9.0     1.79452875     -1077.1926800621 -5.01E+00
    72 Broy./Diag. 0.40E+00    9.4     1.75957247     -1072.9262013937  4.27E+00
    73 Broy./Diag. 0.40E+00    9.4     1.78458369     -1078.5696072564 -5.64E+00
    74 Broy./Diag. 0.40E+00    9.0     1.51894437     -1073.1992656303  5.37E+00
    75 Broy./Diag. 0.40E+00    8.5     1.49870921     -1077.8778536489 -4.68E+00
    76 Broy./Diag. 0.40E+00    8.6     1.62999465     -1072.0764490742  5.80E+00
    77 Broy./Diag. 0.40E+00    8.6     1.64188330     -1077.9779664096 -5.90E+00
    78 Broy./Diag. 0.40E+00    8.8     1.75602698     -1071.1045477497  6.87E+00
    79 Broy./Diag. 0.40E+00    8.5     1.72141869     -1080.9118925984 -9.81E+00
    80 Broy./Diag. 0.40E+00    8.4     1.78684152     -1073.2777572851  7.63E+00
    81 Broy./Diag. 0.40E+00    9.1     1.75269297     -1075.1407324090 -1.86E+00
    82 Broy./Diag. 0.40E+00    9.6     1.63473783     -1079.5922645432 -4.45E+00
    83 Broy./Diag. 0.40E+00    9.1     1.82500201     -1077.3652778492  2.23E+00
    84 Broy./Diag. 0.40E+00    9.1     1.56833155     -1076.4047356477  9.61E-01
    85 Broy./Diag. 0.40E+00    9.2     1.65725496     -1073.8325547904  2.57E+00
    86 Broy./Diag. 0.40E+00    9.2     1.71026051     -1071.6698329111  2.16E+00
    87 Broy./Diag. 0.40E+00    9.0     1.75350835     -1077.4782656640 -5.81E+00
    88 Broy./Diag. 0.40E+00    9.3     1.68970304     -1075.1068848618  2.37E+00
    89 Broy./Diag. 0.40E+00    8.9     1.76424795     -1077.5506621933 -2.44E+00
    90 Broy./Diag. 0.40E+00    9.0     1.77870322     -1072.1725246741  5.38E+00
    91 Broy./Diag. 0.40E+00    8.7     1.36501481     -1072.0906934866  8.18E-02
    92 Broy./Diag. 0.40E+00    8.8     1.71083083     -1080.4230778895 -8.33E+00
    93 Broy./Diag. 0.40E+00    9.2     1.76867013     -1072.9007804390  7.52E+00
    94 Broy./Diag. 0.40E+00    9.2     1.76288778     -1073.6499475318 -7.49E-01
    95 Broy./Diag. 0.40E+00    8.9     1.73297329     -1078.6481288280 -5.00E+00
    96 Broy./Diag. 0.40E+00    9.3     1.64414442     -1079.7238104001 -1.08E+00
    97 Broy./Diag. 0.40E+00    9.3     1.72635500     -1079.8202047794 -9.64E-02
    98 Broy./Diag. 0.40E+00    9.3     1.81602306     -1074.4069402836  5.41E+00
    99 Broy./Diag. 0.40E+00    9.1     1.72013939     -1071.5306451303  2.88E+00
   100 Broy./Diag. 0.40E+00    9.2     1.77403733     -1083.6848815782 -1.22E+01
   101 Broy./Diag. 0.40E+00    9.3     1.76446214     -1072.3925527886  1.13E+01
   102 Broy./Diag. 0.40E+00    9.1     1.73907871     -1071.8444527550  5.48E-01
   103 Broy./Diag. 0.40E+00    8.9     1.84155674     -1072.9959539527 -1.15E+00
   104 Broy./Diag. 0.40E+00    9.2     1.76393360     -1078.9032251432 -5.91E+00
   105 Broy./Diag. 0.40E+00    9.4     1.67457700     -1074.6461559115  4.26E+00
   106 Broy./Diag. 0.40E+00    9.2     1.66785970     -1077.2415884370 -2.60E+00
   107 Broy./Diag. 0.40E+00    9.3     1.70719900     -1070.9944673837  6.25E+00
   108 Broy./Diag. 0.40E+00    8.8     1.76504944     -1076.2230927129 -5.23E+00
   109 Broy./Diag. 0.40E+00    8.8     1.69050474     -1071.2559132657  4.97E+00
   110 Broy./Diag. 0.40E+00    8.8     1.74431271     -1086.1484035809 -1.49E+01
   111 Broy./Diag. 0.40E+00    8.6     1.23393873     -1073.7361723782  1.24E+01
   112 Broy./Diag. 0.40E+00    8.8     1.63948765     -1074.4079123621 -6.72E-01
   113 Broy./Diag. 0.40E+00    8.5     1.79441545     -1078.5981567831 -4.19E+00
   114 Broy./Diag. 0.40E+00    8.7     1.73053205     -1069.3817614345  9.22E+00
   115 Broy./Diag. 0.40E+00    8.9     1.77951926     -1079.0957385738 -9.71E+00
   116 Broy./Diag. 0.40E+00    9.2     1.75583137     -1078.6922581620  4.03E-01
   117 Broy./Diag. 0.40E+00    9.1     1.78363009     -1074.1794260098  4.51E+00
   118 Broy./Diag. 0.40E+00    8.9     1.82528451     -1074.5585809639 -3.79E-01
   119 Broy./Diag. 0.40E+00    8.8     1.63576573     -1074.2031196532  3.55E-01
   120 Broy./Diag. 0.40E+00    8.9     1.67918763     -1078.0263252964 -3.82E+00
   121 Broy./Diag. 0.40E+00    9.6     1.65044057     -1076.2994454985  1.73E+00
   122 Broy./Diag. 0.40E+00    8.9     1.63958108     -1074.6918331166  1.61E+00
   123 Broy./Diag. 0.40E+00    9.1     1.65834506     -1074.9902317245 -2.98E-01
   124 Broy./Diag. 0.40E+00    9.0     1.77524043     -1074.8708456010  1.19E-01
   125 Broy./Diag. 0.40E+00    8.8     1.73802490     -1069.0985083769  5.77E+00
   126 Broy./Diag. 0.40E+00    8.7     1.73577203     -1083.8976373495 -1.48E+01
   127 Broy./Diag. 0.40E+00    8.6     1.85524127     -1075.6640495846  8.23E+00
   128 Broy./Diag. 0.40E+00    8.6     1.79609611     -1079.3385669474 -3.67E+00
   129 Broy./Diag. 0.40E+00    8.5     1.79357799     -1076.7889418255  2.55E+00
   130 Broy./Diag. 0.40E+00    8.6     1.80094985     -1071.5352944405  5.25E+00
   131 Broy./Diag. 0.40E+00    8.7     1.64288063     -1077.7228116915 -6.19E+00
   132 Broy./Diag. 0.40E+00    8.7     1.57186184     -1074.5032511993  3.22E+00
   133 Broy./Diag. 0.40E+00    8.8     1.70155086     -1069.7904353593  4.71E+00
   134 Broy./Diag. 0.40E+00    8.9     1.73632345     -1078.3109044838 -8.52E+00
   135 Broy./Diag. 0.40E+00    8.7     1.79697432     -1079.9935415276 -1.68E+00
   136 Broy./Diag. 0.40E+00    8.6     1.37623779     -1074.3180465337  5.68E+00
   137 Broy./Diag. 0.40E+00    8.8     1.60147178     -1072.3123750046  2.01E+00
   138 Broy./Diag. 0.40E+00    8.8     1.66170424     -1072.4483599833 -1.36E-01
   139 Broy./Diag. 0.40E+00    8.7     1.81673564     -1074.3645839310 -1.92E+00
   140 Broy./Diag. 0.40E+00    8.8     1.86268577     -1075.1494936107 -7.85E-01
   141 Broy./Diag. 0.40E+00    8.8     1.78233267     -1075.2323363169 -8.28E-02
   142 Broy./Diag. 0.40E+00    8.7     1.77311669     -1078.2331810468 -3.00E+00
   143 Broy./Diag. 0.40E+00    8.8     1.63030802     -1078.2389153390 -5.73E-03
   144 Broy./Diag. 0.40E+00    8.6     1.69910651     -1072.1163557311  6.12E+00
   145 Broy./Diag. 0.40E+00    8.6     1.76328318     -1074.1074527186 -1.99E+00
   146 Broy./Diag. 0.40E+00    8.5     1.78825936     -1072.5799074460  1.53E+00
   147 Broy./Diag. 0.40E+00    8.7     1.76603896     -1073.7045329467 -1.12E+00
   148 Broy./Diag. 0.40E+00    8.8     1.76025701     -1078.3735859619 -4.67E+00
   149 Broy./Diag. 0.40E+00    8.8     1.00672441     -1075.8802677470  2.49E+00
   150 Broy./Diag. 0.40E+00    9.0     1.85917376     -1075.0302360022  8.50E-01
   151 Broy./Diag. 0.40E+00    8.7     1.62093541     -1071.7749025305  3.26E+00
   152 Broy./Diag. 0.40E+00    8.6     1.68281709     -1076.5439585312 -4.77E+00
   153 Broy./Diag. 0.40E+00    8.7     1.71023139     -1076.0439333741  5.00E-01
   154 Broy./Diag. 0.40E+00    8.7     1.72475132     -1074.6351426551  1.41E+00
   155 Broy./Diag. 0.40E+00    8.9     1.63101321     -1075.4737788089 -8.39E-01
   156 Broy./Diag. 0.40E+00   10.0     1.78214263     -1075.6598844124 -1.86E-01
   157 Broy./Diag. 0.40E+00    8.8     1.78663190     -1075.8784626589 -2.19E-01
   158 Broy./Diag. 0.40E+00    8.8     1.69808839     -1072.1907530960  3.69E+00
   159 Broy./Diag. 0.40E+00    8.7     1.78403233     -1082.1784516783 -9.99E+00
   160 Broy./Diag. 0.40E+00    8.6     1.87506233     -1074.6760838935  7.50E+00
   161 Broy./Diag. 0.40E+00    8.3     1.76186868     -1075.1111644413 -4.35E-01
   162 Broy./Diag. 0.40E+00    8.5     1.73032144     -1074.1152215222  9.96E-01
   163 Broy./Diag. 0.40E+00    8.7     1.63109028     -1080.3457881517 -6.23E+00
   164 Broy./Diag. 0.40E+00    8.7     1.74297451     -1072.2954633441  8.05E+00
   165 Broy./Diag. 0.40E+00    8.7     1.73320832     -1079.2294773264 -6.93E+00
   166 Broy./Diag. 0.40E+00    8.7     1.76131257     -1072.9197639173  6.31E+00
   167 Broy./Diag. 0.40E+00    8.7     1.73661223     -1077.5507359323 -4.63E+00
   168 Broy./Diag. 0.40E+00    8.8     1.69201595     -1071.4054857551  6.15E+00
   169 Broy./Diag. 0.40E+00    8.5     1.76501538     -1078.5025278801 -7.10E+00
   170 Broy./Diag. 0.40E+00    8.4     1.78649223     -1069.4774339939  9.03E+00
   171 Broy./Diag. 0.40E+00    8.6     1.81631939     -1073.4235674755 -3.95E+00
   172 Broy./Diag. 0.40E+00    8.8     1.69974443     -1078.1986937020 -4.78E+00
   173 Broy./Diag. 0.40E+00    8.9     1.73076501     -1080.9293733001 -2.73E+00
   174 Broy./Diag. 0.40E+00    8.9     1.72899797     -1075.9366090805  4.99E+00
   175 Broy./Diag. 0.40E+00    8.8     1.81119098     -1072.8779864480  3.06E+00
   176 Broy./Diag. 0.40E+00    8.7     1.78579505     -1075.8641216510 -2.99E+00
   177 Broy./Diag. 0.40E+00    8.8     1.81395732     -1079.3204049666 -3.46E+00
   178 Broy./Diag. 0.40E+00    8.7     1.78722166     -1072.5314066412  6.79E+00
   179 Broy./Diag. 0.40E+00    9.0     1.84793151     -1079.8749106084 -7.34E+00
   180 Broy./Diag. 0.40E+00    8.7     1.68667272     -1073.2971002899  6.58E+00
   181 Broy./Diag. 0.40E+00    8.9     1.74756281     -1076.9680235573 -3.67E+00
   182 Broy./Diag. 0.40E+00    8.8     1.56916601     -1069.1583861299  7.81E+00
   183 Broy./Diag. 0.40E+00    8.8     1.60715287     -1074.4181950548 -5.26E+00
   184 Broy./Diag. 0.40E+00    8.8     1.69423350     -1076.4617407202 -2.04E+00
   185 Broy./Diag. 0.40E+00    8.7     1.79920843     -1073.3159404225  3.15E+00
   186 Broy./Diag. 0.40E+00    8.7     1.78160280     -1076.6430479347 -3.33E+00
   187 Broy./Diag. 0.40E+00    8.7     1.71780424     -1075.8341576180  8.09E-01
   188 Broy./Diag. 0.40E+00    8.6     1.68480035     -1075.7501459719  8.40E-02
   189 Broy./Diag. 0.40E+00    8.8     1.64440587     -1074.6996418727  1.05E+00
   190 Broy./Diag. 0.40E+00    8.7     1.66395612     -1072.2082570746  2.49E+00
   191 Broy./Diag. 0.40E+00    8.8     1.73184930     -1073.5017670267 -1.29E+00
   192 Broy./Diag. 0.40E+00    8.6     1.69258658     -1071.5996770147  1.90E+00
   193 Broy./Diag. 0.40E+00    8.8     1.77420266     -1078.5164031723 -6.92E+00
   194 Broy./Diag. 0.40E+00    8.7     1.78133969     -1076.2009948126  2.32E+00
   195 Broy./Diag. 0.40E+00    8.8     1.72674461     -1071.3563824284  4.84E+00
   196 Broy./Diag. 0.40E+00    8.6     1.77990234     -1078.0255324687 -6.67E+00
   197 Broy./Diag. 0.40E+00    8.9     1.73020597     -1074.6903531239  3.34E+00
   198 Broy./Diag. 0.40E+00    8.3     1.79297325     -1073.0735391338  1.62E+00
   199 Broy./Diag. 0.40E+00    8.2     1.70337805     -1077.5283201656 -4.45E+00
   200 Broy./Diag. 0.40E+00    8.3     1.69675578     -1074.4717522697  3.06E+00
   201 Broy./Diag. 0.40E+00    8.5     1.69848771     -1076.0817317902 -1.61E+00
   202 Broy./Diag. 0.40E+00    8.9     1.78155430     -1075.1918575353  8.90E-01
   203 Broy./Diag. 0.40E+00    8.9     1.84899094     -1077.9426523764 -2.75E+00
   204 Broy./Diag. 0.40E+00    8.7     1.73558589     -1070.2508006590  7.69E+00
   205 Broy./Diag. 0.40E+00    8.8     1.80796090     -1077.3051026198 -7.05E+00
   206 Broy./Diag. 0.40E+00    8.8     1.60630044     -1071.9668885108  5.34E+00
   207 Broy./Diag. 0.40E+00    8.7     1.69065508     -1077.2717882225 -5.30E+00
   208 Broy./Diag. 0.40E+00    8.8     1.71799409     -1077.3085196500 -3.67E-02
   209 Broy./Diag. 0.40E+00    8.8     1.75363704     -1076.3332709079  9.75E-01
   210 Broy./Diag. 0.40E+00    8.7     1.80007853     -1076.3202727228  1.30E-02
   211 Broy./Diag. 0.40E+00    8.6     1.60723317     -1074.8249447220  1.50E+00
   212 Broy./Diag. 0.40E+00    8.6     1.64129100     -1073.3388322424  1.49E+00
   213 Broy./Diag. 0.40E+00    8.7     1.77517528     -1077.6339441317 -4.30E+00
   214 Broy./Diag. 0.40E+00    8.8     1.79197150     -1073.8888213817  3.75E+00
   215 Broy./Diag. 0.40E+00    8.7     1.84251127     -1074.5644633389 -6.76E-01
   216 Broy./Diag. 0.40E+00    8.8     1.64339841     -1076.4129960473 -1.85E+00
   217 Broy./Diag. 0.40E+00    8.9     1.70544980     -1071.9741645027  4.44E+00
   218 Broy./Diag. 0.40E+00    8.7     1.76067557     -1081.0714742823 -9.10E+00
   219 Broy./Diag. 0.40E+00    8.8     1.62668102     -1071.3487397515  9.72E+00
   220 Broy./Diag. 0.40E+00    8.9     1.69782211     -1080.0647882659 -8.72E+00
   221 Broy./Diag. 0.40E+00    8.9     1.78664344     -1073.4036006883  6.66E+00
   222 Broy./Diag. 0.40E+00    8.8     1.62581340     -1075.3162329417 -1.91E+00
   223 Broy./Diag. 0.40E+00    8.8     1.69247778     -1076.1961427897 -8.80E-01
   224 Broy./Diag. 0.40E+00    9.2     1.57570698     -1072.6921148258  3.50E+00
   225 Broy./Diag. 0.40E+00    8.8     1.62515160     -1078.1620894578 -5.47E+00
   226 Broy./Diag. 0.40E+00    8.7     1.76587399     -1076.8745025139  1.29E+00
   227 Broy./Diag. 0.40E+00    8.7     1.81658168     -1076.7938181429  8.07E-02
   228 Broy./Diag. 0.40E+00    8.8     1.60418476     -1072.2492181467  4.54E+00
   229 Broy./Diag. 0.40E+00    8.7     1.67218511     -1068.3802839512  3.87E+00
   230 Broy./Diag. 0.40E+00    8.7     1.73680641     -1074.6255847564 -6.25E+00
   231 Broy./Diag. 0.40E+00    8.9     1.79260567     -1076.3479521798 -1.72E+00
   232 Broy./Diag. 0.40E+00    8.7     1.76122683     -1073.9623638572  2.39E+00
   233 Broy./Diag. 0.40E+00    8.8     1.79778472     -1078.2302323699 -4.27E+00
   234 Broy./Diag. 0.40E+00    8.7     1.69154516     -1074.3856284569  3.84E+00
   235 Broy./Diag. 0.40E+00    8.8     1.80580744     -1072.7733615442  1.61E+00
   236 Broy./Diag. 0.40E+00    8.9     1.79550937     -1076.1889753182 -3.42E+00
   237 Broy./Diag. 0.40E+00    8.7     1.73436361     -1078.5080590499 -2.32E+00
   238 Broy./Diag. 0.40E+00    8.6     1.68929755     -1071.2664886399  7.24E+00
   239 Broy./Diag. 0.40E+00    8.6     1.66522600     -1078.0512870131 -6.78E+00
   240 Broy./Diag. 0.40E+00    8.8     1.78579348     -1077.4841847004  5.67E-01
   241 Broy./Diag. 0.40E+00    9.7     1.25265862     -1074.6018414086  2.88E+00
   242 Broy./Diag. 0.40E+00    9.2     1.68450641     -1075.5475582891 -9.46E-01
   243 Broy./Diag. 0.40E+00    9.0     1.77245239     -1077.4920027850 -1.94E+00
   244 Broy./Diag. 0.40E+00    8.7     1.67598104     -1071.0560544337  6.44E+00
   245 Broy./Diag. 0.40E+00    8.7     1.78669377     -1075.3137834629 -4.26E+00
   246 Broy./Diag. 0.40E+00    8.6     1.74632642     -1073.2703506802  2.04E+00
   247 Broy./Diag. 0.40E+00    8.5     1.73128830     -1077.6534881018 -4.38E+00
   248 Broy./Diag. 0.40E+00    8.7     1.77418426     -1078.5426825657 -8.89E-01
   249 Broy./Diag. 0.40E+00    8.6     1.66613665     -1073.3187944519  5.22E+00
   250 Broy./Diag. 0.40E+00    9.0     1.75256423     -1074.5731144819 -1.25E+00
   251 Broy./Diag. 0.40E+00    9.1     1.29734401     -1073.0724065343  1.50E+00
   252 Broy./Diag. 0.40E+00    9.1     1.76260100     -1075.4328040055 -2.36E+00
   253 Broy./Diag. 0.40E+00    8.8     1.83812851     -1078.2555816343 -2.82E+00
   254 Broy./Diag. 0.40E+00    8.8     1.64157589     -1072.6991743888  5.56E+00
   255 Broy./Diag. 0.40E+00    8.8     1.69630101     -1073.5230557334 -8.24E-01
   256 Broy./Diag. 0.40E+00    8.6     1.67244951     -1074.3600193051 -8.37E-01
   257 Broy./Diag. 0.40E+00    8.3     1.78713167     -1076.0993963258 -1.74E+00
   258 Broy./Diag. 0.40E+00    8.3     1.76836690     -1073.7145436465  2.38E+00
   259 Broy./Diag. 0.40E+00   13.0     1.73557725     -1076.9235787513 -3.21E+00
   260 Broy./Diag. 0.40E+00    8.8     1.66406925     -1075.2369826416  1.69E+00
   261 Broy./Diag. 0.40E+00    8.7     1.63837375     -1074.5484697280  6.89E-01
   262 Broy./Diag. 0.40E+00    8.8     1.52417595     -1076.0195618257 -1.47E+00
   263 Broy./Diag. 0.40E+00    8.6     1.53663982     -1072.3332143342  3.69E+00
   264 Broy./Diag. 0.40E+00    8.5     1.70296964     -1076.2862463275 -3.95E+00
   265 Broy./Diag. 0.40E+00    8.8     1.79550901     -1078.6120120576 -2.33E+00
   266 Broy./Diag. 0.40E+00    8.7     1.81834066     -1073.0774126439  5.53E+00
   267 Broy./Diag. 0.40E+00    8.5     1.68896752     -1073.9080458786 -8.31E-01
   268 Broy./Diag. 0.40E+00    8.7     1.72483934     -1077.3465124630 -3.44E+00
   269 Broy./Diag. 0.40E+00    8.6     1.73143820     -1076.3903767555  9.56E-01
   270 Broy./Diag. 0.40E+00    8.8     1.23959457     -1075.0289562072  1.36E+00
   271 Broy./Diag. 0.40E+00    8.7     1.37254695     -1074.8695962492  1.59E-01
   272 Broy./Diag. 0.40E+00    8.7     1.67267291     -1075.4915649261 -6.22E-01
   273 Broy./Diag. 0.40E+00    8.8     1.79691788     -1070.9772028118  4.51E+00
   274 Broy./Diag. 0.40E+00    8.5     1.75712070     -1078.1167604987 -7.14E+00
   275 Broy./Diag. 0.40E+00    8.7     1.63083541     -1078.8912536023 -7.74E-01
   276 Broy./Diag. 0.40E+00    8.7     1.69930736     -1069.3321488142  9.56E+00
   277 Broy./Diag. 0.40E+00    8.8     1.77599884     -1082.0895022322 -1.28E+01
   278 Broy./Diag. 0.40E+00    8.6     1.80037845     -1071.5724575852  1.05E+01
   279 Broy./Diag. 0.40E+00    8.7     1.85716385     -1078.1771697974 -6.60E+00
   280 Broy./Diag. 0.40E+00    8.8     1.43483615     -1072.0648693751  6.11E+00
   281 Broy./Diag. 0.40E+00    8.7     1.25306600     -1069.3859881431  2.68E+00
   282 Broy./Diag. 0.40E+00    8.6     1.68871850     -1070.1001489224 -7.14E-01
   283 Broy./Diag. 0.40E+00    8.6     1.78615394     -1078.6087535512 -8.51E+00
   284 Broy./Diag. 0.40E+00    8.3     1.85442378     -1076.4132751092  2.20E+00
   285 Broy./Diag. 0.40E+00    8.5     1.68501876     -1081.8606848546 -5.45E+00
   286 Broy./Diag. 0.40E+00    8.8     1.81800633     -1072.6867897128  9.17E+00
   287 Broy./Diag. 0.40E+00    8.8     1.80912534     -1077.8953224568 -5.21E+00
   288 Broy./Diag. 0.40E+00    8.7     1.63862181     -1072.5289069816  5.37E+00
   289 Broy./Diag. 0.40E+00    8.8     1.71137676     -1077.9011620492 -5.37E+00
   290 Broy./Diag. 0.40E+00    8.9     1.75960371     -1074.7532403838  3.15E+00
   291 Broy./Diag. 0.40E+00    8.7     1.25811460     -1073.4524133048  1.30E+00
   292 Broy./Diag. 0.40E+00    8.6     1.48972321     -1072.6602442817  7.92E-01
   293 Broy./Diag. 0.40E+00    8.9     1.56339128     -1076.9353648005 -4.28E+00
   294 Broy./Diag. 0.40E+00    8.9     1.53385702     -1078.7388578653 -1.80E+00
   295 Broy./Diag. 0.40E+00    8.6     1.75460646     -1073.6944888173  5.04E+00
   296 Broy./Diag. 0.40E+00    8.5     1.80619459     -1078.3915933826 -4.70E+00
   297 Broy./Diag. 0.40E+00    8.6     1.80640970     -1078.8914902798 -5.00E-01
   298 Broy./Diag. 0.40E+00    8.7     1.72070129     -1073.7287098462  5.16E+00
   299 Broy./Diag. 0.40E+00    8.8     1.81078132     -1069.1764922435  4.55E+00
   300 Broy./Diag. 0.40E+00    8.8     1.78612329     -1081.8921069100 -1.27E+01

  Leaving inner SCF loop after reaching   300 steps.


  Electronic density on regular grids:       -511.9997036292        0.0002963708
  Core density on regular grids:              512.0003095391        0.0003095391
  Total charge density on r-space grids:        0.0006059099
  Total charge density g-space grids:           0.0006059099

  Overlap energy of the core charge distribution:               0.00000000000000
  Self energy of the core charge distribution:              -2838.21791979120962
  Core Hamiltonian energy:                                    752.90704416578671
  Hartree energy:                                            1241.29365009882918
  Exchange-correlation energy:                               -237.87488138342550

  Total energy:                                             -1081.89210691001904

 *** WARNING in qs_scf.F:542 :: SCF run NOT converged ***


 ENERGY| Total FORCE_EVAL ( QS ) energy (a.u.):            -1072.289393235381795


 ATOMIC FORCES in [a.u.]

 # Atom   Kind   Element          X              Y              Z
      1      1      O          -0.04849503    -0.00499256    -0.04936479
      2      2      H          -0.03488575    -0.09990220    -0.01270239
      3      2      H           0.02648811     0.04950111    -0.02568478
      4      1      O          -0.15328537    -0.05283590    -0.00375981
      5      2      H           0.07085758     0.08615588    -0.03556305
      6      2      H           0.07035510    -0.07815129     0.10290507
      7      1      O          -0.14901358    -0.14219844    -0.03600467
      8      2      H          -0.01528686     0.10020285     0.07745289
      9      2      H           0.13357427    -0.01724976    -0.03422498
     10      1      O          -0.11526582     0.08092896     0.08181343
     11      2      H           0.03506812    -0.03603823    -0.02846875
     12      2      H           0.04477834     0.04220380    -0.02120200
     13      1      O           0.18213162    -0.11591706    -0.06029189
     14      2      H          -0.04384742     0.07996093     0.01989472
     15      2      H          -0.06849167    -0.03953555    -0.02880763
     16      1      O           0.14956897    -0.01467374    -0.00353941
     17      2      H           0.02889086     0.03947230    -0.11242122
     18      2      H          -0.06784236     0.04687049     0.08311429
     19      1      O          -0.13038383    -0.02505163    -0.10111895
     20      2      H          -0.02836102    -0.05637247    -0.06203245
     21      2      H           0.04885642    -0.02245605     0.02733427
     22      1      O           0.07746995     0.10666528     0.07862904
     23      2      H          -0.01286868    -0.03851315    -0.01382130
     24      2      H           0.01022133    -0.02581773    -0.05164460
     25      1      O           0.01323066    -0.05544557     0.00563878
     26      2      H           0.03194774     0.08728137     0.02544167
     27      2      H          -0.06419476    -0.04167398     0.01029105
     28      1      O           0.10507956    -0.01656339     0.02188625
     29      2      H          -0.00397120     0.03417464    -0.09292565
     30      2      H          -0.00026663     0.00842660    -0.01954205
     31      1      O           0.14426920     0.09688999     0.05866084
     32      2      H          -0.01027164    -0.01816881    -0.00505838
     33      2      H          -0.01742858    -0.00628509     0.04220619
     34      1      O           0.09797641    -0.13265032     0.16862741
     35      2      H          -0.11004617    -0.01745630    -0.00960009
     36      2      H           0.01463631     0.05331008    -0.05593518
     37      1      O           0.04171866    -0.00648713     0.06873674
     38      2      H           0.08419679     0.02502817     0.13039103
     39      2      H           0.02638475     0.11351784    -0.03078316
     40      1      O          -0.06199178    -0.03701826     0.09524936
     41      2      H          -0.00977650    -0.00828016    -0.02806208
     42      2      H           0.04353499    -0.02404137    -0.03696670
     43      1      O          -0.10199544     0.03871371    -0.15705428
     44      2      H          -0.01795899     0.04508925     0.00027435
     45      2      H           0.03191272    -0.06109544     0.07021804
     46      1      O          -0.10108123    -0.14367399     0.06185627
     47      2      H          -0.05796351     0.02471069     0.00667977
     48      2      H           0.07009892     0.00267686    -0.02939439
     49      1      O           0.12990591     0.09815926     0.15735583
     50      2      H          -0.10820929    -0.00369238     0.04230549
     51      2      H           0.03062493    -0.03809832     0.00009368
     52      1      O           0.06018039    -0.03878249     0.15940477
     53      2      H           0.07233396    -0.04868420     0.00684666
     54      2      H          -0.05546328    -0.04249369    -0.04914946
     55      1      O          -0.05647986    -0.03232130     0.17601286
     56      2      H           0.08962173    -0.00659536    -0.06542532
     57      2      H          -0.01467104    -0.07628399    -0.02486461
     58      1      O           0.13228720    -0.14285410     0.07481625
     59      2      H          -0.06899810     0.05395317    -0.06167526
     60      2      H           0.03794938    -0.04770414    -0.09612866
     61      1      O          -0.01789056    -0.15866262    -0.11126262
     62      2      H           0.10873956    -0.06455647    -0.00799562
     63      2      H          -0.01104605     0.09881424     0.07154878
     64      1      O           0.12225656     0.09264243     0.04930376
     65      2      H          -0.05711661    -0.09435857    -0.04009978
     66      2      H          -0.02638187     0.06663334    -0.04321470
     67      1      O           0.01632099    -0.15064297    -0.01363826
     68      2      H           0.03845407     0.00344956    -0.03228110
     69      2      H          -0.03282489    -0.06560241     0.02756992
     70      1      O          -0.13539403    -0.04297581     0.10256717
     71      2      H           0.04188386     0.02588063    -0.04886691
     72      2      H           0.00872597    -0.04809794     0.02658632
     73      1      O           0.13161767    -0.06914106     0.04527518
     74      2      H          -0.00029214    -0.02178001    -0.08246443
     75      2      H          -0.03592827     0.05078434    -0.06937882
     76      1      O           0.11800757    -0.02554844    -0.01660197
     77      2      H           0.04607973    -0.03074818     0.04946100
     78      2      H          -0.01705533     0.03011192    -0.07000015
     79      1      O          -0.12012958    -0.09531164     0.09149674
     80      2      H           0.01570145    -0.02277586     0.04188092
     81      2      H          -0.05199771    -0.02236171     0.03223554
     82      1      O           0.04700311     0.00703360     0.03427806
     83      2      H          -0.02840582    -0.00860178     0.03602977
     84      2      H           0.01298851    -0.02130521    -0.10059190
     85      1      O           0.06532590    -0.07535360    -0.12554140
     86      2      H           0.02904981    -0.00034053     0.04470269
     87      2      H           0.05882191     0.06523365    -0.00653217
     88      1      O           0.06190864     0.10282335     0.03328331
     89      2      H          -0.00059193    -0.02163920    -0.02036795
     90      2      H           0.03247009     0.05658424    -0.01812741
     91      1      O          -0.12311570    -0.18056787     0.11330936
     92      2      H          -0.03528144     0.08506829    -0.02004478
     93      2      H           0.09952740     0.01767190     0.08478226
     94      1      O           0.12620216    -0.12406861     0.01433049
     95      2      H           0.01257244    -0.03980468     0.03512970
     96      2      H          -0.07948589     0.03480248     0.04393636
     97      1      O           0.07637981    -0.04556257    -0.03360319
     98      2      H          -0.04867492     0.06395321    -0.04814681
     99      2      H           0.03120575    -0.01566693     0.05050517
    100      1      O          -0.06968564     0.01070170    -0.11970405
    101      2      H          -0.08947595     0.03269275    -0.00183478
    102      2      H          -0.02327137     0.11109229     0.08087885
    103      1      O          -0.04298757    -0.08514023     0.12969240
    104      2      H          -0.04146380     0.02205793     0.00151093
    105      2      H          -0.08116653    -0.00803147     0.01205640
    106      1      O          -0.12838886    -0.18517781     0.09702656
    107      2      H          -0.01838924    -0.00081064     0.03480385
    108      2      H           0.01455295     0.03613650    -0.06404447
    109      1      O          -0.07110517    -0.02226019    -0.17819175
    110      2      H           0.08867176     0.01875221     0.01686473
    111      2      H          -0.01699518     0.04423277     0.00603013
    112      1      O          -0.09852727    -0.07242461     0.08024313
    113      2      H           0.00629572    -0.08521176     0.03453968
    114      2      H          -0.05462914    -0.00643170    -0.05405453
    115      1      O          -0.04130490    -0.15103579     0.00198353
    116      2      H           0.10055028    -0.02055696    -0.03132509
    117      2      H           0.03387624     0.05592590     0.09202087
    118      1      O           0.04604235     0.04870459     0.12072834
    119      2      H          -0.05087014    -0.03139440    -0.01613355
    120      2      H           0.00170191     0.04434360     0.00018017
    121      1      O          -0.13794416     0.01407813    -0.14381020
    122      2      H           0.07049634     0.05795974     0.02876878
    123      2      H          -0.01116303    -0.10239579    -0.00861996
    124      1      O           0.02019504     0.06847001    -0.15127283
    125      2      H           0.01470602     0.06771205     0.04786148
    126      2      H           0.03541995    -0.05703998     0.03588597
    127      1      O           0.10360376     0.12945727     0.09939636
    128      2      H           0.08725322    -0.01561229     0.02599513
    129      2      H          -0.06567251     0.07484627    -0.02464790
    130      1      O           0.08769430     0.03047752    -0.08180857
    131      2      H          -0.03807433     0.00594810    -0.05947398
    132      2      H          -0.03143820     0.06207406     0.05188786
    133      1      O           0.15600542    -0.10418118    -0.14062759
    134      2      H          -0.00420456     0.08821814    -0.00597077
    135      2      H          -0.01755283     0.03495378     0.02781805
    136      1      O           0.08728160     0.14257293     0.05913144
    137      2      H          -0.04850752    -0.07421960     0.03261663
    138      2      H          -0.10505081     0.07484513    -0.03165335
    139      1      O           0.01614556    -0.01764690     0.07901133
    140      2      H          -0.01968579    -0.07518056     0.00732338
    141      2      H           0.05179991     0.01928254    -0.00038089
    142      1      O          -0.02147411    -0.17833308    -0.11445861
    143      2      H          -0.07814439    -0.01359013     0.07396405
    144      2      H          -0.01043717     0.05763222    -0.08938731
    145      1      O           0.00848503     0.08097746    -0.12418806
    146      2      H           0.03051949    -0.07243979    -0.03804023
    147      2      H          -0.05809589    -0.03800602     0.02129747
    148      1      O           0.01602535     0.03926214     0.15160235
    149      2      H           0.05868908    -0.02387302    -0.14665082
    150      2      H           0.09508307    -0.09209866    -0.00025008
    151      1      O          -0.04360662     0.01867539    -0.06768717
    152      2      H           0.02957981    -0.03737074     0.02548600
    153      2      H          -0.08827980     0.02318405     0.03492069
    154      1      O          -0.09329949    -0.15867438     0.16245565
    155      2      H          -0.04208336     0.04032815    -0.07104977
    156      2      H           0.04430905     0.01205229     0.04944206
    157      1      O           0.12563628    -0.00676646    -0.04608505
    158      2      H          -0.03961283     0.07300762    -0.03349524
    159      2      H          -0.06917939    -0.07758848     0.05674194
    160      1      O           0.02312315    -0.15678484     0.13323449
    161      2      H           0.04706502     0.00523376    -0.01294522
    162      2      H          -0.09071520     0.07099098    -0.00327035
    163      1      O          -0.09770333    -0.12706473     0.16588206
    164      2      H          -0.01802092     0.05643332    -0.06292975
    165      2      H          -0.04032039    -0.08105561    -0.01378206
    166      1      O          -0.08177089    -0.08967424    -0.09879187
    167      2      H          -0.01684633    -0.03747269     0.03508980
    168      2      H           0.00781275     0.05984442    -0.01310878
    169      1      O           0.20326895    -0.06395866     0.12510769
    170      2      H          -0.09374720    -0.10638998     0.08774719
    171      2      H          -0.07227212     0.04097025    -0.04821932
    172      1      O           0.14271651    -0.08260844    -0.05688653
    173      2      H          -0.09825819     0.00046335    -0.04339949
    174      2      H          -0.00075103     0.03447643     0.11694042
    175      1      O           0.16111308    -0.03215131     0.02054586
    176      2      H           0.01965763     0.00238120    -0.05580218
    177      2      H          -0.01903073    -0.01009637    -0.02282577
    178      1      O          -0.10371373    -0.01522269     0.07397179
    179      2      H           0.04231944    -0.02353905    -0.02952704
    180      2      H          -0.04498381    -0.04390218    -0.01142061
    181      1      O           0.11902635    -0.17401154     0.12257716
    182      2      H          -0.02799645     0.02788781    -0.06117392
    183      2      H           0.06755611     0.04230461     0.08251420
    184      1      O           0.03397883     0.05103030    -0.11722899
    185      2      H          -0.00588172     0.01503810    -0.00661535
    186      2      H           0.09584162    -0.01163345     0.00120759
    187      1      O           0.04782595    -0.15100216    -0.09538235
    188      2      H           0.00246004    -0.03622185     0.10565722
    189      2      H           0.08838417     0.02293351     0.06904333
    190      1      O           0.02181851     0.09007972    -0.00334854
    191      2      H           0.00472546     0.02516610    -0.03548424
    192      2      H          -0.05753220    -0.01235156     0.07173293
 SUM OF ATOMIC FORCES           0.72498698    -2.02889465     0.88480055     2.32913968

 -------------------------------------------------------------------------------
 -                                                                             -
 -                                DBCSR STATISTICS                             -
 -                                                                             -
 -------------------------------------------------------------------------------
 COUNTER                                    TOTAL       BLAS       SMM       ACC
 flops     5 x     5 x   256           6245388800       0.0%    100.0%      0.0%
 flops    13 x     5 x   256           7492925440       0.0%    100.0%      0.0%
 flops     5 x    13 x   256           7733340160       0.0%    100.0%      0.0%
 flops    13 x    13 x   256          10444016128       0.0%    100.0%      0.0%
 flops inhomo. stacks                           0       0.0%      0.0%      0.0%
 flops total                        31.915671E+09       0.0%    100.0%      0.0%
 flops max/rank                     31.915671E+09       0.0%    100.0%      0.0%
 matmuls inhomo. stacks                         0       0.0%      0.0%      0.0%
 matmuls total                            1066142       0.0%    100.0%      0.0%
 number of processed stacks                 42140       0.0%    100.0%      0.0%
 average stack size                                     0.0      25.3       0.0
 marketing flops                   333.927416E+09
 -------------------------------------------------------------------------------
 # multiplications                            301
 max memory usage/rank               3.579347E+09
 # max total images/rank                        1
 # max 3D layers                                1
 # MPI messages exchanged                       0
 MPI messages size (bytes):
  total size                         0.000000E+00
  min size                           0.000000E+00
  max size                           0.000000E+00
  average size                       0.000000E+00
 MPI breakdown and total messages size (bytes):
             size <=      128                   0                        0
       128 < size <=     8192                   0                        0
      8192 < size <=    32768                   0                        0
     32768 < size <=   131072                   0                        0
    131072 < size <=  4194304                   0                        0
   4194304 < size <= 16777216                   0                        0
  16777216 < size                               0                        0
 -------------------------------------------------------------------------------

 MEMORY| Estimated peak process memory [MiB]                                3412

 -------------------------------------------------------------------------------
 -                                                                             -
 -                           R E F E R E N C E S                               -
 -                                                                             -
 -------------------------------------------------------------------------------
 
 CP2K version 7.1, the CP2K developers group (2019).
 CP2K is freely available from https://www.cp2k.org/ .

 Schuett, Ole; Messmer, Peter; Hutter, Juerg; VandeVondele, Joost. 
 Electronic Structure Calculations on Graphics Processing Units, John
 Wiley & Sons, Ltd, 173-190 (2016). 
 GPU-Accelerated Sparse Matrix-Matrix Multiplication for
 Linear Scaling Density Functional Theory.
 https://dx.doi.org/10.1002/9781118670712.ch8

 Borstnik, U; VandeVondele, J; Weber, V; Hutter, J. 
 PARALLEL COMPUTING, 40 (5-6), 47-58 (2014). 
 Sparse matrix multiplication: The distributed block-compressed sparse
 row library.
 https://dx.doi.org/10.1016/j.parco.2014.03.012

 Hutter, J; Iannuzzi, M; Schiffmann, F; VandeVondele, J. 
 WIREs Comput Mol Sci., 4 (1), 15-25 (2014). 
 CP2K: atomistic simulations of condensed matter systems.
 https://dx.doi.org/10.1002/wcms.1159

 Krack, M. 
 THEORETICAL CHEMISTRY ACCOUNTS, 114 (1-3), 145-152 (2005). 
 Pseudopotentials for H to Kr optimized for gradient-corrected
 exchange-correlation functionals.
 https://dx.doi.org/10.1007/s00214-005-0655-y

 VandeVondele, J; Krack, M; Mohamed, F; Parrinello, M; Chassaing, T;
 Hutter, J. COMPUTER PHYSICS COMMUNICATIONS, 167 (2), 103-128 (2005). 
 QUICKSTEP: Fast and accurate density functional calculations using a
 mixed Gaussian and plane waves approach.
 https://dx.doi.org/10.1016/j.cpc.2004.12.014

 Frigo, M; Johnson, SG. 
 PROCEEDINGS OF THE IEEE, 93 (2), 216-231 (2005). 
 The design and implementation of FFTW3.
 https://dx.doi.org/10.1109/JPROC.2004.840301

 Hartwigsen, C; Goedecker, S; Hutter, J. 
 PHYSICAL REVIEW B, 58 (7), 3641-3662 (1998). 
 Relativistic separable dual-space Gaussian pseudopotentials from H to Rn.
 https://dx.doi.org/10.1103/PhysRevB.58.3641

 Lippert, G; Hutter, J; Parrinello, M. 
 MOLECULAR PHYSICS, 92 (3), 477-487 (1997). 
 A hybrid Gaussian and plane wave density functional scheme.
 https://dx.doi.org/10.1080/002689797170220

 Goedecker, S; Teter, M; Hutter, J. 
 PHYSICAL REVIEW B, 54 (3), 1703-1710 (1996). 
 Separable dual-space Gaussian pseudopotentials.
 https://dx.doi.org/10.1103/PhysRevB.54.1703


 -------------------------------------------------------------------------------
 -                                                                             -
 -                                T I M I N G                                  -
 -                                                                             -
 -------------------------------------------------------------------------------
 SUBROUTINE                       CALLS  ASD         SELF TIME        TOTAL TIME
                                MAXIMUM       AVERAGE  MAXIMUM  AVERAGE  MAXIMUM
 CP2K                                 1  1.0    0.137    0.137 2652.944 2652.944
 qs_forces                            1  2.0    0.000    0.000 2651.364 2651.364
 qs_energies                          1  3.0    0.000    0.000 2650.753 2650.753
 scf_env_do_scf                       1  4.0    0.000    0.000 2648.741 2648.741
 scf_env_do_scf_inner_loop          300  5.0    4.610    4.610 2648.741 2648.741
 qs_scf_new_mos                     300  6.0    0.010    0.010 2019.102 2019.102
 eigensolver                        300  7.0    0.050    0.050 1982.852 1982.852
 cp_fm_syevd                        300  8.0 1285.359 1285.359 1287.229 1287.229
 cp_fm_cholesky_restore             900  8.0  694.467  694.467  694.467  694.467
 gspace_mixing                      299  6.0    4.633    4.633  334.716  334.716
 broyden_mixing                     299  7.0  302.071  302.071  302.073  302.073
 qs_ks_update_qs_env                300  6.0    0.003    0.003  144.855  144.855
 rebuild_ks_matrix                  301  7.0    0.001    0.001  144.826  144.826
 qs_ks_build_kohn_sham_matrix       301  8.0    0.072    0.072  144.825  144.825
 qs_rho_update_rho                  301  6.0    0.003    0.003  138.149  138.149
 calculate_rho_elec                 301  7.0   67.698   67.698  138.146  138.146
 pw_transfer                       3912  9.9    0.331    0.331  136.067  136.067
 fft_wrap_pw1pw2                   3310 10.9    0.034    0.034  131.565  131.565
 fft_wrap_pw1pw2_70                1504 11.2   15.119   15.119  120.641  120.641
 density_rs2pw                      301  8.0    0.030    0.030   67.748   67.748
 fft3d_s                           3311 12.9   61.459   61.459   61.493   61.493
 -------------------------------------------------------------------------------

 The number of warnings for this run is : 1
 
 -------------------------------------------------------------------------------
  **** **** ******  **  PROGRAM ENDED AT                 2021-01-18 13:07:10.744
 ***** ** ***  *** **   PROGRAM RAN ON                                   gnode52
 **    ****   ******    PROGRAM RAN BY                               mayank.modi
 ***** **    ** ** **   PROGRAM PROCESS ID                                  7394
  **** **  *******  **  PROGRAM STOPPED IN /home/mayank.modi/ab-initio-thermodyn
                                           amics-of-water/mayank/cp2k_energy_cal
                                           culations
