 DBCSR| CPU Multiplication driver                                           XSMM
 DBCSR| Multrec recursion limit                                              512
 DBCSR| Multiplication stack size                                           1000
 DBCSR| Maximum elements for images                                    UNLIMITED
 DBCSR| Multiplicative factor virtual images                                   1
 DBCSR| Use multiplication densification                                       T
 DBCSR| Multiplication size stacks                                             3


  **** **** ******  **  PROGRAM STARTED AT               2021-01-11 09:30:56.600
 ***** ** ***  *** **   PROGRAM STARTED ON                               gnode23
 **    ****   ******    PROGRAM STARTED BY                           mayank.modi
 ***** **    ** ** **   PROGRAM PROCESS ID                                 37766
  **** **  *******  **  PROGRAM STARTED IN /home/mayank.modi/ab-initio-thermodyn
                                           amics-of-water/mayank/cp2k_energy_cal
                                           culations

 CP2K| version string:                                          CP2K version 7.1
 CP2K| source code revision number:                                  git:e635599
 CP2K| cp2kflags: omp libint fftw3 libxc xsmm spglib                            
 CP2K| is freely available from                            https://www.cp2k.org/
 CP2K| Program compiled at                          Mon Dec 23 19:23:12 CET 2019
 CP2K| Program compiled on                                                pc9404
 CP2K| Program compiled for                                Linux-x86-64-gfortran
 CP2K| Data directory path                                        /opt/cp2k/data
 CP2K| Input file name                   input_training_correct_cell/input164.in

 GLOBAL| Force Environment number                                              1
 GLOBAL| Basis set file name                                           BASIS_SET
 GLOBAL| Potential file name                                      GTH_POTENTIALS
 GLOBAL| MM Potential file name                                     MM_POTENTIAL
 GLOBAL| Coordinate file name                                      __STD_INPUT__
 GLOBAL| Method name                                                        CP2K
 GLOBAL| Project name                                                   H2O_bulk
 GLOBAL| Preferred FFT library                                             FFTW3
 GLOBAL| Preferred diagonalization lib.                                       SL
 GLOBAL| Run type                                                   ENERGY_FORCE
 GLOBAL| All-to-all communication in single precision                          F
 GLOBAL| FFTs using library dependent lengths                                  F
 GLOBAL| Global print level                                                  LOW
 GLOBAL| MPI I/O enabled                                                       T
 GLOBAL| Total number of message passing processes                             1
 GLOBAL| Number of threads for this process                                   36
 GLOBAL| This output is from process                                           0
 GLOBAL| CPU model name                Intel(R) Xeon(R) CPU E5-2640 v4 @ 2.40GHz
 GLOBAL| CPUID                                                              1002
 GLOBAL| Compiled for CPUID                                                    0

 MEMORY| system memory details [Kb]
 MEMORY|                        rank 0           min           max       average
 MEMORY| MemTotal            131897972     131897972     131897972     131897972
 MEMORY| MemFree             125541404     125541404     125541404     125541404
 MEMORY| Buffers               1895532       1895532       1895532       1895532
 MEMORY| Cached                1377648       1377648       1377648       1377648
 MEMORY| Slab                  2610212       2610212       2610212       2610212
 MEMORY| SReclaimable          1580412       1580412       1580412       1580412
 MEMORY| MemLikelyFree       130394996     130394996     130394996     130394996


 GENERATE|  Preliminary Number of Bonds generated:                             0
 GENERATE|  Achieved consistency in connectivity generation.

 *******************************************************************************
 *******************************************************************************
 **                                                                           **
 **     #####                         ##              ##                      **
 **    ##   ##            ##          ##              ##                      **
 **   ##     ##                       ##            ######                    **
 **   ##     ##  ##   ##  ##   #####  ##  ##   ####   ##    #####    #####    **
 **   ##     ##  ##   ##  ##  ##      ## ##   ##      ##   ##   ##  ##   ##   **
 **   ##  ## ##  ##   ##  ##  ##      ####     ###    ##   ######   ######    **
 **    ##  ###   ##   ##  ##  ##      ## ##      ##   ##   ##       ##        **
 **     #######   #####   ##   #####  ##  ##  ####    ##    #####   ##        **
 **           ##                                                    ##        **
 **                                                                           **
 **                                                ... make the atoms dance   **
 **                                                                           **
 **            Copyright (C) by CP2K developers group (2000 - 2019)           **
 **                                                                           **
 *******************************************************************************


 TOTAL NUMBERS AND MAXIMUM NUMBERS

  Total number of            - Atomic kinds:                                   2
                             - Atoms:                                        192
                             - Shell sets:                                   384
                             - Shells:                                       704
                             - Primitive Cartesian functions:                960
                             - Cartesian basis functions:                   1536
                             - Spherical basis functions:                   1472

  Maximum angular momentum of- Orbital basis functions:                        2
                             - Local part of the GTH pseudopotential:          2
                             - Non-local part of the GTH pseudopotential:      0


 SCF PARAMETERS         Density guess:                                    ATOMIC
                        --------------------------------------------------------
                        max_scf:                                             300
                        max_scf_history:                                       0
                        max_diis:                                              4
                        --------------------------------------------------------
                        eps_scf:                                        1.00E-07
                        eps_scf_history:                                0.00E+00
                        eps_diis:                                       1.00E-01
                        eps_eigval:                                     1.00E-05
                        --------------------------------------------------------
                        level_shift [a.u.]:                                 0.00
                        --------------------------------------------------------
                        Mixing method:                            BROYDEN_MIXING
                                                charge density mixing in g-space
                        --------------------------------------------------------
                        No outer SCF

 Number of electrons:                                                        512
 Number of occupied orbitals:                                                256
 Number of molecular orbitals:                                               256

 Number of orbital functions:                                               1472
 Number of independent orbital functions:                                   1472

 Extrapolation method: initial_guess


 SCF WAVEFUNCTION OPTIMIZATION

  Step     Update method      Time    Convergence         Total energy    Change
  ------------------------------------------------------------------------------
     1 NoMix/Diag. 0.40E+00    7.2     0.59411162     -1064.3340704153 -1.06E+03
     2 Broy./Diag. 0.40E+00    7.9     1.24054850      -998.4155379173  6.59E+01
     3 Broy./Diag. 0.40E+00    8.2     0.67546825     -1254.7982437501 -2.56E+02
     4 Broy./Diag. 0.40E+00    8.1     0.31118872     -1095.1079102807  1.60E+02
     5 Broy./Diag. 0.40E+00    8.4     1.10084106     -1101.7930168288 -6.69E+00
     6 Broy./Diag. 0.40E+00    9.0     1.31336360     -1082.1727355388  1.96E+01
     7 Broy./Diag. 0.40E+00    9.1     0.29393731     -1074.8600899502  7.31E+00
     8 Broy./Diag. 0.40E+00    9.4     0.05640138     -1074.6059090857  2.54E-01
     9 Broy./Diag. 0.40E+00    9.3     0.05791795     -1076.5619917589 -1.96E+00
    10 Broy./Diag. 0.40E+00    9.7     0.05641194     -1076.6687904707 -1.07E-01
    11 Broy./Diag. 0.40E+00    9.6     0.00635483     -1076.4995811994  1.69E-01
    12 Broy./Diag. 0.40E+00   10.3     0.00954882     -1076.4609628678  3.86E-02
    13 Broy./Diag. 0.40E+00    9.7     0.00836738     -1076.5375935048 -7.66E-02
    14 Broy./Diag. 0.40E+00    9.6     0.00488565     -1076.6481054814 -1.11E-01
    15 Broy./Diag. 0.40E+00    9.4     0.00247374     -1076.5561844140  9.19E-02
    16 Broy./Diag. 0.40E+00    9.3     0.00237320     -1076.5801239979 -2.39E-02
    17 Broy./Diag. 0.40E+00    9.5     0.00149564     -1076.6249447792 -4.48E-02
    18 Broy./Diag. 0.40E+00    9.5     0.00185471     -1076.5523570556  7.26E-02
    19 Broy./Diag. 0.40E+00    9.5     0.00133728     -1076.6146234629 -6.23E-02
    20 Broy./Diag. 0.40E+00    9.4     0.00104900     -1076.6026238895  1.20E-02
    21 Broy./Diag. 0.40E+00    9.7     0.00093385     -1076.5914461858  1.12E-02
    22 Broy./Diag. 0.40E+00    9.5     0.00117925     -1076.5857040404  5.74E-03
    23 Broy./Diag. 0.40E+00    9.3     0.00067389     -1076.5783391187  7.36E-03
    24 Broy./Diag. 0.40E+00    9.2     0.00029765     -1076.5929654726 -1.46E-02
    25 Broy./Diag. 0.40E+00    9.5     0.00026174     -1076.5895501291  3.42E-03
    26 Broy./Diag. 0.40E+00    9.4     0.00027797     -1076.5830010700  6.55E-03
    27 Broy./Diag. 0.40E+00    9.5     0.00021267     -1076.5949619114 -1.20E-02
    28 Broy./Diag. 0.40E+00    9.6     0.00010098     -1076.5926893571  2.27E-03
    29 Broy./Diag. 0.40E+00    9.6     0.00013437     -1076.5893325184  3.36E-03
    30 Broy./Diag. 0.40E+00    9.7     0.00014987     -1076.5945969286 -5.26E-03
    31 Broy./Diag. 0.40E+00    9.4     0.00010241     -1076.5915052410  3.09E-03
    32 Broy./Diag. 0.40E+00    9.3     0.00011153     -1076.5904740778  1.03E-03
    33 Broy./Diag. 0.40E+00    9.2     0.00008235     -1076.5905082273 -3.41E-05
    34 Broy./Diag. 0.40E+00    9.7     0.00008014     -1076.5912251480 -7.17E-04
    35 Broy./Diag. 0.40E+00    9.4     0.00005298     -1076.5919353013 -7.10E-04
    36 Broy./Diag. 0.40E+00    9.6     0.00003949     -1076.5914564490  4.79E-04
    37 Broy./Diag. 0.40E+00    9.6     0.00004806     -1076.5904014278  1.06E-03
    38 Broy./Diag. 0.40E+00    9.6     0.00002452     -1076.5921313007 -1.73E-03
    39 Broy./Diag. 0.40E+00    9.4     0.00002214     -1076.5921013772  2.99E-05
    40 Broy./Diag. 0.40E+00    9.5     0.00002791     -1076.5911634880  9.38E-04
    41 Broy./Diag. 0.40E+00    9.6     0.00001353     -1076.5918644201 -7.01E-04
    42 Broy./Diag. 0.40E+00    9.3     0.00001568     -1076.5918818753 -1.75E-05
    43 Broy./Diag. 0.40E+00    9.5     0.00001210     -1076.5917236214  1.58E-04
    44 Broy./Diag. 0.40E+00    9.5     0.00000896     -1076.5916579559  6.57E-05
    45 Broy./Diag. 0.40E+00    9.6     0.00000558     -1076.5916615985 -3.64E-06
    46 Broy./Diag. 0.40E+00    9.6     0.00000359     -1076.5917123024 -5.07E-05
    47 Broy./Diag. 0.40E+00    9.6     0.00000326     -1076.5917653583 -5.31E-05
    48 Broy./Diag. 0.40E+00    9.3     0.00000238     -1076.5916461386  1.19E-04
    49 Broy./Diag. 0.40E+00    9.5     0.00000192     -1076.5916889455 -4.28E-05
    50 Broy./Diag. 0.40E+00    9.8     0.00000288     -1076.5917492832 -6.03E-05
    51 Broy./Diag. 0.40E+00    9.7     0.00000230     -1076.5916869818  6.23E-05
    52 Broy./Diag. 0.40E+00    9.6     0.00000150     -1076.5916994378 -1.25E-05
    53 Broy./Diag. 0.40E+00    9.5     0.00000168     -1076.5917209547 -2.15E-05
    54 Broy./Diag. 0.40E+00    9.4     0.00000135     -1076.5917199221  1.03E-06
    55 Broy./Diag. 0.40E+00    9.4     0.00000096     -1076.5917113543  8.57E-06
    56 Broy./Diag. 0.40E+00    9.5     0.00000080     -1076.5917079802  3.37E-06
    57 Broy./Diag. 0.40E+00    9.2     0.00000070     -1076.5917046021  3.38E-06
    58 Broy./Diag. 0.40E+00    8.8     0.00000048     -1076.5917276972 -2.31E-05
    59 Broy./Diag. 0.40E+00    9.0     0.00000045     -1076.5917139770  1.37E-05
    60 Broy./Diag. 0.40E+00    9.1     0.00000047     -1076.5917050468  8.93E-06
    61 Broy./Diag. 0.40E+00    9.5     0.00000057     -1076.5917201062 -1.51E-05
    62 Broy./Diag. 0.40E+00    9.3     0.00000029     -1076.5917178855  2.22E-06
    63 Broy./Diag. 0.40E+00    9.5     0.00000043     -1076.5917118831  6.00E-06
    64 Broy./Diag. 0.40E+00    9.6     0.00000033     -1076.5917127771 -8.94E-07
    65 Broy./Diag. 0.40E+00    9.4     0.00000020     -1076.5917147380 -1.96E-06
    66 Broy./Diag. 0.40E+00    9.3     0.00000018     -1076.5917140603  6.78E-07
    67 Broy./Diag. 0.40E+00    9.4     0.00000011     -1076.5917144469 -3.87E-07
    68 Broy./Diag. 0.40E+00    9.5     0.00000011     -1076.5917116275  2.82E-06
    69 Broy./Diag. 0.40E+00    9.3     0.00000009     -1076.5917145793 -2.95E-06

  *** SCF run converged in    69 steps ***


  Electronic density on regular grids:       -512.0000033330       -0.0000033330
  Core density on regular grids:              512.0000345558        0.0000345558
  Total charge density on r-space grids:        0.0000312227
  Total charge density g-space grids:           0.0000312227

  Overlap energy of the core charge distribution:               0.00000000000000
  Self energy of the core charge distribution:              -2838.21791979120962
  Core Hamiltonian energy:                                    759.57889842822806
  Hartree energy:                                            1240.89469698027187
  Exchange-correlation energy:                               -238.84739019662359

  Total energy:                                             -1076.59171457933326

 ENERGY| Total FORCE_EVAL ( QS ) energy (a.u.):            -1076.591714553848306


 ATOMIC FORCES in [a.u.]

 # Atom   Kind   Element          X              Y              Z
      1      1      O          -0.00626763     0.07037475     0.05329218
      2      2      H           0.05766316    -0.04820151     0.03716988
      3      2      H          -0.05024308    -0.06044306    -0.06126205
      4      1      O          -0.09171892    -0.04374531     0.01757648
      5      2      H           0.02467873     0.05429044     0.05081755
      6      2      H           0.06270827    -0.01128751    -0.02992727
      7      1      O          -0.05394408    -0.03937616    -0.06527121
      8      2      H           0.02371654     0.00587175     0.07713751
      9      2      H           0.05574088     0.05901951    -0.02075652
     10      1      O          -0.04015242     0.03876332    -0.07163899
     11      2      H           0.03570495     0.04605750     0.06440677
     12      2      H           0.03829224    -0.06202815    -0.00691406
     13      1      O          -0.05997137     0.06376932    -0.04421423
     14      2      H          -0.01971614    -0.01575553     0.08354901
     15      2      H           0.04060100    -0.07488089    -0.03175359
     16      1      O           0.06506935     0.02361999    -0.06274214
     17      2      H          -0.04394650    -0.06978258    -0.01177180
     18      2      H          -0.02191835     0.05093380     0.04498993
     19      1      O           0.00510312     0.01225138     0.08739050
     20      2      H          -0.03399722    -0.06433251    -0.04354449
     21      2      H           0.05974120     0.02663177    -0.04186027
     22      1      O           0.02859051    -0.00815906    -0.06016809
     23      2      H          -0.02324867     0.05212555     0.05945353
     24      2      H          -0.00326565    -0.07443035     0.02454860
     25      1      O          -0.00717758    -0.05914203    -0.08827756
     26      2      H          -0.03429835     0.06410207     0.02545928
     27      2      H           0.04451189    -0.02434061     0.07821696
     28      1      O           0.03337982     0.00737099    -0.09241396
     29      2      H          -0.05950675    -0.02676128     0.01970676
     30      2      H           0.03798937     0.02641351     0.04844443
     31      1      O          -0.04048034    -0.05094493    -0.04358828
     32      2      H          -0.04635801     0.04705838     0.04715996
     33      2      H           0.07519361     0.00623921     0.02727755
     34      1      O           0.04931514    -0.08828777    -0.03671360
     35      2      H           0.03519152     0.06819603    -0.05096995
     36      2      H          -0.06874814     0.02187004     0.03971680
     37      1      O           0.06643581     0.02794177    -0.08046681
     38      2      H           0.01378846    -0.05426039     0.03249518
     39      2      H          -0.08823071     0.02341730     0.00305533
     40      1      O          -0.06482145     0.00465441     0.02208980
     41      2      H           0.03524400     0.00178257    -0.05714438
     42      2      H           0.05104911    -0.03331489     0.06106982
     43      1      O          -0.02185264     0.03429792    -0.02323955
     44      2      H          -0.00256400     0.03965640     0.08500025
     45      2      H           0.05242208    -0.04867489    -0.01718111
     46      1      O          -0.03164605    -0.06532647    -0.05366137
     47      2      H          -0.01605444     0.02843940     0.07332653
     48      2      H           0.08512565     0.00604729     0.00784238
     49      1      O          -0.02884793    -0.08238418     0.03130387
     50      2      H           0.01664656     0.00414711    -0.08591598
     51      2      H          -0.02891187     0.05292141     0.03844057
     52      1      O          -0.07307136    -0.04818150    -0.04498969
     53      2      H           0.05486454     0.03718680    -0.04266574
     54      2      H          -0.00926618     0.04039867     0.08235076
     55      1      O           0.01819399     0.08013707    -0.05306017
     56      2      H          -0.05830330    -0.04071031    -0.01690037
     57      2      H           0.01406741    -0.02378343     0.07533075
     58      1      O           0.05636691     0.04142279    -0.05783671
     59      2      H          -0.07457355     0.02447345    -0.01291561
     60      2      H          -0.01176738    -0.08408517     0.03518266
     61      1      O          -0.02879072    -0.08844744    -0.03505531
     62      2      H           0.06250819     0.03117911    -0.03525791
     63      2      H          -0.04526136     0.02695844     0.04651546
     64      1      O           0.02190703    -0.05884138    -0.04096555
     65      2      H           0.02308091     0.00320616     0.07644267
     66      2      H          -0.02857967     0.06292077    -0.03613860
     67      1      O           0.00344876     0.06255589    -0.04186893
     68      2      H           0.00259469    -0.06597293     0.00078597
     69      2      H          -0.05037039     0.03636033     0.05964807
     70      1      O           0.02822282    -0.01235498    -0.06109904
     71      2      H          -0.06310825     0.01538734    -0.01754712
     72      2      H           0.04090600     0.01417349     0.07175950
     73      1      O           0.01159645    -0.03976888    -0.04929160
     74      2      H          -0.06201065     0.00910492     0.03540108
     75      2      H           0.06061614     0.01516840    -0.00910008
     76      1      O          -0.01943609    -0.07342120     0.04412602
     77      2      H           0.06058210     0.01396671     0.00880030
     78      2      H          -0.04287824     0.05847503    -0.02044432
     79      1      O          -0.00768832     0.04762620    -0.05976246
     80      2      H          -0.01759429    -0.09275264     0.01132612
     81      2      H           0.03512504     0.04376203     0.06413866
     82      1      O           0.02089875     0.07716255     0.05785242
     83      2      H           0.05003796    -0.07552427    -0.00821184
     84      2      H          -0.07434791     0.00559845    -0.00041953
     85      1      O           0.03245486     0.09140714     0.00038511
     86      2      H          -0.00729772    -0.06083222     0.04525932
     87      2      H           0.00301030    -0.03657754    -0.08020969
     88      1      O          -0.00132046     0.00525655    -0.09286130
     89      2      H          -0.05911670    -0.04177247     0.04461300
     90      2      H           0.05946324     0.01573660     0.03749235
     91      1      O          -0.01928994     0.08062328     0.00537417
     92      2      H           0.06211961    -0.04733321     0.02094459
     93      2      H          -0.05103035    -0.05401211     0.00708723
     94      1      O          -0.01137899     0.06221175     0.03269706
     95      2      H           0.04119130    -0.04835687     0.01984942
     96      2      H          -0.04525969    -0.01344218    -0.05165447
     97      1      O           0.00527287     0.08268184    -0.03068011
     98      2      H          -0.04544950    -0.06565420    -0.04872764
     99      2      H           0.03854544    -0.04278290     0.05233677
    100      1      O          -0.02097114     0.03939848     0.05688496
    101      2      H           0.02505317    -0.07570827     0.01931606
    102      2      H          -0.02071860    -0.00021947    -0.07809906
    103      1      O          -0.01633658    -0.09424690    -0.02823210
    104      2      H          -0.04990986     0.06171391     0.02064180
    105      2      H           0.07884960     0.02213383    -0.00478785
    106      1      O           0.02154506    -0.10585680     0.02992694
    107      2      H          -0.01902467     0.05802046     0.04504336
    108      2      H           0.02648669     0.04736191    -0.04841278
    109      1      O           0.06486103     0.00134516    -0.05698422
    110      2      H           0.00839274    -0.05993769     0.05112615
    111      2      H          -0.07002415     0.02659609     0.01124305
    112      1      O          -0.00892542    -0.09953014    -0.00044591
    113      2      H          -0.02197061     0.06484132     0.03770253
    114      2      H           0.03379922     0.03398680    -0.06294277
    115      1      O          -0.06115337     0.08654172    -0.02432208
    116      2      H           0.04784837    -0.04406361    -0.03936147
    117      2      H           0.00371877     0.00382917     0.06922404
    118      1      O           0.01215458     0.01511917    -0.10657447
    119      2      H           0.04671014     0.02640128     0.03301617
    120      2      H          -0.05285081    -0.03287496     0.04579064
    121      1      O          -0.05754942     0.02415505     0.04127228
    122      2      H          -0.00277305    -0.06918461    -0.00844037
    123      2      H           0.03993556     0.03968607    -0.04750002
    124      1      O          -0.04663603    -0.04747879    -0.07405636
    125      2      H           0.01085695     0.08518154     0.00162739
    126      2      H           0.02814464    -0.03066248     0.07610082
    127      1      O           0.02474721     0.00138561     0.06974241
    128      2      H           0.04160584     0.01335873    -0.07025002
    129      2      H          -0.07782885    -0.03571631    -0.01119490
    130      1      O          -0.05473352     0.04665714    -0.00305794
    131      2      H           0.01191171    -0.07498385     0.05091181
    132      2      H           0.04786556     0.02952135    -0.05614445
    133      1      O          -0.04313829     0.01659323     0.06062745
    134      2      H          -0.04088495     0.00683589    -0.07581807
    135      2      H           0.08331831    -0.04249714    -0.00465710
    136      1      O           0.01539809     0.07722964    -0.07221283
    137      2      H           0.04227304    -0.07212003     0.01287161
    138      2      H          -0.06112906     0.00012196     0.02603713
    139      1      O          -0.03994724     0.06026621    -0.01178909
    140      2      H           0.03727904    -0.03983515    -0.06028867
    141      2      H          -0.00567278    -0.03721464     0.07390142
    142      1      O          -0.05285670    -0.01545190    -0.08930749
    143      2      H           0.06414998    -0.03440006     0.01500255
    144      2      H          -0.04038631     0.03224512     0.06588151
    145      1      O           0.02593730     0.00053467     0.07531783
    146      2      H          -0.05376102     0.07458237    -0.01132898
    147      2      H          -0.00448557    -0.05224066    -0.06255631
    148      1      O           0.08551114    -0.03217422    -0.07748406
    149      2      H          -0.02099644     0.06893070     0.00242878
    150      2      H          -0.04998588    -0.04140016     0.04726610
    151      1      O           0.05656431    -0.07426866    -0.05415131
    152      2      H          -0.05916189    -0.00510412     0.05832852
    153      2      H           0.00096148     0.06428960    -0.02342071
    154      1      O           0.00885854     0.05363792     0.05995787
    155      2      H          -0.05450412    -0.05516817    -0.00566593
    156      2      H           0.06512134    -0.04096015    -0.05189823
    157      1      O           0.02034383    -0.05710867     0.08890227
    158      2      H           0.02213067     0.08054146    -0.02049142
    159      2      H          -0.05742120    -0.03024306    -0.06370310
    160      1      O           0.01889108     0.03630771     0.06375578
    161      2      H          -0.03507189     0.00938508    -0.05049577
    162      2      H           0.00890449    -0.06867023    -0.01574948
    163      1      O          -0.03972846     0.04656832    -0.01772639
    164      2      H           0.02961004    -0.06046643    -0.03560533
    165      2      H           0.02889559    -0.00821609     0.05775057
    166      1      O          -0.00914976     0.02062596    -0.10191369
    167      2      H          -0.06178277     0.03630953     0.05177477
    168      2      H           0.05032277    -0.05135234     0.05342843
    169      1      O          -0.06021113     0.06726188    -0.05782653
    170      2      H          -0.02602389    -0.05954387     0.05194204
    171      2      H           0.06949342     0.00395984    -0.01280776
    172      1      O          -0.05623475    -0.05090248     0.04281945
    173      2      H           0.01726108     0.01649697    -0.08228101
    174      2      H           0.07050965     0.02467084     0.04334049
    175      1      O          -0.05408749    -0.05187260    -0.00368052
    176      2      H           0.00629839     0.03836953    -0.07164947
    177      2      H           0.04642644     0.01905001     0.05519111
    178      1      O           0.06627272    -0.04125200    -0.06113259
    179      2      H          -0.05461082    -0.03984582     0.05659841
    180      2      H          -0.00931195     0.08121636     0.04214936
    181      1      O           0.03356599    -0.03669223     0.07873501
    182      2      H          -0.05177833     0.04786093    -0.03109739
    183      2      H           0.04444020    -0.02528165    -0.05947890
    184      1      O           0.00341175    -0.09903647    -0.01815530
    185      2      H           0.07852215     0.03111754    -0.00250883
    186      2      H          -0.06283532     0.04720662     0.01272240
    187      1      O           0.06659906     0.05192257    -0.04887526
    188      2      H          -0.08135761     0.02146078     0.00343212
    189      2      H           0.01478697    -0.03732537     0.04180325
    190      1      O          -0.02415046    -0.09024137     0.01056847
    191      2      H          -0.01871373     0.03343743    -0.07619915
    192      2      H           0.04477909     0.06295925     0.05403671
 SUM OF ATOMIC FORCES          -0.00356216    -0.32918014    -0.13904583     0.35735976

 -------------------------------------------------------------------------------
 -                                                                             -
 -                                DBCSR STATISTICS                             -
 -                                                                             -
 -------------------------------------------------------------------------------
 COUNTER                                    TOTAL       BLAS       SMM       ACC
 flops     5 x     5 x   256           1355648000       0.0%    100.0%      0.0%
 flops     5 x    13 x   256           1681971200       0.0%    100.0%      0.0%
 flops    13 x     5 x   256           1688960000       0.0%    100.0%      0.0%
 flops    13 x    13 x   256           2174448640       0.0%    100.0%      0.0%
 flops inhomo. stacks                           0       0.0%      0.0%      0.0%
 flops total                         6.901028E+09       0.0%    100.0%      0.0%
 flops max/rank                      6.901028E+09       0.0%    100.0%      0.0%
 matmuls inhomo. stacks                         0       0.0%      0.0%      0.0%
 matmuls total                             232330       0.0%    100.0%      0.0%
 number of processed stacks                  9800       0.0%    100.0%      0.0%
 average stack size                                     0.0      23.7       0.0
 marketing flops                    77.657539E+09
 -------------------------------------------------------------------------------
 # multiplications                             70
 max memory usage/rank               4.978831E+09
 # max total images/rank                        1
 # max 3D layers                                1
 # MPI messages exchanged                       0
 MPI messages size (bytes):
  total size                         0.000000E+00
  min size                           0.000000E+00
  max size                           0.000000E+00
  average size                       0.000000E+00
 MPI breakdown and total messages size (bytes):
             size <=      128                   0                        0
       128 < size <=     8192                   0                        0
      8192 < size <=    32768                   0                        0
     32768 < size <=   131072                   0                        0
    131072 < size <=  4194304                   0                        0
   4194304 < size <= 16777216                   0                        0
  16777216 < size                               0                        0
 -------------------------------------------------------------------------------

 MEMORY| Estimated peak process memory [MiB]                                4743

 -------------------------------------------------------------------------------
 -                                                                             -
 -                           R E F E R E N C E S                               -
 -                                                                             -
 -------------------------------------------------------------------------------
 
 CP2K version 7.1, the CP2K developers group (2019).
 CP2K is freely available from https://www.cp2k.org/ .

 Schuett, Ole; Messmer, Peter; Hutter, Juerg; VandeVondele, Joost. 
 Electronic Structure Calculations on Graphics Processing Units, John
 Wiley & Sons, Ltd, 173-190 (2016). 
 GPU-Accelerated Sparse Matrix-Matrix Multiplication for
 Linear Scaling Density Functional Theory.
 https://dx.doi.org/10.1002/9781118670712.ch8

 Borstnik, U; VandeVondele, J; Weber, V; Hutter, J. 
 PARALLEL COMPUTING, 40 (5-6), 47-58 (2014). 
 Sparse matrix multiplication: The distributed block-compressed sparse
 row library.
 https://dx.doi.org/10.1016/j.parco.2014.03.012

 Hutter, J; Iannuzzi, M; Schiffmann, F; VandeVondele, J. 
 WIREs Comput Mol Sci., 4 (1), 15-25 (2014). 
 CP2K: atomistic simulations of condensed matter systems.
 https://dx.doi.org/10.1002/wcms.1159

 Krack, M. 
 THEORETICAL CHEMISTRY ACCOUNTS, 114 (1-3), 145-152 (2005). 
 Pseudopotentials for H to Kr optimized for gradient-corrected
 exchange-correlation functionals.
 https://dx.doi.org/10.1007/s00214-005-0655-y

 VandeVondele, J; Krack, M; Mohamed, F; Parrinello, M; Chassaing, T;
 Hutter, J. COMPUTER PHYSICS COMMUNICATIONS, 167 (2), 103-128 (2005). 
 QUICKSTEP: Fast and accurate density functional calculations using a
 mixed Gaussian and plane waves approach.
 https://dx.doi.org/10.1016/j.cpc.2004.12.014

 Frigo, M; Johnson, SG. 
 PROCEEDINGS OF THE IEEE, 93 (2), 216-231 (2005). 
 The design and implementation of FFTW3.
 https://dx.doi.org/10.1109/JPROC.2004.840301

 Hartwigsen, C; Goedecker, S; Hutter, J. 
 PHYSICAL REVIEW B, 58 (7), 3641-3662 (1998). 
 Relativistic separable dual-space Gaussian pseudopotentials from H to Rn.
 https://dx.doi.org/10.1103/PhysRevB.58.3641

 Lippert, G; Hutter, J; Parrinello, M. 
 MOLECULAR PHYSICS, 92 (3), 477-487 (1997). 
 A hybrid Gaussian and plane wave density functional scheme.
 https://dx.doi.org/10.1080/002689797170220

 Goedecker, S; Teter, M; Hutter, J. 
 PHYSICAL REVIEW B, 54 (3), 1703-1710 (1996). 
 Separable dual-space Gaussian pseudopotentials.
 https://dx.doi.org/10.1103/PhysRevB.54.1703


 -------------------------------------------------------------------------------
 -                                                                             -
 -                                T I M I N G                                  -
 -                                                                             -
 -------------------------------------------------------------------------------
 SUBROUTINE                       CALLS  ASD         SELF TIME        TOTAL TIME
                                MAXIMUM       AVERAGE  MAXIMUM  AVERAGE  MAXIMUM
 CP2K                                 1  1.0    0.164    0.164  651.124  651.124
 qs_forces                            1  2.0    0.000    0.000  649.195  649.195
 qs_energies                          1  3.0    0.000    0.000  648.434  648.434
 scf_env_do_scf                       1  4.0    0.000    0.000  646.019  646.019
 scf_env_do_scf_inner_loop           69  5.0    0.014    0.014  646.019  646.019
 qs_scf_new_mos                      69  6.0    0.003    0.003  463.661  463.661
 eigensolver                         69  7.0    0.012    0.012  455.624  455.624
 cp_fm_syevd                         69  8.0  294.062  294.062  294.466  294.466
 cp_fm_cholesky_restore             207  8.0  160.916  160.916  160.916  160.916
 gspace_mixing                       68  6.0    1.531    1.531  101.399  101.399
 broyden_mixing                      68  7.0   91.639   91.639   91.639   91.639
 rebuild_ks_matrix                   70  7.0    0.000    0.000   42.840   42.840
 qs_ks_build_kohn_sham_matrix        70  8.0    0.019    0.019   42.840   42.840
 qs_ks_update_qs_env                 69  6.0    0.001    0.001   42.279   42.279
 pw_transfer                        909  9.9    0.084    0.084   39.709   39.709
 qs_rho_update_rho                   70  6.0    0.001    0.001   38.781   38.781
 calculate_rho_elec                  70  7.0   18.383   18.383   38.780   38.780
 fft_wrap_pw1pw2                    769 10.9    0.009    0.009   38.537   38.537
 fft_wrap_pw1pw2_70                 349 11.2    4.262    4.262   35.874   35.874
 density_rs2pw                       70  8.0    0.007    0.007   19.794   19.794
 fft3d_s                            770 12.9   17.334   17.334   17.342   17.342
 pw_poisson_solve                    70  9.0   12.554   12.554   13.706   13.706
 pw_scatter_s                       418 13.2   13.447   13.447   13.447   13.447
 -------------------------------------------------------------------------------

 The number of warnings for this run is : 0
 
 -------------------------------------------------------------------------------
  **** **** ******  **  PROGRAM ENDED AT                 2021-01-11 09:41:47.831
 ***** ** ***  *** **   PROGRAM RAN ON                                   gnode23
 **    ****   ******    PROGRAM RAN BY                               mayank.modi
 ***** **    ** ** **   PROGRAM PROCESS ID                                 37766
  **** **  *******  **  PROGRAM STOPPED IN /home/mayank.modi/ab-initio-thermodyn
                                           amics-of-water/mayank/cp2k_energy_cal
                                           culations
