 DBCSR| CPU Multiplication driver                                           XSMM
 DBCSR| Multrec recursion limit                                              512
 DBCSR| Multiplication stack size                                           1000
 DBCSR| Maximum elements for images                                    UNLIMITED
 DBCSR| Multiplicative factor virtual images                                   1
 DBCSR| Use multiplication densification                                       T
 DBCSR| Multiplication size stacks                                             3


  **** **** ******  **  PROGRAM STARTED AT               2021-02-26 04:11:03.452
 ***** ** ***  *** **   PROGRAM STARTED ON                               gnode75
 **    ****   ******    PROGRAM STARTED BY                           mayank.modi
 ***** **    ** ** **   PROGRAM PROCESS ID                                 33638
  **** **  *******  **  PROGRAM STARTED IN /home/mayank.modi/ab-initio-thermodyn
                                           amics-of-water/mayank/cp2k_energy_cal
                                           culations

 CP2K| version string:                                          CP2K version 7.1
 CP2K| source code revision number:                                  git:e635599
 CP2K| cp2kflags: omp libint fftw3 libxc xsmm spglib                            
 CP2K| is freely available from                            https://www.cp2k.org/
 CP2K| Program compiled at                          Mon Dec 23 19:23:12 CET 2019
 CP2K| Program compiled on                                                pc9404
 CP2K| Program compiled for                                Linux-x86-64-gfortran
 CP2K| Data directory path                                        /opt/cp2k/data
 CP2K| Input file name                   input_training_correct_cell/input297.in

 GLOBAL| Force Environment number                                              1
 GLOBAL| Basis set file name                                           BASIS_SET
 GLOBAL| Potential file name                                      GTH_POTENTIALS
 GLOBAL| MM Potential file name                                     MM_POTENTIAL
 GLOBAL| Coordinate file name                                      __STD_INPUT__
 GLOBAL| Method name                                                        CP2K
 GLOBAL| Project name                                                   H2O_bulk
 GLOBAL| Preferred FFT library                                             FFTW3
 GLOBAL| Preferred diagonalization lib.                                       SL
 GLOBAL| Run type                                                   ENERGY_FORCE
 GLOBAL| All-to-all communication in single precision                          F
 GLOBAL| FFTs using library dependent lengths                                  F
 GLOBAL| Global print level                                                  LOW
 GLOBAL| MPI I/O enabled                                                       T
 GLOBAL| Total number of message passing processes                             1
 GLOBAL| Number of threads for this process                                   36
 GLOBAL| This output is from process                                           0
 GLOBAL| CPU model name                Intel(R) Xeon(R) CPU E5-2640 v4 @ 2.40GHz
 GLOBAL| CPUID                                                              1002
 GLOBAL| Compiled for CPUID                                                    0

 MEMORY| system memory details [Kb]
 MEMORY|                        rank 0           min           max       average
 MEMORY| MemTotal            131893432     131893432     131893432     131893432
 MEMORY| MemFree             123199040     123199040     123199040     123199040
 MEMORY| Buffers               1045132       1045132       1045132       1045132
 MEMORY| Cached                6254868       6254868       6254868       6254868
 MEMORY| Slab                   959752        959752        959752        959752
 MEMORY| SReclaimable           704740        704740        704740        704740
 MEMORY| MemLikelyFree       131203780     131203780     131203780     131203780


 GENERATE|  Preliminary Number of Bonds generated:                             0
 GENERATE|  Achieved consistency in connectivity generation.

 *******************************************************************************
 *******************************************************************************
 **                                                                           **
 **     #####                         ##              ##                      **
 **    ##   ##            ##          ##              ##                      **
 **   ##     ##                       ##            ######                    **
 **   ##     ##  ##   ##  ##   #####  ##  ##   ####   ##    #####    #####    **
 **   ##     ##  ##   ##  ##  ##      ## ##   ##      ##   ##   ##  ##   ##   **
 **   ##  ## ##  ##   ##  ##  ##      ####     ###    ##   ######   ######    **
 **    ##  ###   ##   ##  ##  ##      ## ##      ##   ##   ##       ##        **
 **     #######   #####   ##   #####  ##  ##  ####    ##    #####   ##        **
 **           ##                                                    ##        **
 **                                                                           **
 **                                                ... make the atoms dance   **
 **                                                                           **
 **            Copyright (C) by CP2K developers group (2000 - 2019)           **
 **                                                                           **
 *******************************************************************************


 TOTAL NUMBERS AND MAXIMUM NUMBERS

  Total number of            - Atomic kinds:                                   2
                             - Atoms:                                        192
                             - Shell sets:                                   384
                             - Shells:                                       704
                             - Primitive Cartesian functions:                960
                             - Cartesian basis functions:                   1536
                             - Spherical basis functions:                   1472

  Maximum angular momentum of- Orbital basis functions:                        2
                             - Local part of the GTH pseudopotential:          2
                             - Non-local part of the GTH pseudopotential:      0


 SCF PARAMETERS         Density guess:                                    ATOMIC
                        --------------------------------------------------------
                        max_scf:                                             300
                        max_scf_history:                                       0
                        max_diis:                                              4
                        --------------------------------------------------------
                        eps_scf:                                        1.00E-07
                        eps_scf_history:                                0.00E+00
                        eps_diis:                                       1.00E-01
                        eps_eigval:                                     1.00E-05
                        --------------------------------------------------------
                        level_shift [a.u.]:                                 0.00
                        --------------------------------------------------------
                        Mixing method:                            BROYDEN_MIXING
                                                charge density mixing in g-space
                        --------------------------------------------------------
                        No outer SCF

 Number of electrons:                                                        512
 Number of occupied orbitals:                                                256
 Number of molecular orbitals:                                               256

 Number of orbital functions:                                               1472
 Number of independent orbital functions:                                   1472

 Extrapolation method: initial_guess


 SCF WAVEFUNCTION OPTIMIZATION

  Step     Update method      Time    Convergence         Total energy    Change
  ------------------------------------------------------------------------------
     1 NoMix/Diag. 0.40E+00    7.1     0.65037953     -1064.1482136748 -1.06E+03
     2 Broy./Diag. 0.40E+00    7.8     1.94873164      -996.9994134244  6.71E+01
     3 Broy./Diag. 0.40E+00    7.9     1.96604257     -1260.5432870879 -2.64E+02
     4 Broy./Diag. 0.40E+00    8.1     1.35134738     -1114.7305415885  1.46E+02
     5 Broy./Diag. 0.40E+00    8.2     1.77358077     -1095.4152363318  1.93E+01
     6 Broy./Diag. 0.40E+00    8.7     1.83077476     -1099.1725508640 -3.76E+00
     7 Broy./Diag. 0.40E+00    8.7     1.65724330     -1098.2552229459  9.17E-01
     8 Broy./Diag. 0.40E+00    8.7     1.90896907     -1086.3702243579  1.19E+01
     9 Broy./Diag. 0.40E+00    9.0     1.42747601     -1077.2204537019  9.15E+00
    10 Broy./Diag. 0.40E+00    9.5     1.78336667     -1076.0527512791  1.17E+00
    11 Broy./Diag. 0.40E+00    9.4     1.84944003     -1078.8925607398 -2.84E+00
    12 Broy./Diag. 0.40E+00    9.2     1.79042053     -1076.2348154614  2.66E+00
    13 Broy./Diag. 0.40E+00    9.3     1.15281269     -1068.8309926435  7.40E+00
    14 Broy./Diag. 0.40E+00    9.3     0.87571372     -1072.3381204133 -3.51E+00
    15 Broy./Diag. 0.40E+00    9.3     1.66089274     -1076.4500004029 -4.11E+00
    16 Broy./Diag. 0.40E+00    9.3     1.11313926     -1079.2137698875 -2.76E+00
    17 Broy./Diag. 0.40E+00    9.2     1.58075349     -1076.9971868005  2.22E+00
    18 Broy./Diag. 0.40E+00    9.4     1.55629373     -1076.5501838725  4.47E-01
    19 Broy./Diag. 0.40E+00    9.3     0.99480038     -1076.6373092219 -8.71E-02
    20 Broy./Diag. 0.40E+00    9.3     1.80487921     -1073.7629714100  2.87E+00
    21 Broy./Diag. 0.40E+00    9.5     1.82704366     -1078.8907470620 -5.13E+00
    22 Broy./Diag. 0.40E+00    9.5     1.72036371     -1078.1992531091  6.91E-01
    23 Broy./Diag. 0.40E+00    9.2     1.69023561     -1078.0535485326  1.46E-01
    24 Broy./Diag. 0.40E+00    9.7     1.49452358     -1075.9898359719  2.06E+00
    25 Broy./Diag. 0.40E+00    9.5     1.67511133     -1075.6342387728  3.56E-01
    26 Broy./Diag. 0.40E+00    9.2     0.97189112     -1076.7784919105 -1.14E+00
    27 Broy./Diag. 0.40E+00    9.0     0.95277741     -1075.8534163089  9.25E-01
    28 Broy./Diag. 0.40E+00    9.1     1.65794165     -1073.8905533850  1.96E+00
    29 Broy./Diag. 0.40E+00    9.3     1.81614180     -1078.3768581506 -4.49E+00
    30 Broy./Diag. 0.40E+00    9.2     1.83030006     -1078.5940150340 -2.17E-01
    31 Broy./Diag. 0.40E+00    9.0     1.68191654     -1074.1384554480  4.46E+00
    32 Broy./Diag. 0.40E+00    9.0     1.68821436     -1077.5336685554 -3.40E+00
    33 Broy./Diag. 0.40E+00    9.2     1.41849088     -1075.4228559990  2.11E+00
    34 Broy./Diag. 0.40E+00    9.4     1.48039949     -1076.4457305232 -1.02E+00
    35 Broy./Diag. 0.40E+00    9.2     1.50181665     -1076.1705992254  2.75E-01
    36 Broy./Diag. 0.40E+00    9.3     1.56628793     -1076.0057794702  1.65E-01
    37 Broy./Diag. 0.40E+00    9.3     1.59226986     -1075.7737514488  2.32E-01
    38 Broy./Diag. 0.40E+00    9.5     1.49812579     -1078.2767249040 -2.50E+00
    39 Broy./Diag. 0.40E+00    9.5     1.69132823     -1074.3930146707  3.88E+00
    40 Broy./Diag. 0.40E+00    9.3     1.67778835     -1078.6551879164 -4.26E+00
    41 Broy./Diag. 0.40E+00    9.6     1.66117792     -1076.5653202096  2.09E+00
    42 Broy./Diag. 0.40E+00    9.6     1.65078021     -1075.6224064514  9.43E-01
    43 Broy./Diag. 0.40E+00    9.5     1.76794343     -1076.8387857038 -1.22E+00
    44 Broy./Diag. 0.40E+00    9.3     1.75784243     -1075.4429809930  1.40E+00
    45 Broy./Diag. 0.40E+00    9.3     1.57830672     -1073.8564598802  1.59E+00
    46 Broy./Diag. 0.40E+00    9.5     1.57915079     -1076.6854156434 -2.83E+00
    47 Broy./Diag. 0.40E+00    9.3     1.06339215     -1074.4789862033  2.21E+00
    48 Broy./Diag. 0.40E+00    9.5     1.45970906     -1076.1792945036 -1.70E+00
    49 Broy./Diag. 0.40E+00    9.5     1.69893936     -1076.0055949942  1.74E-01
    50 Broy./Diag. 0.40E+00    9.5     1.52137115     -1079.9478311324 -3.94E+00
    51 Broy./Diag. 0.40E+00    9.2     1.68605791     -1077.5060459353  2.44E+00
    52 Broy./Diag. 0.40E+00    9.2     1.53413695     -1074.4644904721  3.04E+00
    53 Broy./Diag. 0.40E+00    9.5     1.62588215     -1079.1078512887 -4.64E+00
    54 Broy./Diag. 0.40E+00    9.3     1.81169100     -1078.2290315218  8.79E-01
    55 Broy./Diag. 0.40E+00    9.3     1.83199689     -1078.5289424282 -3.00E-01
    56 Broy./Diag. 0.40E+00    9.7     1.56203545     -1076.2073811394  2.32E+00
    57 Broy./Diag. 0.40E+00    9.5     1.28068810     -1075.7819814452  4.25E-01
    58 Broy./Diag. 0.40E+00    9.3     1.65975944     -1076.0036161397 -2.22E-01
    59 Broy./Diag. 0.40E+00    9.5     1.58152102     -1078.5937021291 -2.59E+00
    60 Broy./Diag. 0.40E+00    9.5     1.46973660     -1076.5467384617  2.05E+00
    61 Broy./Diag. 0.40E+00    9.5     1.66952457     -1074.0318058166  2.51E+00
    62 Broy./Diag. 0.40E+00    9.4     1.68213493     -1078.6640448642 -4.63E+00
    63 Broy./Diag. 0.40E+00    9.3     1.62473598     -1073.8643209416  4.80E+00
    64 Broy./Diag. 0.40E+00    9.3     1.65970634     -1078.3728645879 -4.51E+00
    65 Broy./Diag. 0.40E+00    9.4     1.58054294     -1076.3837801452  1.99E+00
    66 Broy./Diag. 0.40E+00    9.3     1.81966275     -1076.3831254849  6.55E-04
    67 Broy./Diag. 0.40E+00    9.6     1.82075640     -1077.4919244643 -1.11E+00
    68 Broy./Diag. 0.40E+00    9.3     1.12556690     -1076.1245742844  1.37E+00
    69 Broy./Diag. 0.40E+00    9.3     1.42996026     -1076.3523080399 -2.28E-01
    70 Broy./Diag. 0.40E+00    9.5     1.44323415     -1078.5486580104 -2.20E+00
    71 Broy./Diag. 0.40E+00    9.2     1.26536149     -1074.2526277236  4.30E+00
    72 Broy./Diag. 0.40E+00    9.1     1.35828410     -1078.3990983703 -4.15E+00
    73 Broy./Diag. 0.40E+00    9.3     1.68494171     -1080.3917241592 -1.99E+00
    74 Broy./Diag. 0.40E+00    9.3     1.72651927     -1076.5194153022  3.87E+00
    75 Broy./Diag. 0.40E+00    9.3     1.69522218     -1075.5406115764  9.79E-01
    76 Broy./Diag. 0.40E+00    9.3     1.71996424     -1076.1543212490 -6.14E-01
    77 Broy./Diag. 0.40E+00    9.4     0.37817971     -1073.1172688545  3.04E+00
    78 Broy./Diag. 0.40E+00    9.3     1.43284273     -1074.3449276377 -1.23E+00
    79 Broy./Diag. 0.40E+00    9.5     1.82019076     -1076.5509888494 -2.21E+00
    80 Broy./Diag. 0.40E+00    9.5     1.83059666     -1078.4538804073 -1.90E+00
    81 Broy./Diag. 0.40E+00    9.5     1.68183817     -1078.3751857398  7.87E-02
    82 Broy./Diag. 0.40E+00    9.5     1.54656996     -1073.8153815571  4.56E+00
    83 Broy./Diag. 0.40E+00    9.3     0.72167688     -1076.0113732341 -2.20E+00
    84 Broy./Diag. 0.40E+00    9.8     1.39697276     -1076.6947089779 -6.83E-01
    85 Broy./Diag. 0.40E+00    9.3     1.41439610     -1078.5531690163 -1.86E+00
    86 Broy./Diag. 0.40E+00    9.6     0.69206482     -1076.5913308770  1.96E+00
    87 Broy./Diag. 0.40E+00    9.3     1.62636421     -1076.6288743543 -3.75E-02
    88 Broy./Diag. 0.40E+00    9.3     1.46895137     -1075.7314879477  8.97E-01
    89 Broy./Diag. 0.40E+00    9.7     1.70535863     -1075.8945959365 -1.63E-01
    90 Broy./Diag. 0.40E+00    9.4     1.82765022     -1078.3214331744 -2.43E+00
    91 Broy./Diag. 0.40E+00    9.3     1.77774002     -1077.6096900372  7.12E-01
    92 Broy./Diag. 0.40E+00    9.4     1.42565160     -1074.9168347746  2.69E+00
    93 Broy./Diag. 0.40E+00    9.2     1.63123334     -1073.5973125086  1.32E+00
    94 Broy./Diag. 0.40E+00    9.1     1.73440965     -1079.2698341055 -5.67E+00
    95 Broy./Diag. 0.40E+00    9.5     1.73582214     -1077.1594548185  2.11E+00
    96 Broy./Diag. 0.40E+00    9.5     1.51889333     -1076.3491428635  8.10E-01
    97 Broy./Diag. 0.40E+00    9.3     1.57239134     -1075.8244838039  5.25E-01
    98 Broy./Diag. 0.40E+00    9.7     1.66491575     -1075.9639867507 -1.40E-01
    99 Broy./Diag. 0.40E+00    9.3     1.67681258     -1077.9666927078 -2.00E+00
   100 Broy./Diag. 0.40E+00    9.4     0.19407236     -1074.3176342833  3.65E+00
   101 Broy./Diag. 0.40E+00    9.6     1.81042014     -1073.8280640051  4.90E-01
   102 Broy./Diag. 0.40E+00    9.3     1.82737879     -1078.4244412191 -4.60E+00
   103 Broy./Diag. 0.40E+00    9.7     1.46181838     -1076.5536633848  1.87E+00
   104 Broy./Diag. 0.40E+00    9.5     1.55492075     -1073.9115816076  2.64E+00
   105 Broy./Diag. 0.40E+00    9.3     1.53259903     -1078.3177703496 -4.41E+00
   106 Broy./Diag. 0.40E+00    9.5     1.01359046     -1075.9774890898  2.34E+00
   107 Broy./Diag. 0.40E+00    9.3     0.84676383     -1074.3591831861  1.62E+00
   108 Broy./Diag. 0.40E+00    9.5     1.54135843     -1076.0789324466 -1.72E+00
   109 Broy./Diag. 0.40E+00    9.3     1.69697048     -1078.1992593296 -2.12E+00
   110 Broy./Diag. 0.40E+00    9.4     1.76795555     -1075.6726106237  2.53E+00
   111 Broy./Diag. 0.40E+00    9.5     1.68485799     -1078.1037051656 -2.43E+00
   112 Broy./Diag. 0.40E+00    9.5     1.59460349     -1075.5956526234  2.51E+00
   113 Broy./Diag. 0.40E+00    9.5     1.73038343     -1078.3603469312 -2.76E+00
   114 Broy./Diag. 0.40E+00    9.3     1.77648599     -1076.1782624589  2.18E+00
   115 Broy./Diag. 0.40E+00    9.7     1.58023353     -1075.2452811231  9.33E-01
   116 Broy./Diag. 0.40E+00    9.7     1.66227944     -1074.7345426812  5.11E-01
   117 Broy./Diag. 0.40E+00    9.4     1.67131250     -1078.4148291406 -3.68E+00
   118 Broy./Diag. 0.40E+00    9.7     1.80993251     -1074.3775053346  4.04E+00
   119 Broy./Diag. 0.40E+00    9.6     1.81975458     -1080.4443554040 -6.07E+00
   120 Broy./Diag. 0.40E+00    9.2     1.81969772     -1073.8104325664  6.63E+00
   121 Broy./Diag. 0.40E+00    9.2     1.82360183     -1078.5360549243 -4.73E+00
   122 Broy./Diag. 0.40E+00    9.5     1.65324220     -1076.6730051106  1.86E+00
   123 Broy./Diag. 0.40E+00    9.5     1.14327795     -1076.4017273820  2.71E-01
   124 Broy./Diag. 0.40E+00    9.4     1.51807288     -1076.4189705693 -1.72E-02
   125 Broy./Diag. 0.40E+00    9.3     1.59527792     -1075.7534095142  6.66E-01
   126 Broy./Diag. 0.40E+00    9.4     1.65300851     -1076.5972920996 -8.44E-01
   127 Broy./Diag. 0.40E+00    9.2     1.65758877     -1075.7673715208  8.30E-01
   128 Broy./Diag. 0.40E+00    9.5     1.70188020     -1078.3129028374 -2.55E+00
   129 Broy./Diag. 0.40E+00    9.5     0.39419468     -1074.5572853832  3.76E+00
   130 Broy./Diag. 0.40E+00    9.3     1.82063318     -1073.7962969747  7.61E-01
   131 Broy./Diag. 0.40E+00    9.0     1.82476989     -1078.7605884618 -4.96E+00
   132 Broy./Diag. 0.40E+00    9.0     1.45800984     -1075.5686266983  3.19E+00
   133 Broy./Diag. 0.40E+00    9.5     1.57862881     -1073.6588473744  1.91E+00
   134 Broy./Diag. 0.40E+00    9.5     1.47454196     -1077.9443679925 -4.29E+00
   135 Broy./Diag. 0.40E+00    9.5     1.57984370     -1076.7939280149  1.15E+00
   136 Broy./Diag. 0.40E+00    9.4     1.35566154     -1073.9398816883  2.85E+00
   137 Broy./Diag. 0.40E+00    9.3     1.66734556     -1076.8788112342 -2.94E+00
   138 Broy./Diag. 0.40E+00    9.7     1.69107465     -1078.3249375888 -1.45E+00
   139 Broy./Diag. 0.40E+00    9.4     1.81159933     -1076.9412671480  1.38E+00
   140 Broy./Diag. 0.40E+00    9.5     1.83218640     -1077.3654564326 -4.24E-01
   141 Broy./Diag. 0.40E+00    9.4     1.41379485     -1073.8656540916  3.50E+00
   142 Broy./Diag. 0.40E+00    9.3     1.48663984     -1078.7749652527 -4.91E+00
   143 Broy./Diag. 0.40E+00    9.3     1.35646857     -1076.5821069415  2.19E+00
   144 Broy./Diag. 0.40E+00    9.3     1.30589851     -1076.0979687964  4.84E-01
   145 Broy./Diag. 0.40E+00    9.3     1.81826357     -1075.5797139597  5.18E-01
   146 Broy./Diag. 0.40E+00    9.3     1.82392040     -1077.5055467662 -1.93E+00
   147 Broy./Diag. 0.40E+00    9.1     1.66645260     -1074.7453614429  2.76E+00
   148 Broy./Diag. 0.40E+00    8.9     1.68369130     -1077.7001440422 -2.95E+00
   149 Broy./Diag. 0.40E+00    8.8     1.77939473     -1077.3206931059  3.79E-01
   150 Broy./Diag. 0.40E+00    8.9     1.31633661     -1075.3556576095  1.97E+00
   151 Broy./Diag. 0.40E+00    8.8     1.77574441     -1075.7836645390 -4.28E-01
   152 Broy./Diag. 0.40E+00    9.6     1.78291858     -1075.5181582240  2.66E-01
   153 Broy./Diag. 0.40E+00    9.2     1.41679698     -1076.3015860699 -7.83E-01
   154 Broy./Diag. 0.40E+00    8.9     1.47235929     -1075.6120158009  6.90E-01
   155 Broy./Diag. 0.40E+00    8.9     1.58394469     -1076.0053456637 -3.93E-01
   156 Broy./Diag. 0.40E+00    8.8     1.81214940     -1076.2471215890 -2.42E-01
   157 Broy./Diag. 0.40E+00    9.5     1.84318760     -1078.8696482526 -2.62E+00
   158 Broy./Diag. 0.40E+00    9.5     1.70904468     -1073.8265211482  5.04E+00
   159 Broy./Diag. 0.40E+00    9.8     1.68719934     -1077.8247160094 -4.00E+00
   160 Broy./Diag. 0.40E+00    9.5     1.18576690     -1076.5267236114  1.30E+00
   161 Broy./Diag. 0.40E+00    9.3     1.62802654     -1073.9769592320  2.55E+00
   162 Broy./Diag. 0.40E+00    9.0     1.63458981     -1077.6876729891 -3.71E+00
   163 Broy./Diag. 0.40E+00    8.8     1.59671893     -1078.0378825932 -3.50E-01
   164 Broy./Diag. 0.40E+00    9.0     1.82077960     -1076.4548328540  1.58E+00
   165 Broy./Diag. 0.40E+00    8.7     1.84105723     -1077.9455975066 -1.49E+00
   166 Broy./Diag. 0.40E+00    8.7     1.53559370     -1076.0082330720  1.94E+00
   167 Broy./Diag. 0.40E+00    9.0     1.33941912     -1076.7209392076 -7.13E-01
   168 Broy./Diag. 0.40E+00    8.7     0.20982080     -1074.4356917620  2.29E+00
   169 Broy./Diag. 0.40E+00    9.1     1.39740465     -1073.8763403655  5.59E-01
   170 Broy./Diag. 0.40E+00    9.4     1.40244000     -1076.6262370404 -2.75E+00
   171 Broy./Diag. 0.40E+00    9.6     1.67394141     -1076.6314459383 -5.21E-03
   172 Broy./Diag. 0.40E+00    9.4     1.69072151     -1078.1342746825 -1.50E+00
   173 Broy./Diag. 0.40E+00    9.4     1.61531205     -1077.0668475557  1.07E+00
   174 Broy./Diag. 0.40E+00    9.7     1.81649773     -1076.0177181391  1.05E+00
   175 Broy./Diag. 0.40E+00    9.2     1.83241779     -1077.3505235603 -1.33E+00
   176 Broy./Diag. 0.40E+00    9.0     1.43149947     -1073.6129279201  3.74E+00
   177 Broy./Diag. 0.40E+00    9.2     1.41225272     -1076.5426916293 -2.93E+00
   178 Broy./Diag. 0.40E+00    9.4     1.20399909     -1076.4795363219  6.32E-02
   179 Broy./Diag. 0.40E+00    9.6     1.26568307     -1078.6967581061 -2.22E+00
   180 Broy./Diag. 0.40E+00    9.0     1.68517004     -1078.2571763604  4.40E-01
   181 Broy./Diag. 0.40E+00    8.9     1.52995304     -1075.9560311796  2.30E+00
   182 Broy./Diag. 0.40E+00    9.5     1.48048924     -1074.4266330993  1.53E+00
   183 Broy./Diag. 0.40E+00    9.6     1.76521264     -1076.7653153587 -2.34E+00
   184 Broy./Diag. 0.40E+00    9.5     1.46238832     -1077.7891454365 -1.02E+00
   185 Broy./Diag. 0.40E+00    9.3     1.66229108     -1075.8714088918  1.92E+00
   186 Broy./Diag. 0.40E+00    9.6     1.81935360     -1074.3231636700  1.55E+00
   187 Broy./Diag. 0.40E+00    9.5     1.83818096     -1080.3500655328 -6.03E+00
   188 Broy./Diag. 0.40E+00    9.2     1.83818624     -1078.1486677922  2.20E+00
   189 Broy./Diag. 0.40E+00    9.5     1.83616506     -1077.8648801502  2.84E-01
   190 Broy./Diag. 0.40E+00    9.2     1.53119262     -1076.4636268046  1.40E+00
   191 Broy./Diag. 0.40E+00    9.0     1.52016465     -1076.0155570863  4.48E-01
   192 Broy./Diag. 0.40E+00    8.9     1.48514476     -1076.4504539429 -4.35E-01
   193 Broy./Diag. 0.40E+00    9.0     1.66036388     -1073.5768589979  2.87E+00
   194 Broy./Diag. 0.40E+00    9.4     1.63988268     -1079.0755701847 -5.50E+00
   195 Broy./Diag. 0.40E+00    9.7     1.45825669     -1076.3469805759  2.73E+00
   196 Broy./Diag. 0.40E+00    9.6     1.81662216     -1074.1418285237  2.21E+00
   197 Broy./Diag. 0.40E+00    9.5     1.81962722     -1077.8066880550 -3.66E+00
   198 Broy./Diag. 0.40E+00    9.4     1.68225310     -1077.4756718189  3.31E-01
   199 Broy./Diag. 0.40E+00    9.3     1.54801250     -1076.4950656025  9.81E-01
   200 Broy./Diag. 0.40E+00    9.1     1.45627344     -1076.2626976910  2.32E-01
   201 Broy./Diag. 0.40E+00    9.2     1.61063292     -1076.3356859051 -7.30E-02
   202 Broy./Diag. 0.40E+00    9.3     1.70218692     -1076.4937822823 -1.58E-01
   203 Broy./Diag. 0.40E+00    9.4     1.71781891     -1076.5289970272 -3.52E-02
   204 Broy./Diag. 0.40E+00    9.4     1.48967286     -1073.2085275133  3.32E+00
   205 Broy./Diag. 0.40E+00    9.4     1.47971888     -1078.8397354470 -5.63E+00
   206 Broy./Diag. 0.40E+00    9.2     1.46982734     -1075.8717929333  2.97E+00
   207 Broy./Diag. 0.40E+00    9.5     1.55101461     -1076.0957881450 -2.24E-01
   208 Broy./Diag. 0.40E+00    9.3     1.43519738     -1076.6509232408 -5.55E-01
   209 Broy./Diag. 0.40E+00    8.9     1.45781789     -1076.7191990500 -6.83E-02
   210 Broy./Diag. 0.40E+00    9.0     1.43007240     -1075.9392153256  7.80E-01
   211 Broy./Diag. 0.40E+00    9.5     1.66938894     -1076.2989333153 -3.60E-01
   212 Broy./Diag. 0.40E+00    9.4     1.72499944     -1076.7249468174 -4.26E-01
   213 Broy./Diag. 0.40E+00    9.5     1.51071929     -1075.6914205527  1.03E+00
   214 Broy./Diag. 0.40E+00    9.4     1.52446917     -1075.3656716002  3.26E-01
   215 Broy./Diag. 0.40E+00    9.3     1.82418014     -1074.0755359533  1.29E+00
   216 Broy./Diag. 0.40E+00    9.4     1.11208861     -1080.5182843166 -6.44E+00
   217 Broy./Diag. 0.40E+00    9.5     1.82907422     -1078.6110967762  1.91E+00
   218 Broy./Diag. 0.40E+00    9.3     1.68690424     -1077.7847578351  8.26E-01
   219 Broy./Diag. 0.40E+00    9.2     1.54417068     -1076.3806437080  1.40E+00
   220 Broy./Diag. 0.40E+00    9.6     1.42820717     -1073.7732905137  2.61E+00
   221 Broy./Diag. 0.40E+00    9.3     1.43724428     -1076.9077525567 -3.13E+00
   222 Broy./Diag. 0.40E+00    9.0     1.65386752     -1074.3409356710  2.57E+00
   223 Broy./Diag. 0.40E+00    9.2     1.65808741     -1075.9031603405 -1.56E+00
   224 Broy./Diag. 0.40E+00    9.5     1.54756283     -1075.8354168602  6.77E-02
   225 Broy./Diag. 0.40E+00    9.2     1.81014055     -1076.5985106982 -7.63E-01
   226 Broy./Diag. 0.40E+00    8.9     1.83176757     -1078.0062143657 -1.41E+00
   227 Broy./Diag. 0.40E+00    8.9     1.70727354     -1078.1818499798 -1.76E-01
   228 Broy./Diag. 0.40E+00    8.7     1.53958318     -1073.8130294263  4.37E+00
   229 Broy./Diag. 0.40E+00    8.9     1.55361817     -1076.5126678600 -2.70E+00
   230 Broy./Diag. 0.40E+00    9.5     1.26578828     -1074.3858525754  2.13E+00
   231 Broy./Diag. 0.40E+00    9.4     1.54564302     -1075.9342268600 -1.55E+00
   232 Broy./Diag. 0.40E+00    9.5     1.11038644     -1076.0004760188 -6.62E-02
   233 Broy./Diag. 0.40E+00    9.5     1.65576927     -1074.3964810693  1.60E+00
   234 Broy./Diag. 0.40E+00    9.5     1.66689629     -1078.1540691245 -3.76E+00
   235 Broy./Diag. 0.40E+00    9.4     0.97773957     -1076.4830672916  1.67E+00
   236 Broy./Diag. 0.40E+00    9.3     1.83334807     -1078.1328674516 -1.65E+00
   237 Broy./Diag. 0.40E+00    9.4     1.47950356     -1075.4814527206  2.65E+00
   238 Broy./Diag. 0.40E+00    9.5     1.69790539     -1073.5791596159  1.90E+00
   239 Broy./Diag. 0.40E+00    9.4     1.72322020     -1078.4903883818 -4.91E+00
   240 Broy./Diag. 0.40E+00    9.4     1.65698598     -1076.3464843691  2.14E+00
   241 Broy./Diag. 0.40E+00    9.7     1.69652833     -1077.3356408015 -9.89E-01
   242 Broy./Diag. 0.40E+00    9.6     1.71578278     -1076.4916752498  8.44E-01
   243 Broy./Diag. 0.40E+00    9.8     0.90787690     -1076.4142687576  7.74E-02
   244 Broy./Diag. 0.40E+00    9.6     1.82152054     -1073.9755612982  2.44E+00
   245 Broy./Diag. 0.40E+00    9.3     1.83918124     -1078.1944082396 -4.22E+00
   246 Broy./Diag. 0.40E+00    9.4     1.54247545     -1076.2023867338  1.99E+00
   247 Broy./Diag. 0.40E+00    9.3     1.48334308     -1076.1866247083  1.58E-02
   248 Broy./Diag. 0.40E+00    9.4     1.53158819     -1076.9253870956 -7.39E-01
   249 Broy./Diag. 0.40E+00    9.3     1.68085806     -1075.7644246872  1.16E+00
   250 Broy./Diag. 0.40E+00    9.0     1.73794267     -1075.5960915860  1.68E-01
   251 Broy./Diag. 0.40E+00    9.0     1.55496273     -1075.5652177711  3.09E-02
   252 Broy./Diag. 0.40E+00    9.5     1.64096582     -1076.8376691237 -1.27E+00
   253 Broy./Diag. 0.40E+00    9.7     1.79368925     -1075.7010493688  1.14E+00
   254 Broy./Diag. 0.40E+00    9.4     1.80215202     -1075.4266661653  2.74E-01
   255 Broy./Diag. 0.40E+00    9.5     1.67290840     -1074.4448371368  9.82E-01
   256 Broy./Diag. 0.40E+00    9.5     1.68054098     -1080.4226544642 -5.98E+00
   257 Broy./Diag. 0.40E+00    9.4     1.82730410     -1078.3049170476  2.12E+00
   258 Broy./Diag. 0.40E+00    9.4     1.68448907     -1078.1283520020  1.77E-01
   259 Broy./Diag. 0.40E+00    9.3     1.61415306     -1075.9554681289  2.17E+00
   260 Broy./Diag. 0.40E+00    9.1     1.60385481     -1073.7783284028  2.18E+00
   261 Broy./Diag. 0.40E+00    9.0     1.53296607     -1077.0105963362 -3.23E+00
   262 Broy./Diag. 0.40E+00    9.4     1.56716964     -1076.6384029278  3.72E-01
   263 Broy./Diag. 0.40E+00    9.3     1.66287072     -1076.7976722740 -1.59E-01
   264 Broy./Diag. 0.40E+00    9.5     1.67848828     -1078.5414162760 -1.74E+00
   265 Broy./Diag. 0.40E+00    9.5     1.43874360     -1076.3181493473  2.22E+00
   266 Broy./Diag. 0.40E+00    9.2     1.82410524     -1073.6465568040  2.67E+00
   267 Broy./Diag. 0.40E+00    9.0     1.82344054     -1078.5388431699 -4.89E+00
   268 Broy./Diag. 0.40E+00    9.4     1.44681798     -1076.7843545103  1.75E+00
   269 Broy./Diag. 0.40E+00    9.6     1.65432829     -1074.5306614368  2.25E+00
   270 Broy./Diag. 0.40E+00    9.6     1.72268547     -1077.7801221781 -3.25E+00
   271 Broy./Diag. 0.40E+00    9.3     0.94167730     -1079.3562923929 -1.58E+00
   272 Broy./Diag. 0.40E+00    9.5     1.60474031     -1075.5141745516  3.84E+00
   273 Broy./Diag. 0.40E+00    9.4     1.81390724     -1076.0836992655 -5.70E-01
   274 Broy./Diag. 0.40E+00    9.3     1.81568234     -1078.5522023164 -2.47E+00
   275 Broy./Diag. 0.40E+00    9.4     1.67595328     -1078.5775984103 -2.54E-02
   276 Broy./Diag. 0.40E+00    9.6     1.39755482     -1075.7154617409  2.86E+00
   277 Broy./Diag. 0.40E+00    9.4     1.49109236     -1076.0062677852 -2.91E-01
   278 Broy./Diag. 0.40E+00    9.4     1.28058733     -1073.4430110998  2.56E+00
   279 Broy./Diag. 0.40E+00    9.5     0.69549725     -1076.8894910005 -3.45E+00
   280 Broy./Diag. 0.40E+00    9.2     1.60150864     -1076.1476165446  7.42E-01
   281 Broy./Diag. 0.40E+00    9.1     1.62401949     -1077.0047230495 -8.57E-01
   282 Broy./Diag. 0.40E+00    9.2     1.15469260     -1075.9816531582  1.02E+00
   283 Broy./Diag. 0.40E+00    9.4     1.81562216     -1076.3421611944 -3.61E-01
   284 Broy./Diag. 0.40E+00    9.5     1.82913396     -1078.7967028305 -2.45E+00
   285 Broy./Diag. 0.40E+00    9.2     1.68547243     -1074.4407289378  4.36E+00
   286 Broy./Diag. 0.40E+00    9.1     1.68546322     -1076.9227662898 -2.48E+00
   287 Broy./Diag. 0.40E+00    9.2     1.68301956     -1073.5246835833  3.40E+00
   288 Broy./Diag. 0.40E+00    9.2     1.81614660     -1079.2783782934 -5.75E+00
   289 Broy./Diag. 0.40E+00    9.4     1.82909686     -1078.3588633783  9.20E-01
   290 Broy./Diag. 0.40E+00    9.5     1.59710033     -1076.1489865070  2.21E+00
   291 Broy./Diag. 0.40E+00    9.5     1.40723195     -1073.8263560198  2.32E+00
   292 Broy./Diag. 0.40E+00    9.6     1.41082749     -1076.2867820939 -2.46E+00
   293 Broy./Diag. 0.40E+00    9.6     1.81865373     -1074.4073940008  1.88E+00
   294 Broy./Diag. 0.40E+00    9.7     1.82569041     -1078.0859473358 -3.68E+00
   295 Broy./Diag. 0.40E+00    9.5     1.66014357     -1076.2012447747  1.88E+00
   296 Broy./Diag. 0.40E+00    9.4     1.67926369     -1077.3885801079 -1.19E+00
   297 Broy./Diag. 0.40E+00    9.6     1.67717109     -1076.6748707022  7.14E-01
   298 Broy./Diag. 0.40E+00    9.4     1.81522594     -1077.8703767529 -1.20E+00
   299 Broy./Diag. 0.40E+00    9.6     1.82160131     -1077.1974505795  6.73E-01
   300 Broy./Diag. 0.40E+00    9.3     1.04354998     -1074.7872041025  2.41E+00

  Leaving inner SCF loop after reaching   300 steps.


  Electronic density on regular grids:       -511.9994457510        0.0005542490
  Core density on regular grids:              512.0007731808        0.0007731808
  Total charge density on r-space grids:        0.0013274298
  Total charge density g-space grids:           0.0013274298

  Overlap energy of the core charge distribution:               0.00000000000000
  Self energy of the core charge distribution:              -2838.21791979120962
  Core Hamiltonian energy:                                    761.25397223839843
  Hartree energy:                                            1240.85659000530632
  Exchange-correlation energy:                               -238.67984655503324

  Total energy:                                             -1074.78720410253800

 *** WARNING in qs_scf.F:542 :: SCF run NOT converged ***


 ENERGY| Total FORCE_EVAL ( QS ) energy (a.u.):            -1075.077971763239248


 ATOMIC FORCES in [a.u.]

 # Atom   Kind   Element          X              Y              Z
      1      1      O          -0.08561995     0.17946510    -0.18433744
      2      2      H          -0.03895479    -0.04302360     0.07379681
      3      2      H           0.11648708    -0.01902401     0.02918096
      4      1      O          -0.04207600     0.09411071     0.11866522
      5      2      H          -0.05163211    -0.05109070    -0.04159633
      6      2      H           0.09486969    -0.04190878    -0.06346484
      7      1      O          -0.04085143     0.06638308    -0.00232040
      8      2      H           0.01151113    -0.00750138     0.07194119
      9      2      H          -0.10893558     0.01472879     0.00630775
     10      1      O          -0.12694672     0.07398914     0.01009362
     11      2      H          -0.00695887    -0.02077363    -0.05224245
     12      2      H           0.07389786     0.00869314     0.03185173
     13      1      O           0.11367297     0.15574441    -0.09197355
     14      2      H           0.02078513    -0.05434937    -0.05510290
     15      2      H          -0.00730532     0.02085834     0.08362967
     16      1      O          -0.07969266    -0.02265419     0.12987872
     17      2      H          -0.00110236     0.00465304    -0.05657980
     18      2      H          -0.02647022     0.02274817     0.03383119
     19      1      O          -0.02804255     0.12835738     0.10194599
     20      2      H          -0.01951015     0.01118907    -0.01404654
     21      2      H           0.08419009    -0.04955270    -0.00645843
     22      1      O          -0.13545024     0.01920064     0.09891701
     23      2      H           0.04057390    -0.06564813    -0.02507511
     24      2      H           0.02302243     0.02956809    -0.00670989
     25      1      O           0.04670267     0.00455773    -0.15520655
     26      2      H          -0.00462768     0.04589625     0.02452952
     27      2      H          -0.01344349    -0.02544541     0.02994157
     28      1      O          -0.01060179    -0.15330056    -0.00629041
     29      2      H           0.07389311     0.06514071    -0.10027271
     30      2      H           0.03620145     0.05928939     0.02709281
     31      1      O           0.13765923     0.01629173     0.04459975
     32      2      H          -0.06275812     0.02781581     0.08510466
     33      2      H          -0.05064900    -0.10652066    -0.05098652
     34      1      O          -0.06286150    -0.02147869    -0.10620973
     35      2      H           0.04248173     0.03683620     0.00149027
     36      2      H           0.01186044    -0.02045254     0.06045007
     37      1      O           0.15522041    -0.10743398     0.01398830
     38      2      H          -0.02673274     0.04625654    -0.10420796
     39      2      H          -0.10283468    -0.00553550     0.05239668
     40      1      O           0.05196603     0.08326109    -0.14051730
     41      2      H          -0.01572193     0.09534704     0.03837734
     42      2      H          -0.00906423    -0.07082997    -0.01516292
     43      1      O           0.14149520     0.06504274    -0.04561772
     44      2      H          -0.03974342    -0.04546874    -0.02793003
     45      2      H          -0.00489866     0.01321312     0.09657640
     46      1      O          -0.03340667     0.02606908    -0.05770096
     47      2      H          -0.00005088     0.08388667     0.04405394
     48      2      H           0.03078610    -0.02272386     0.10573549
     49      1      O          -0.10969337    -0.04553660     0.04563293
     50      2      H           0.08049496    -0.05511869     0.00517990
     51      2      H          -0.07522294     0.01104251    -0.05153648
     52      1      O           0.06514353    -0.09751675    -0.14918045
     53      2      H           0.08512865     0.10145559    -0.03541376
     54      2      H          -0.05350554    -0.06002791     0.07908758
     55      1      O           0.02467567     0.15510987    -0.10648430
     56      2      H          -0.00647515    -0.08374913     0.08750110
     57      2      H           0.09013920     0.01848053    -0.05096272
     58      1      O          -0.05976880     0.02869553    -0.01590475
     59      2      H          -0.07262758    -0.04513881     0.01703793
     60      2      H           0.08623013    -0.00056949    -0.02655056
     61      1      O          -0.03450464    -0.04741410    -0.07089816
     62      2      H           0.04970028     0.03417489    -0.06356948
     63      2      H           0.09185557     0.02568120     0.01177354
     64      1      O           0.10592038     0.11705866     0.00603865
     65      2      H           0.01020228    -0.10169302    -0.02706491
     66      2      H          -0.01325760     0.04675539    -0.10505698
     67      1      O           0.11912090    -0.00360374     0.09802762
     68      2      H          -0.00309165    -0.03517342    -0.08192578
     69      2      H          -0.08841386     0.03399200     0.03344154
     70      1      O           0.05057913    -0.16186162     0.01651919
     71      2      H           0.00487569     0.10793722     0.00430111
     72      2      H          -0.00792886    -0.02399667    -0.03719601
     73      1      O           0.15749648     0.02826520     0.01506858
     74      2      H          -0.05311540    -0.07138238    -0.01320787
     75      2      H          -0.02443017    -0.05864667     0.11726799
     76      1      O          -0.22445039     0.13495676     0.05444296
     77      2      H          -0.00868604     0.00035124     0.08968522
     78      2      H           0.11630134    -0.04061553    -0.04052126
     79      1      O           0.13203557    -0.11889252     0.13374669
     80      2      H           0.04876222     0.09895507    -0.03066190
     81      2      H          -0.09631382    -0.05314011    -0.06026275
     82      1      O           0.04406310     0.11658981    -0.01322195
     83      2      H           0.01007574    -0.02391928     0.08753439
     84      2      H           0.06830384    -0.07069529    -0.08317001
     85      1      O          -0.13755273     0.14248077     0.05116866
     86      2      H           0.06093231     0.01956513     0.10245368
     87      2      H           0.01459521    -0.00543215    -0.01715172
     88      1      O           0.16282722    -0.03040442    -0.05753745
     89      2      H          -0.07900300    -0.02469380     0.04637215
     90      2      H          -0.04580187     0.01134746    -0.05912978
     91      1      O          -0.08814750     0.12289386    -0.04489341
     92      2      H           0.08364441    -0.02334958    -0.03938106
     93      2      H          -0.09312314    -0.04388481     0.08816594
     94      1      O          -0.00160398     0.12718776    -0.13652367
     95      2      H          -0.02098004     0.02225634     0.06976651
     96      2      H           0.09202450    -0.07056991     0.05532664
     97      1      O          -0.01887405    -0.01088728    -0.06127256
     98      2      H           0.01088275    -0.08949444     0.01141925
     99      2      H           0.00961928     0.09321006    -0.03895662
    100      1      O          -0.13903097     0.12967411    -0.09769343
    101      2      H          -0.02450838    -0.05884328     0.04914879
    102      2      H           0.10226042     0.00089698     0.01597248
    103      1      O          -0.12444299    -0.05391644     0.01711036
    104      2      H           0.04096226     0.04302688    -0.10355799
    105      2      H           0.07398017    -0.08171024     0.06812030
    106      1      O          -0.10930500    -0.04794526     0.02099978
    107      2      H          -0.00077539     0.00906206     0.05498930
    108      2      H           0.08689755     0.04709320     0.00239848
    109      1      O           0.00572945    -0.13777576    -0.10466336
    110      2      H           0.09263975    -0.06191282     0.05793143
    111      2      H          -0.00874692     0.06702177    -0.01859176
    112      1      O          -0.01611432    -0.08315033     0.05217617
    113      2      H           0.01439174    -0.05789302    -0.00622609
    114      2      H          -0.00003512     0.03170260    -0.02709990
    115      1      O           0.07484376     0.01598805     0.01414572
    116      2      H           0.02548261    -0.06608622    -0.05165987
    117      2      H           0.04308418    -0.04217072     0.08631570
    118      1      O          -0.07592739     0.10038025    -0.08290898
    119      2      H           0.04738314     0.02638986     0.08701755
    120      2      H          -0.02005518     0.00184508    -0.05784741
    121      1      O           0.01645507     0.00150687     0.05538213
    122      2      H           0.00418206    -0.07325247     0.08816976
    123      2      H          -0.01079676     0.00531825    -0.05726683
    124      1      O          -0.08161233     0.06015947     0.01689469
    125      2      H          -0.08402160    -0.05432932    -0.05755530
    126      2      H           0.06493806    -0.05490902     0.07948188
    127      1      O          -0.11548694     0.00948281    -0.03224557
    128      2      H           0.03827588    -0.02692499     0.00488038
    129      2      H           0.02841139    -0.02932619    -0.06538276
    130      1      O          -0.09732899    -0.05414615     0.15772234
    131      2      H           0.09137243    -0.02694126    -0.04683699
    132      2      H          -0.03822870    -0.05121803    -0.07792511
    133      1      O           0.04248459    -0.08588507    -0.01636448
    134      2      H           0.04044612     0.07630286     0.03502696
    135      2      H           0.03927647    -0.03360696     0.04992324
    136      1      O           0.11143534     0.07790206    -0.09539139
    137      2      H          -0.01936935    -0.01151826    -0.03209021
    138      2      H          -0.04037469     0.04881862     0.02338938
    139      1      O          -0.13494831     0.05292985     0.12602975
    140      2      H           0.05705148    -0.04644329    -0.08277223
    141      2      H           0.02074377     0.01946227    -0.00908940
    142      1      O          -0.15397211     0.07471909    -0.02850138
    143      2      H           0.03484260     0.06646863    -0.01070020
    144      2      H          -0.03337329    -0.07572265     0.05532036
    145      1      O          -0.09377379    -0.05419873    -0.01270140
    146      2      H          -0.01846690    -0.07224265    -0.01476161
    147      2      H           0.00550010     0.05159486     0.07424088
    148      1      O          -0.08418470     0.10051892    -0.05047880
    149      2      H           0.07101825    -0.03733560    -0.00352997
    150      2      H           0.04172539     0.02608717    -0.02885919
    151      1      O          -0.04143656    -0.07445089    -0.05821681
    152      2      H           0.02717503     0.02052812     0.05467762
    153      2      H           0.08580823    -0.03722457     0.03319778
    154      1      O           0.04303407     0.09953511    -0.03313851
    155      2      H          -0.09385592    -0.02462428    -0.01346510
    156      2      H          -0.01281936    -0.01523274     0.11316051
    157      1      O           0.08757094    -0.06361391    -0.03814727
    158      2      H          -0.08234422     0.02684688    -0.07100355
    159      2      H          -0.06744301    -0.09551887     0.05058082
    160      1      O           0.07803579     0.13881249     0.05122855
    161      2      H           0.07352865    -0.00539060     0.07844548
    162      2      H          -0.08118294    -0.01997255    -0.04609795
    163      1      O          -0.12901900     0.03871440     0.03284265
    164      2      H          -0.00960252     0.09099029    -0.03177176
    165      2      H           0.04998788    -0.03274477    -0.01398422
    166      1      O          -0.03388707     0.13070988     0.00162189
    167      2      H          -0.00077564    -0.00562484     0.05889298
    168      2      H          -0.03072515    -0.03643258     0.00544965
    169      1      O           0.03422863    -0.01422345    -0.08303536
    170      2      H          -0.00537610    -0.13618563    -0.01752353
    171      2      H          -0.06275875     0.06093961     0.01478258
    172      1      O           0.01836422    -0.11973480     0.15083717
    173      2      H           0.03526791    -0.01302468    -0.07366929
    174      2      H           0.05457393     0.04189886     0.02167492
    175      1      O           0.01038517    -0.06100099     0.12015198
    176      2      H          -0.08991267    -0.01003024    -0.00711706
    177      2      H           0.06415112     0.07557197    -0.07530400
    178      1      O           0.09799026     0.09092652     0.02501416
    179      2      H          -0.12400288     0.03708001    -0.01158867
    180      2      H           0.02550657    -0.08394726     0.02167493
    181      1      O          -0.12812834     0.05222693    -0.01487673
    182      2      H           0.00200897    -0.02768317     0.11346488
    183      2      H           0.10995423    -0.04450515    -0.02424803
    184      1      O           0.03911741    -0.05863998    -0.03331617
    185      2      H          -0.00538067     0.10707924    -0.01892431
    186      2      H           0.07892201    -0.01850043    -0.09996899
    187      1      O          -0.05237337     0.16160698     0.09496258
    188      2      H          -0.02335741    -0.00192465    -0.09430457
    189      2      H           0.06385356    -0.03278896     0.02728166
    190      1      O          -0.12667043    -0.01252622     0.08082674
    191      2      H          -0.02254096    -0.01236370    -0.02774749
    192      2      H          -0.03731172    -0.04326356    -0.04510310
 SUM OF ATOMIC FORCES           0.13888490     0.38215318     0.05199278     0.40991867

 -------------------------------------------------------------------------------
 -                                                                             -
 -                                DBCSR STATISTICS                             -
 -                                                                             -
 -------------------------------------------------------------------------------
 COUNTER                                    TOTAL       BLAS       SMM       ACC
 flops     5 x     5 x   256           4569420800       0.0%    100.0%      0.0%
 flops    13 x     5 x   256           5629711360       0.0%    100.0%      0.0%
 flops     5 x    13 x   256           5649745920       0.0%    100.0%      0.0%
 flops    13 x    13 x   256           7917658112       0.0%    100.0%      0.0%
 flops inhomo. stacks                           0       0.0%      0.0%      0.0%
 flops total                        23.766536E+09       0.0%    100.0%      0.0%
 flops max/rank                     23.766536E+09       0.0%    100.0%      0.0%
 matmuls inhomo. stacks                         0       0.0%      0.0%      0.0%
 matmuls total                             787416       0.0%    100.0%      0.0%
 number of processed stacks                 42140       0.0%    100.0%      0.0%
 average stack size                                     0.0      18.7       0.0
 marketing flops                   333.927416E+09
 -------------------------------------------------------------------------------
 # multiplications                            301
 max memory usage/rank               5.061681E+09
 # max total images/rank                        1
 # max 3D layers                                1
 # MPI messages exchanged                       0
 MPI messages size (bytes):
  total size                         0.000000E+00
  min size                           0.000000E+00
  max size                           0.000000E+00
  average size                       0.000000E+00
 MPI breakdown and total messages size (bytes):
             size <=      128                   0                        0
       128 < size <=     8192                   0                        0
      8192 < size <=    32768                   0                        0
     32768 < size <=   131072                   0                        0
    131072 < size <=  4194304                   0                        0
   4194304 < size <= 16777216                   0                        0
  16777216 < size                               0                        0
 -------------------------------------------------------------------------------

 MEMORY| Estimated peak process memory [MiB]                                4832

 -------------------------------------------------------------------------------
 -                                                                             -
 -                           R E F E R E N C E S                               -
 -                                                                             -
 -------------------------------------------------------------------------------
 
 CP2K version 7.1, the CP2K developers group (2019).
 CP2K is freely available from https://www.cp2k.org/ .

 Schuett, Ole; Messmer, Peter; Hutter, Juerg; VandeVondele, Joost. 
 Electronic Structure Calculations on Graphics Processing Units, John
 Wiley & Sons, Ltd, 173-190 (2016). 
 GPU-Accelerated Sparse Matrix-Matrix Multiplication for
 Linear Scaling Density Functional Theory.
 https://dx.doi.org/10.1002/9781118670712.ch8

 Borstnik, U; VandeVondele, J; Weber, V; Hutter, J. 
 PARALLEL COMPUTING, 40 (5-6), 47-58 (2014). 
 Sparse matrix multiplication: The distributed block-compressed sparse
 row library.
 https://dx.doi.org/10.1016/j.parco.2014.03.012

 Hutter, J; Iannuzzi, M; Schiffmann, F; VandeVondele, J. 
 WIREs Comput Mol Sci., 4 (1), 15-25 (2014). 
 CP2K: atomistic simulations of condensed matter systems.
 https://dx.doi.org/10.1002/wcms.1159

 Krack, M. 
 THEORETICAL CHEMISTRY ACCOUNTS, 114 (1-3), 145-152 (2005). 
 Pseudopotentials for H to Kr optimized for gradient-corrected
 exchange-correlation functionals.
 https://dx.doi.org/10.1007/s00214-005-0655-y

 VandeVondele, J; Krack, M; Mohamed, F; Parrinello, M; Chassaing, T;
 Hutter, J. COMPUTER PHYSICS COMMUNICATIONS, 167 (2), 103-128 (2005). 
 QUICKSTEP: Fast and accurate density functional calculations using a
 mixed Gaussian and plane waves approach.
 https://dx.doi.org/10.1016/j.cpc.2004.12.014

 Frigo, M; Johnson, SG. 
 PROCEEDINGS OF THE IEEE, 93 (2), 216-231 (2005). 
 The design and implementation of FFTW3.
 https://dx.doi.org/10.1109/JPROC.2004.840301

 Hartwigsen, C; Goedecker, S; Hutter, J. 
 PHYSICAL REVIEW B, 58 (7), 3641-3662 (1998). 
 Relativistic separable dual-space Gaussian pseudopotentials from H to Rn.
 https://dx.doi.org/10.1103/PhysRevB.58.3641

 Lippert, G; Hutter, J; Parrinello, M. 
 MOLECULAR PHYSICS, 92 (3), 477-487 (1997). 
 A hybrid Gaussian and plane wave density functional scheme.
 https://dx.doi.org/10.1080/002689797170220

 Goedecker, S; Teter, M; Hutter, J. 
 PHYSICAL REVIEW B, 54 (3), 1703-1710 (1996). 
 Separable dual-space Gaussian pseudopotentials.
 https://dx.doi.org/10.1103/PhysRevB.54.1703


 -------------------------------------------------------------------------------
 -                                                                             -
 -                                T I M I N G                                  -
 -                                                                             -
 -------------------------------------------------------------------------------
 SUBROUTINE                       CALLS  ASD         SELF TIME        TOTAL TIME
                                MAXIMUM       AVERAGE  MAXIMUM  AVERAGE  MAXIMUM
 CP2K                                 1  1.0    0.171    0.171 2800.195 2800.195
 qs_forces                            1  2.0    0.000    0.000 2797.954 2797.954
 qs_energies                          1  3.0    0.000    0.000 2797.203 2797.203
 scf_env_do_scf                       1  4.0    0.001    0.001 2794.819 2794.819
 scf_env_do_scf_inner_loop          300  5.0    0.061    0.061 2794.818 2794.818
 qs_scf_new_mos                     300  6.0    0.011    0.011 1969.604 1969.604
 eigensolver                        300  7.0    0.047    0.047 1939.839 1939.839
 cp_fm_syevd                        300  8.0 1264.771 1264.771 1266.502 1266.502
 cp_fm_cholesky_restore             900  8.0  672.254  672.254  672.254  672.254
 gspace_mixing                      299  6.0    6.777    6.777  462.695  462.695
 broyden_mixing                     299  7.0  418.264  418.264  418.267  418.267
 rebuild_ks_matrix                  301  7.0    0.001    0.001  185.999  185.999
 qs_ks_build_kohn_sham_matrix       301  8.0    0.075    0.075  185.998  185.998
 qs_ks_update_qs_env                300  6.0    0.003    0.003  185.682  185.682
 pw_transfer                       3912  9.9    0.314    0.314  182.877  182.877
 fft_wrap_pw1pw2                   3310 10.9    0.040    0.040  177.935  177.935
 qs_rho_update_rho                  301  6.0    0.003    0.003  175.897  175.897
 calculate_rho_elec                 301  7.0   81.893   81.893  175.894  175.894
 fft_wrap_pw1pw2_70                1504 11.2   18.220   18.220  163.547  163.547
 density_rs2pw                      301  8.0    0.028    0.028   91.419   91.419
 fft3d_s                           3311 12.9   82.983   82.983   83.009   83.009
 pw_scatter_s                      1804 13.2   60.883   60.883   60.883   60.883
 pw_poisson_solve                   301  9.0   53.878   53.878   58.610   58.610
 -------------------------------------------------------------------------------

 The number of warnings for this run is : 1
 
 -------------------------------------------------------------------------------
  **** **** ******  **  PROGRAM ENDED AT                 2021-02-26 04:57:43.816
 ***** ** ***  *** **   PROGRAM RAN ON                                   gnode75
 **    ****   ******    PROGRAM RAN BY                               mayank.modi
 ***** **    ** ** **   PROGRAM PROCESS ID                                 33638
  **** **  *******  **  PROGRAM STOPPED IN /home/mayank.modi/ab-initio-thermodyn
                                           amics-of-water/mayank/cp2k_energy_cal
                                           culations
