 DBCSR| CPU Multiplication driver                                           XSMM
 DBCSR| Multrec recursion limit                                              512
 DBCSR| Multiplication stack size                                           1000
 DBCSR| Maximum elements for images                                    UNLIMITED
 DBCSR| Multiplicative factor virtual images                                   1
 DBCSR| Use multiplication densification                                       T
 DBCSR| Multiplication size stacks                                             3


  **** **** ******  **  PROGRAM STARTED AT               2021-02-25 07:51:04.715
 ***** ** ***  *** **   PROGRAM STARTED ON                               gnode75
 **    ****   ******    PROGRAM STARTED BY                           mayank.modi
 ***** **    ** ** **   PROGRAM PROCESS ID                                 20203
  **** **  *******  **  PROGRAM STARTED IN /home/mayank.modi/ab-initio-thermodyn
                                           amics-of-water/mayank/cp2k_energy_cal
                                           culations

 CP2K| version string:                                          CP2K version 7.1
 CP2K| source code revision number:                                  git:e635599
 CP2K| cp2kflags: omp libint fftw3 libxc xsmm spglib                            
 CP2K| is freely available from                            https://www.cp2k.org/
 CP2K| Program compiled at                          Mon Dec 23 19:23:12 CET 2019
 CP2K| Program compiled on                                                pc9404
 CP2K| Program compiled for                                Linux-x86-64-gfortran
 CP2K| Data directory path                                        /opt/cp2k/data
 CP2K| Input file name                   input_training_correct_cell/input185.in

 GLOBAL| Force Environment number                                              1
 GLOBAL| Basis set file name                                           BASIS_SET
 GLOBAL| Potential file name                                      GTH_POTENTIALS
 GLOBAL| MM Potential file name                                     MM_POTENTIAL
 GLOBAL| Coordinate file name                                      __STD_INPUT__
 GLOBAL| Method name                                                        CP2K
 GLOBAL| Project name                                                   H2O_bulk
 GLOBAL| Preferred FFT library                                             FFTW3
 GLOBAL| Preferred diagonalization lib.                                       SL
 GLOBAL| Run type                                                   ENERGY_FORCE
 GLOBAL| All-to-all communication in single precision                          F
 GLOBAL| FFTs using library dependent lengths                                  F
 GLOBAL| Global print level                                                  LOW
 GLOBAL| MPI I/O enabled                                                       T
 GLOBAL| Total number of message passing processes                             1
 GLOBAL| Number of threads for this process                                   36
 GLOBAL| This output is from process                                           0
 GLOBAL| CPU model name                Intel(R) Xeon(R) CPU E5-2640 v4 @ 2.40GHz
 GLOBAL| CPUID                                                              1002
 GLOBAL| Compiled for CPUID                                                    0

 MEMORY| system memory details [Kb]
 MEMORY|                        rank 0           min           max       average
 MEMORY| MemTotal            131893432     131893432     131893432     131893432
 MEMORY| MemFree             123199868     123199868     123199868     123199868
 MEMORY| Buffers               1045040       1045040       1045040       1045040
 MEMORY| Cached                6252832       6252832       6252832       6252832
 MEMORY| Slab                   958028        958028        958028        958028
 MEMORY| SReclaimable           703516        703516        703516        703516
 MEMORY| MemLikelyFree       131201256     131201256     131201256     131201256


 GENERATE|  Preliminary Number of Bonds generated:                             0
 GENERATE|  Achieved consistency in connectivity generation.

 *******************************************************************************
 *******************************************************************************
 **                                                                           **
 **     #####                         ##              ##                      **
 **    ##   ##            ##          ##              ##                      **
 **   ##     ##                       ##            ######                    **
 **   ##     ##  ##   ##  ##   #####  ##  ##   ####   ##    #####    #####    **
 **   ##     ##  ##   ##  ##  ##      ## ##   ##      ##   ##   ##  ##   ##   **
 **   ##  ## ##  ##   ##  ##  ##      ####     ###    ##   ######   ######    **
 **    ##  ###   ##   ##  ##  ##      ## ##      ##   ##   ##       ##        **
 **     #######   #####   ##   #####  ##  ##  ####    ##    #####   ##        **
 **           ##                                                    ##        **
 **                                                                           **
 **                                                ... make the atoms dance   **
 **                                                                           **
 **            Copyright (C) by CP2K developers group (2000 - 2019)           **
 **                                                                           **
 *******************************************************************************


 TOTAL NUMBERS AND MAXIMUM NUMBERS

  Total number of            - Atomic kinds:                                   2
                             - Atoms:                                        192
                             - Shell sets:                                   384
                             - Shells:                                       704
                             - Primitive Cartesian functions:                960
                             - Cartesian basis functions:                   1536
                             - Spherical basis functions:                   1472

  Maximum angular momentum of- Orbital basis functions:                        2
                             - Local part of the GTH pseudopotential:          2
                             - Non-local part of the GTH pseudopotential:      0


 SCF PARAMETERS         Density guess:                                    ATOMIC
                        --------------------------------------------------------
                        max_scf:                                             300
                        max_scf_history:                                       0
                        max_diis:                                              4
                        --------------------------------------------------------
                        eps_scf:                                        1.00E-07
                        eps_scf_history:                                0.00E+00
                        eps_diis:                                       1.00E-01
                        eps_eigval:                                     1.00E-05
                        --------------------------------------------------------
                        level_shift [a.u.]:                                 0.00
                        --------------------------------------------------------
                        Mixing method:                            BROYDEN_MIXING
                                                charge density mixing in g-space
                        --------------------------------------------------------
                        No outer SCF

 Number of electrons:                                                        512
 Number of occupied orbitals:                                                256
 Number of molecular orbitals:                                               256

 Number of orbital functions:                                               1472
 Number of independent orbital functions:                                   1472

 Extrapolation method: initial_guess


 SCF WAVEFUNCTION OPTIMIZATION

  Step     Update method      Time    Convergence         Total energy    Change
  ------------------------------------------------------------------------------
     1 NoMix/Diag. 0.40E+00    7.1     0.59562160     -1064.3125718034 -1.06E+03
     2 Broy./Diag. 0.40E+00    7.8     1.28583840      -997.6448215735  6.67E+01
     3 Broy./Diag. 0.40E+00    8.0     0.70721820     -1256.9156787279 -2.59E+02
     4 Broy./Diag. 0.40E+00    8.1     0.19854159     -1095.6914871245  1.61E+02
     5 Broy./Diag. 0.40E+00    8.1     0.38983330     -1100.7420396022 -5.05E+00
     6 Broy./Diag. 0.40E+00    8.2     0.20620200     -1073.6359018040  2.71E+01
     7 Broy./Diag. 0.40E+00    8.4     0.06236846     -1074.7001690406 -1.06E+00
     8 Broy./Diag. 0.40E+00    8.6     0.07128213     -1078.5735756371 -3.87E+00
     9 Broy./Diag. 0.40E+00    8.8     0.03270671     -1077.3305344120  1.24E+00
    10 Broy./Diag. 0.40E+00    8.9     0.00851494     -1076.2836332116  1.05E+00
    11 Broy./Diag. 0.40E+00    8.9     0.00679361     -1076.6793669676 -3.96E-01
    12 Broy./Diag. 0.40E+00    9.5     0.00264131     -1076.6618360717  1.75E-02
    13 Broy./Diag. 0.40E+00    9.3     0.00189949     -1076.4967928691  1.65E-01
    14 Broy./Diag. 0.40E+00    9.1     0.00210371     -1076.4709933517  2.58E-02
    15 Broy./Diag. 0.40E+00    8.8     0.00075449     -1076.4606463352  1.03E-02
    16 Broy./Diag. 0.40E+00    9.4     0.00110021     -1076.4881787417 -2.75E-02
    17 Broy./Diag. 0.40E+00    9.3     0.00095370     -1076.5224046024 -3.42E-02
    18 Broy./Diag. 0.40E+00    8.8     0.00077491     -1076.5404743289 -1.81E-02
    19 Broy./Diag. 0.40E+00    8.8     0.00111753     -1076.5334610306  7.01E-03
    20 Broy./Diag. 0.40E+00    8.8     0.00099483     -1076.5064312643  2.70E-02
    21 Broy./Diag. 0.40E+00    9.1     0.00100474     -1076.5412668398 -3.48E-02
    22 Broy./Diag. 0.40E+00    9.4     0.00038027     -1076.5297468815  1.15E-02
    23 Broy./Diag. 0.40E+00    9.4     0.00026849     -1076.5091917731  2.06E-02
    24 Broy./Diag. 0.40E+00    9.7     0.00026105     -1076.5133828468 -4.19E-03
    25 Broy./Diag. 0.40E+00    9.5     0.00007594     -1076.5235842934 -1.02E-02
    26 Broy./Diag. 0.40E+00    9.4     0.00012693     -1076.5238447296 -2.60E-04
    27 Broy./Diag. 0.40E+00    9.3     0.00012363     -1076.5249586057 -1.11E-03
    28 Broy./Diag. 0.40E+00    9.0     0.00005631     -1076.5241480067  8.11E-04
    29 Broy./Diag. 0.40E+00    9.5     0.00006543     -1076.5220770014  2.07E-03
    30 Broy./Diag. 0.40E+00    9.5     0.00006627     -1076.5212786743  7.98E-04
    31 Broy./Diag. 0.40E+00    9.4     0.00008579     -1076.5225007811 -1.22E-03
    32 Broy./Diag. 0.40E+00    9.5     0.00003382     -1076.5222636223  2.37E-04
    33 Broy./Diag. 0.40E+00    9.5     0.00002929     -1076.5213458548  9.18E-04
    34 Broy./Diag. 0.40E+00    9.3     0.00003217     -1076.5223167948 -9.71E-04
    35 Broy./Diag. 0.40E+00    9.0     0.00002246     -1076.5233128943 -9.96E-04
    36 Broy./Diag. 0.40E+00    9.1     0.00003067     -1076.5226007887  7.12E-04
    37 Broy./Diag. 0.40E+00    9.4     0.00003006     -1076.5221810680  4.20E-04
    38 Broy./Diag. 0.40E+00    9.4     0.00001708     -1076.5227000189 -5.19E-04
    39 Broy./Diag. 0.40E+00    9.5     0.00001170     -1076.5223318976  3.68E-04
    40 Broy./Diag. 0.40E+00    9.6     0.00000575     -1076.5221442185  1.88E-04
    41 Broy./Diag. 0.40E+00    9.6     0.00000519     -1076.5222143624 -7.01E-05
    42 Broy./Diag. 0.40E+00    9.5     0.00000615     -1076.5223119327 -9.76E-05
    43 Broy./Diag. 0.40E+00    9.4     0.00000685     -1076.5222457675  6.62E-05
    44 Broy./Diag. 0.40E+00    9.5     0.00000345     -1076.5222288150  1.70E-05
    45 Broy./Diag. 0.40E+00    9.6     0.00000282     -1076.5223412512 -1.12E-04
    46 Broy./Diag. 0.40E+00    9.4     0.00000310     -1076.5223672367 -2.60E-05
    47 Broy./Diag. 0.40E+00    9.3     0.00000332     -1076.5222974771  6.98E-05
    48 Broy./Diag. 0.40E+00    9.2     0.00000171     -1076.5222600807  3.74E-05
    49 Broy./Diag. 0.40E+00    9.1     0.00000117     -1076.5223179087 -5.78E-05
    50 Broy./Diag. 0.40E+00    9.4     0.00000062     -1076.5223106970  7.21E-06
    51 Broy./Diag. 0.40E+00    9.5     0.00000068     -1076.5222927563  1.79E-05
    52 Broy./Diag. 0.40E+00    9.6     0.00000072     -1076.5222906891  2.07E-06
    53 Broy./Diag. 0.40E+00    9.3     0.00000078     -1076.5223047083 -1.40E-05
    54 Broy./Diag. 0.40E+00    9.1     0.00000049     -1076.5223027383  1.97E-06
    55 Broy./Diag. 0.40E+00    9.4     0.00000019     -1076.5222955934  7.14E-06
    56 Broy./Diag. 0.40E+00    9.3     0.00000023     -1076.5222989463 -3.35E-06
    57 Broy./Diag. 0.40E+00    9.2     0.00000031     -1076.5223042607 -5.31E-06
    58 Broy./Diag. 0.40E+00   10.2     0.00000025     -1076.5223040589  2.02E-07
    59 Broy./Diag. 0.40E+00    9.4     0.00000020     -1076.5222966487  7.41E-06
    60 Broy./Diag. 0.40E+00    9.4     0.00000013     -1076.5223009860 -4.34E-06
    61 Broy./Diag. 0.40E+00    9.5     0.00000007     -1076.5223036417 -2.66E-06

  *** SCF run converged in    61 steps ***


  Electronic density on regular grids:       -512.0009743678       -0.0009743678
  Core density on regular grids:              511.9999038367       -0.0000961633
  Total charge density on r-space grids:       -0.0010705311
  Total charge density g-space grids:          -0.0010705311

  Overlap energy of the core charge distribution:               0.00000000000000
  Self energy of the core charge distribution:              -2838.21791979120962
  Core Hamiltonian energy:                                    759.65654928660194
  Hartree energy:                                            1240.83185660823983
  Exchange-correlation energy:                               -238.79278974531758

  Total energy:                                             -1076.52230364168531

 ENERGY| Total FORCE_EVAL ( QS ) energy (a.u.):            -1076.522301334232679


 ATOMIC FORCES in [a.u.]

 # Atom   Kind   Element          X              Y              Z
      1      1      O           0.07911249    -0.02113724    -0.08392485
      2      2      H           0.03255289     0.03866921     0.08341690
      3      2      H          -0.01132332    -0.05491621     0.00602921
      4      1      O          -0.03304302     0.10595542     0.06028389
      5      2      H          -0.03302042    -0.09197272    -0.02746913
      6      2      H           0.05833467    -0.01933311    -0.01646216
      7      1      O           0.07153833     0.05660618    -0.11168875
      8      2      H          -0.01416317     0.02240969     0.07993456
      9      2      H           0.06090784    -0.09031338    -0.03727216
     10      1      O          -0.06120118    -0.04138902    -0.03275398
     11      2      H           0.09680488     0.03574144     0.00620212
     12      2      H          -0.06665008     0.03257087    -0.04760055
     13      1      O           0.00165935     0.03583946     0.06164117
     14      2      H           0.04141003    -0.06042432     0.01468217
     15      2      H          -0.04002165    -0.02115169    -0.01147247
     16      1      O           0.11397998     0.12346822    -0.08181776
     17      2      H          -0.01071528    -0.08958121     0.02313936
     18      2      H          -0.04137269     0.03389813    -0.00708838
     19      1      O          -0.03472966    -0.05484766     0.03902856
     20      2      H           0.01472814    -0.02610194     0.08782500
     21      2      H           0.04267853     0.04213905    -0.04218697
     22      1      O          -0.03491058    -0.06724666    -0.05414452
     23      2      H           0.04961901     0.08967869     0.05550472
     24      2      H          -0.00840935    -0.06800786     0.06876234
     25      1      O           0.05990040     0.06706584     0.12838315
     26      2      H           0.03329197    -0.05239356    -0.00039066
     27      2      H          -0.03944447     0.01115418    -0.06113433
     28      1      O          -0.05695870     0.07831455     0.08910646
     29      2      H          -0.00443259    -0.09063360     0.01447415
     30      2      H           0.02890303    -0.01158236    -0.04402673
     31      1      O          -0.02948014    -0.00375586    -0.10127793
     32      2      H           0.09567620    -0.00791751    -0.01505463
     33      2      H          -0.04216332     0.00290302     0.05213775
     34      1      O          -0.09236191    -0.00553417     0.02870891
     35      2      H           0.02098195     0.06511685    -0.02776681
     36      2      H          -0.04714192    -0.04594083    -0.04743352
     37      1      O           0.08468005    -0.03599468    -0.01738507
     38      2      H          -0.00524874     0.07005135     0.07165802
     39      2      H          -0.07192767    -0.08851700    -0.01158640
     40      1      O          -0.04206073     0.08578113    -0.05993994
     41      2      H           0.02580257     0.05684292     0.06923920
     42      2      H          -0.06637243    -0.07851019     0.04746780
     43      1      O           0.14276332    -0.04835325    -0.09435634
     44      2      H          -0.04545047     0.07735648     0.05408786
     45      2      H          -0.02439117    -0.03813205    -0.02313300
     46      1      O           0.00213835    -0.12798483    -0.04800551
     47      2      H          -0.01760642     0.05322050     0.04294953
     48      2      H          -0.02328772     0.02262401    -0.03564260
     49      1      O          -0.02207643     0.09891183    -0.08043739
     50      2      H           0.03191869    -0.09082831    -0.01455299
     51      2      H           0.06440372     0.05838518     0.01405498
     52      1      O          -0.05736562     0.02308015    -0.01645981
     53      2      H           0.00222833    -0.00819886     0.08990244
     54      2      H          -0.02449888    -0.09020037    -0.04826982
     55      1      O           0.09995037    -0.01057195    -0.02978275
     56      2      H           0.00897902     0.03628640    -0.03798585
     57      2      H          -0.08483294    -0.01029543     0.03208514
     58      1      O          -0.10472722     0.01000722     0.01668340
     59      2      H          -0.01294793     0.01979700    -0.08608013
     60      2      H           0.06255211    -0.01181976    -0.00473308
     61      1      O           0.00014282     0.03017507     0.08208808
     62      2      H          -0.06770869    -0.08607052     0.03698957
     63      2      H           0.00779089    -0.00279443    -0.04196193
     64      1      O           0.05620028     0.09371204    -0.08778921
     65      2      H          -0.04841902    -0.01425792     0.05537897
     66      2      H           0.03042839    -0.02844197    -0.04595213
     67      1      O           0.02539678     0.00546726     0.09601320
     68      2      H          -0.07415181     0.04753800     0.04811447
     69      2      H          -0.02303104    -0.08205524    -0.04344960
     70      1      O          -0.01522170    -0.02709859     0.00762599
     71      2      H          -0.04114619    -0.02456982    -0.02234193
     72      2      H           0.07026364     0.00749395    -0.06032652
     73      1      O           0.08657223    -0.03644906     0.01840970
     74      2      H          -0.05056721    -0.02687668     0.09309285
     75      2      H          -0.02706679     0.08642587    -0.03496864
     76      1      O           0.00675592     0.04660970     0.04475052
     77      2      H           0.03744486    -0.02572845     0.05306485
     78      2      H           0.00931729     0.01655607    -0.05688657
     79      1      O          -0.08515392     0.12530149     0.05736359
     80      2      H          -0.03338623    -0.05871686     0.05258942
     81      2      H           0.05432774    -0.05856651    -0.03555401
     82      1      O          -0.02129671    -0.00693705    -0.04571410
     83      2      H           0.01751891    -0.01635884     0.07193442
     84      2      H           0.01538572    -0.03812277    -0.04209846
     85      1      O          -0.09224602     0.10145669    -0.01971542
     86      2      H          -0.06003593    -0.08071410    -0.05581182
     87      2      H           0.10026038    -0.01618555     0.00335706
     88      1      O          -0.13268571    -0.06639078    -0.00565108
     89      2      H           0.03218927     0.02793814     0.04429079
     90      2      H           0.06533049     0.02025158    -0.03413804
     91      1      O          -0.05285153    -0.05319428     0.03765627
     92      2      H          -0.04324151     0.08173727     0.06655185
     93      2      H          -0.02321429     0.05115231    -0.05186874
     94      1      O           0.01857463     0.11951068     0.02697551
     95      2      H          -0.03537636    -0.03233871    -0.01713270
     96      2      H           0.06148918    -0.02005655    -0.02777163
     97      1      O          -0.04169410     0.02129538     0.05958851
     98      2      H          -0.04020671     0.04269034    -0.05364740
     99      2      H           0.00600625    -0.10258584    -0.01823564
    100      1      O          -0.03882108    -0.12849654     0.10046837
    101      2      H           0.01162028     0.02538335    -0.10090035
    102      2      H          -0.02952826     0.03712281    -0.00586819
    103      1      O           0.01926552    -0.03664382     0.01137349
    104      2      H          -0.04972190     0.06772478     0.00720506
    105      2      H          -0.00776511    -0.05136540     0.01627186
    106      1      O           0.04407558    -0.13311522     0.06898402
    107      2      H          -0.07018448    -0.01292894    -0.04757264
    108      2      H           0.03730606     0.02563786    -0.00341522
    109      1      O          -0.05799288    -0.04031363    -0.00332439
    110      2      H          -0.08263538     0.02939191     0.01193169
    111      2      H           0.07420299     0.00107445     0.04964619
    112      1      O           0.05788089     0.09504538    -0.02290907
    113      2      H           0.00507707    -0.02398839    -0.04027283
    114      2      H          -0.01860654    -0.06733581     0.03899499
    115      1      O          -0.09110516     0.06025128     0.03258417
    116      2      H           0.07418628    -0.04414639    -0.02477949
    117      2      H          -0.03464275    -0.03214649     0.07513932
    118      1      O          -0.06927536     0.02766264     0.03610632
    119      2      H           0.05873406    -0.04197743     0.00734424
    120      2      H          -0.04425652     0.01413163    -0.09925879
    121      1      O           0.01676655     0.02551150    -0.12430964
    122      2      H          -0.06571802    -0.01946103     0.08566334
    123      2      H           0.06519860    -0.04294063    -0.02959776
    124      1      O          -0.08826357     0.09695815     0.07524575
    125      2      H           0.09096212     0.00945645     0.00116335
    126      2      H           0.01615542    -0.07108458     0.00901525
    127      1      O           0.05960958    -0.03854157    -0.11760427
    128      2      H           0.01638435    -0.00950658     0.08266568
    129      2      H          -0.00297607     0.07269456    -0.00052621
    130      1      O           0.01937410     0.03226509    -0.06209880
    131      2      H          -0.09020833     0.07493010    -0.02491229
    132      2      H           0.00732575    -0.09096444    -0.04934201
    133      1      O           0.11253903    -0.00190642    -0.02389385
    134      2      H          -0.03582880    -0.06154990    -0.00639110
    135      2      H          -0.02545721     0.04650573     0.01765564
    136      1      O           0.04019570     0.00842861    -0.05032706
    137      2      H          -0.05237114    -0.00066557     0.06568499
    138      2      H          -0.07742294    -0.00783433    -0.05629937
    139      1      O           0.01450448    -0.00890035     0.12964996
    140      2      H           0.04331232     0.02907149    -0.09800815
    141      2      H          -0.06431672    -0.03503289    -0.00387937
    142      1      O           0.06592833    -0.03492100    -0.14051330
    143      2      H           0.05527098     0.03223172     0.05729131
    144      2      H          -0.07547716    -0.04252994     0.06419455
    145      1      O          -0.03355132     0.02802937     0.10551111
    146      2      H          -0.08717305    -0.05269339    -0.02412562
    147      2      H           0.06184948    -0.02601750     0.00281072
    148      1      O          -0.09257270     0.14077776     0.03226519
    149      2      H           0.06366199    -0.03213298    -0.04652548
    150      2      H           0.01588931    -0.01303117     0.09626283
    151      1      O          -0.09816010     0.02010858     0.14122426
    152      2      H           0.06311395     0.02349508     0.01355204
    153      2      H          -0.02126828     0.04253669    -0.07993208
    154      1      O           0.01947444     0.05331618    -0.12015113
    155      2      H          -0.03168332    -0.00420206     0.07730465
    156      2      H           0.03271560    -0.04429280     0.03294431
    157      1      O           0.00088468     0.10237082    -0.02429501
    158      2      H           0.05417987    -0.03399195     0.01947270
    159      2      H          -0.05798722    -0.01892740     0.08205783
    160      1      O           0.04466044    -0.02944391    -0.06003888
    161      2      H          -0.08834388     0.07100656     0.01084443
    162      2      H           0.04006462     0.07013560    -0.00468361
    163      1      O          -0.10982489     0.12796637     0.01138227
    164      2      H           0.07964995    -0.02190290     0.07776142
    165      2      H          -0.03110194    -0.07346659    -0.00369301
    166      1      O           0.11059469    -0.09632039     0.00461877
    167      2      H          -0.08970644    -0.03436707     0.01765127
    168      2      H          -0.01310442     0.00167340    -0.09012655
    169      1      O           0.03547574    -0.07393562    -0.01933897
    170      2      H          -0.05575415    -0.01501141     0.05952373
    171      2      H          -0.00468102     0.06336305    -0.04660089
    172      1      O          -0.05013439    -0.07633817     0.01551801
    173      2      H          -0.02106293     0.09079983    -0.01562065
    174      2      H          -0.01505096    -0.02502580    -0.05063765
    175      1      O          -0.01540214     0.01079713     0.11446609
    176      2      H          -0.00227307    -0.09401300     0.02325500
    177      2      H          -0.07316581     0.02813026    -0.02256902
    178      1      O           0.09023986    -0.00970709     0.12957617
    179      2      H          -0.00071929     0.04633164    -0.04932840
    180      2      H          -0.03693919    -0.07102102     0.01865894
    181      1      O          -0.06085650     0.05512951     0.01510694
    182      2      H           0.03668935    -0.05263956     0.03736178
    183      2      H          -0.01017856    -0.03319269    -0.07135016
    184      1      O           0.12727836    -0.05848084     0.09935344
    185      2      H          -0.08137296    -0.04976985     0.06018852
    186      2      H          -0.01179078     0.00460702    -0.09040681
    187      1      O           0.05713487     0.13761017     0.03765651
    188      2      H          -0.01010298    -0.05341960     0.05680641
    189      2      H          -0.01748121    -0.03822651    -0.08765082
    190      1      O          -0.03193504     0.11136983    -0.02927638
    191      2      H           0.07637922     0.02451863    -0.02000676
    192      2      H          -0.02765240    -0.05801734    -0.03460450
 SUM OF ATOMIC FORCES          -0.62194127    -0.29124429     0.34334024     0.76779991

 -------------------------------------------------------------------------------
 -                                                                             -
 -                                DBCSR STATISTICS                             -
 -                                                                             -
 -------------------------------------------------------------------------------
 COUNTER                                    TOTAL       BLAS       SMM       ACC
 flops     5 x     5 x   256           1007872000       0.0%    100.0%      0.0%
 flops     5 x    13 x   256           1221509120       0.0%    100.0%      0.0%
 flops    13 x     5 x   256           1242142720       0.0%    100.0%      0.0%
 flops    13 x    13 x   256           1620150272       0.0%    100.0%      0.0%
 flops inhomo. stacks                           0       0.0%      0.0%      0.0%
 flops total                         5.091674E+09       0.0%    100.0%      0.0%
 flops max/rank                      5.091674E+09       0.0%    100.0%      0.0%
 matmuls inhomo. stacks                         0       0.0%      0.0%      0.0%
 matmuls total                             171492       0.0%    100.0%      0.0%
 number of processed stacks                  8680       0.0%    100.0%      0.0%
 average stack size                                     0.0      19.8       0.0
 marketing flops                    68.782391E+09
 -------------------------------------------------------------------------------
 # multiplications                             62
 max memory usage/rank               4.992934E+09
 # max total images/rank                        1
 # max 3D layers                                1
 # MPI messages exchanged                       0
 MPI messages size (bytes):
  total size                         0.000000E+00
  min size                           0.000000E+00
  max size                           0.000000E+00
  average size                       0.000000E+00
 MPI breakdown and total messages size (bytes):
             size <=      128                   0                        0
       128 < size <=     8192                   0                        0
      8192 < size <=    32768                   0                        0
     32768 < size <=   131072                   0                        0
    131072 < size <=  4194304                   0                        0
   4194304 < size <= 16777216                   0                        0
  16777216 < size                               0                        0
 -------------------------------------------------------------------------------

 MEMORY| Estimated peak process memory [MiB]                                4756

 -------------------------------------------------------------------------------
 -                                                                             -
 -                           R E F E R E N C E S                               -
 -                                                                             -
 -------------------------------------------------------------------------------
 
 CP2K version 7.1, the CP2K developers group (2019).
 CP2K is freely available from https://www.cp2k.org/ .

 Schuett, Ole; Messmer, Peter; Hutter, Juerg; VandeVondele, Joost. 
 Electronic Structure Calculations on Graphics Processing Units, John
 Wiley & Sons, Ltd, 173-190 (2016). 
 GPU-Accelerated Sparse Matrix-Matrix Multiplication for
 Linear Scaling Density Functional Theory.
 https://dx.doi.org/10.1002/9781118670712.ch8

 Borstnik, U; VandeVondele, J; Weber, V; Hutter, J. 
 PARALLEL COMPUTING, 40 (5-6), 47-58 (2014). 
 Sparse matrix multiplication: The distributed block-compressed sparse
 row library.
 https://dx.doi.org/10.1016/j.parco.2014.03.012

 Hutter, J; Iannuzzi, M; Schiffmann, F; VandeVondele, J. 
 WIREs Comput Mol Sci., 4 (1), 15-25 (2014). 
 CP2K: atomistic simulations of condensed matter systems.
 https://dx.doi.org/10.1002/wcms.1159

 Krack, M. 
 THEORETICAL CHEMISTRY ACCOUNTS, 114 (1-3), 145-152 (2005). 
 Pseudopotentials for H to Kr optimized for gradient-corrected
 exchange-correlation functionals.
 https://dx.doi.org/10.1007/s00214-005-0655-y

 VandeVondele, J; Krack, M; Mohamed, F; Parrinello, M; Chassaing, T;
 Hutter, J. COMPUTER PHYSICS COMMUNICATIONS, 167 (2), 103-128 (2005). 
 QUICKSTEP: Fast and accurate density functional calculations using a
 mixed Gaussian and plane waves approach.
 https://dx.doi.org/10.1016/j.cpc.2004.12.014

 Frigo, M; Johnson, SG. 
 PROCEEDINGS OF THE IEEE, 93 (2), 216-231 (2005). 
 The design and implementation of FFTW3.
 https://dx.doi.org/10.1109/JPROC.2004.840301

 Hartwigsen, C; Goedecker, S; Hutter, J. 
 PHYSICAL REVIEW B, 58 (7), 3641-3662 (1998). 
 Relativistic separable dual-space Gaussian pseudopotentials from H to Rn.
 https://dx.doi.org/10.1103/PhysRevB.58.3641

 Lippert, G; Hutter, J; Parrinello, M. 
 MOLECULAR PHYSICS, 92 (3), 477-487 (1997). 
 A hybrid Gaussian and plane wave density functional scheme.
 https://dx.doi.org/10.1080/002689797170220

 Goedecker, S; Teter, M; Hutter, J. 
 PHYSICAL REVIEW B, 54 (3), 1703-1710 (1996). 
 Separable dual-space Gaussian pseudopotentials.
 https://dx.doi.org/10.1103/PhysRevB.54.1703


 -------------------------------------------------------------------------------
 -                                                                             -
 -                                T I M I N G                                  -
 -                                                                             -
 -------------------------------------------------------------------------------
 SUBROUTINE                       CALLS  ASD         SELF TIME        TOTAL TIME
                                MAXIMUM       AVERAGE  MAXIMUM  AVERAGE  MAXIMUM
 CP2K                                 1  1.0    0.138    0.138  564.484  564.484
 qs_forces                            1  2.0    0.000    0.000  562.427  562.427
 qs_energies                          1  3.0    0.000    0.000  561.716  561.716
 scf_env_do_scf                       1  4.0    0.000    0.000  559.333  559.333
 scf_env_do_scf_inner_loop           61  5.0    0.011    0.011  559.333  559.333
 qs_scf_new_mos                      61  6.0    0.002    0.002  404.078  404.078
 eigensolver                         61  7.0    0.008    0.008  397.380  397.380
 cp_fm_syevd                         61  8.0  260.712  260.712  261.033  261.033
 cp_fm_cholesky_restore             183  8.0  136.131  136.131  136.131  136.131
 gspace_mixing                       60  6.0    1.359    1.359   84.830   84.830
 broyden_mixing                      60  7.0   75.946   75.946   75.946   75.946
 rebuild_ks_matrix                   62  7.0    0.000    0.000   36.875   36.875
 qs_ks_build_kohn_sham_matrix        62  8.0    0.015    0.015   36.874   36.874
 qs_ks_update_qs_env                 61  6.0    0.001    0.001   36.317   36.317
 pw_transfer                        805  9.9    0.064    0.064   35.707   35.707
 fft_wrap_pw1pw2                    681 10.9    0.008    0.008   34.734   34.734
 qs_rho_update_rho                   62  6.0    0.001    0.001   34.321   34.321
 calculate_rho_elec                  62  7.0   16.756   16.756   34.320   34.320
 fft_wrap_pw1pw2_70                 309 11.2    3.531    3.531   32.443   32.443
 density_rs2pw                       62  8.0    0.005    0.005   17.187   17.187
 fft3d_s                            682 12.9   16.047   16.047   16.060   16.060
 pw_scatter_s                       370 13.2   12.284   12.284   12.284   12.284
 pw_poisson_solve                    62  9.0   10.773   10.773   11.740   11.740
 -------------------------------------------------------------------------------

 The number of warnings for this run is : 0
 
 -------------------------------------------------------------------------------
  **** **** ******  **  PROGRAM ENDED AT                 2021-02-25 08:00:29.332
 ***** ** ***  *** **   PROGRAM RAN ON                                   gnode75
 **    ****   ******    PROGRAM RAN BY                               mayank.modi
 ***** **    ** ** **   PROGRAM PROCESS ID                                 20203
  **** **  *******  **  PROGRAM STOPPED IN /home/mayank.modi/ab-initio-thermodyn
                                           amics-of-water/mayank/cp2k_energy_cal
                                           culations
