 DBCSR| CPU Multiplication driver                                           XSMM
 DBCSR| Multrec recursion limit                                              512
 DBCSR| Multiplication stack size                                           1000
 DBCSR| Maximum elements for images                                    UNLIMITED
 DBCSR| Multiplicative factor virtual images                                   1
 DBCSR| Use multiplication densification                                       T
 DBCSR| Multiplication size stacks                                             3


  **** **** ******  **  PROGRAM STARTED AT               2021-01-15 18:46:32.706
 ***** ** ***  *** **   PROGRAM STARTED ON                               gnode52
 **    ****   ******    PROGRAM STARTED BY                           mayank.modi
 ***** **    ** ** **   PROGRAM PROCESS ID                                  8558
  **** **  *******  **  PROGRAM STARTED IN /home/mayank.modi/ab-initio-thermodyn
                                           amics-of-water/mayank/cp2k_energy_cal
                                           culations

 CP2K| version string:                                          CP2K version 7.1
 CP2K| source code revision number:                                  git:e635599
 CP2K| cp2kflags: omp libint fftw3 libxc xsmm spglib                            
 CP2K| is freely available from                            https://www.cp2k.org/
 CP2K| Program compiled at                          Mon Dec 23 19:23:12 CET 2019
 CP2K| Program compiled on                                                pc9404
 CP2K| Program compiled for                                Linux-x86-64-gfortran
 CP2K| Data directory path                                        /opt/cp2k/data
 CP2K| Input file name                   input_training_correct_cell/input632.in

 GLOBAL| Force Environment number                                              1
 GLOBAL| Basis set file name                                           BASIS_SET
 GLOBAL| Potential file name                                      GTH_POTENTIALS
 GLOBAL| MM Potential file name                                     MM_POTENTIAL
 GLOBAL| Coordinate file name                                      __STD_INPUT__
 GLOBAL| Method name                                                        CP2K
 GLOBAL| Project name                                                   H2O_bulk
 GLOBAL| Preferred FFT library                                             FFTW3
 GLOBAL| Preferred diagonalization lib.                                       SL
 GLOBAL| Run type                                                   ENERGY_FORCE
 GLOBAL| All-to-all communication in single precision                          F
 GLOBAL| FFTs using library dependent lengths                                  F
 GLOBAL| Global print level                                                  LOW
 GLOBAL| MPI I/O enabled                                                       T
 GLOBAL| Total number of message passing processes                             1
 GLOBAL| Number of threads for this process                                   36
 GLOBAL| This output is from process                                           0
 GLOBAL| CPU model name                Intel(R) Xeon(R) CPU E5-2640 v4 @ 2.40GHz
 GLOBAL| CPUID                                                              1002
 GLOBAL| Compiled for CPUID                                                    0

 MEMORY| system memory details [Kb]
 MEMORY|                        rank 0           min           max       average
 MEMORY| MemTotal            131893316     131893316     131893316     131893316
 MEMORY| MemFree             107071264     107071264     107071264     107071264
 MEMORY| Buffers              13827472      13827472      13827472      13827472
 MEMORY| Cached                2338304       2338304       2338304       2338304
 MEMORY| Slab                  7928188       7928188       7928188       7928188
 MEMORY| SReclaimable          4865516       4865516       4865516       4865516
 MEMORY| MemLikelyFree       128102556     128102556     128102556     128102556


 GENERATE| WARNING:: No connections detected for Hydrogen - Atom Nr:       152 !
 GENERATE| WARNING:: No connections detected for Hydrogen - Atom Nr:       179 !
 GENERATE|  Preliminary Number of Bonds generated:                             0
 GENERATE|  Achieved consistency in connectivity generation.

 *******************************************************************************
 *******************************************************************************
 **                                                                           **
 **     #####                         ##              ##                      **
 **    ##   ##            ##          ##              ##                      **
 **   ##     ##                       ##            ######                    **
 **   ##     ##  ##   ##  ##   #####  ##  ##   ####   ##    #####    #####    **
 **   ##     ##  ##   ##  ##  ##      ## ##   ##      ##   ##   ##  ##   ##   **
 **   ##  ## ##  ##   ##  ##  ##      ####     ###    ##   ######   ######    **
 **    ##  ###   ##   ##  ##  ##      ## ##      ##   ##   ##       ##        **
 **     #######   #####   ##   #####  ##  ##  ####    ##    #####   ##        **
 **           ##                                                    ##        **
 **                                                                           **
 **                                                ... make the atoms dance   **
 **                                                                           **
 **            Copyright (C) by CP2K developers group (2000 - 2019)           **
 **                                                                           **
 *******************************************************************************


 TOTAL NUMBERS AND MAXIMUM NUMBERS

  Total number of            - Atomic kinds:                                   2
                             - Atoms:                                        192
                             - Shell sets:                                   384
                             - Shells:                                       704
                             - Primitive Cartesian functions:                960
                             - Cartesian basis functions:                   1536
                             - Spherical basis functions:                   1472

  Maximum angular momentum of- Orbital basis functions:                        2
                             - Local part of the GTH pseudopotential:          2
                             - Non-local part of the GTH pseudopotential:      0


 SCF PARAMETERS         Density guess:                                    ATOMIC
                        --------------------------------------------------------
                        max_scf:                                             300
                        max_scf_history:                                       0
                        max_diis:                                              4
                        --------------------------------------------------------
                        eps_scf:                                        1.00E-07
                        eps_scf_history:                                0.00E+00
                        eps_diis:                                       1.00E-01
                        eps_eigval:                                     1.00E-05
                        --------------------------------------------------------
                        level_shift [a.u.]:                                 0.00
                        --------------------------------------------------------
                        Mixing method:                            BROYDEN_MIXING
                                                charge density mixing in g-space
                        --------------------------------------------------------
                        No outer SCF

 Number of electrons:                                                        512
 Number of occupied orbitals:                                                256
 Number of molecular orbitals:                                               256

 Number of orbital functions:                                               1472
 Number of independent orbital functions:                                   1472

 Extrapolation method: initial_guess


 SCF WAVEFUNCTION OPTIMIZATION

  Step     Update method      Time    Convergence         Total energy    Change
  ------------------------------------------------------------------------------
     1 NoMix/Diag. 0.40E+00    7.2     0.68595765     -1064.7277418458 -1.06E+03
     2 Broy./Diag. 0.40E+00    8.5     1.93348362      -996.6450302323  6.81E+01
     3 Broy./Diag. 0.40E+00    8.9     1.95237405     -1258.9579792833 -2.62E+02
     4 Broy./Diag. 0.40E+00    8.9     1.66740374     -1131.4934605924  1.27E+02
     5 Broy./Diag. 0.40E+00    9.1     1.80697051     -1090.7629091618  4.07E+01
     6 Broy./Diag. 0.40E+00    9.5     1.91020578     -1101.9706272104 -1.12E+01
     7 Broy./Diag. 0.40E+00    9.4     1.88285236     -1100.0058237180  1.96E+00
     8 Broy./Diag. 0.40E+00    9.6     1.96040885     -1090.6027239239  9.40E+00
     9 Broy./Diag. 0.40E+00    9.9     1.79040990     -1085.9240076866  4.68E+00
    10 Broy./Diag. 0.40E+00    9.9     1.91660215     -1079.6141069013  6.31E+00
    11 Broy./Diag. 0.40E+00    9.9     1.10274120     -1075.1587379633  4.46E+00
    12 Broy./Diag. 0.40E+00   10.3     1.37373717     -1069.8072190448  5.35E+00
    13 Broy./Diag. 0.40E+00   10.5     1.60525205     -1070.0543015310 -2.47E-01
    14 Broy./Diag. 0.40E+00   10.1     1.78572858     -1076.4701726774 -6.42E+00
    15 Broy./Diag. 0.40E+00   10.0     1.80895934     -1082.9738844221 -6.50E+00
    16 Broy./Diag. 0.40E+00   10.3     1.83891260     -1081.6539380126  1.32E+00
    17 Broy./Diag. 0.40E+00   10.2     1.46603882     -1075.2232368093  6.43E+00
    18 Broy./Diag. 0.40E+00    9.8     1.46805684     -1076.0915390263 -8.68E-01
    19 Broy./Diag. 0.40E+00   10.2     1.80365182     -1073.3673970380  2.72E+00
    20 Broy./Diag. 0.40E+00   10.1     1.88299396     -1078.3249982746 -4.96E+00
    21 Broy./Diag. 0.40E+00   10.2     1.80132259     -1083.1623319107 -4.84E+00
    22 Broy./Diag. 0.40E+00    9.9     1.78837850     -1078.5678347395  4.59E+00
    23 Broy./Diag. 0.40E+00    9.9     1.81897850     -1079.4320082185 -8.64E-01
    24 Broy./Diag. 0.40E+00    9.9     1.85798186     -1077.1623462507  2.27E+00
    25 Broy./Diag. 0.40E+00   10.4     1.85972870     -1075.4176924322  1.74E+00
    26 Broy./Diag. 0.40E+00   10.1     1.79279402     -1073.7588762369  1.66E+00
    27 Broy./Diag. 0.40E+00   10.0     1.85489222     -1078.6674801909 -4.91E+00
    28 Broy./Diag. 0.40E+00    9.8     1.78248530     -1073.2992343352  5.37E+00
    29 Broy./Diag. 0.40E+00   10.2     1.83000275     -1079.0372277195 -5.74E+00
    30 Broy./Diag. 0.40E+00   10.1     1.80352243     -1080.7916896747 -1.75E+00
    31 Broy./Diag. 0.40E+00   11.3     1.84962228     -1077.5044535087  3.29E+00
    32 Broy./Diag. 0.40E+00   10.0     1.43395510     -1071.0631524114  6.44E+00
    33 Broy./Diag. 0.40E+00   10.0     1.47439856     -1076.8937368062 -5.83E+00
    34 Broy./Diag. 0.40E+00    9.8     1.78322792     -1072.6907443705  4.20E+00
    35 Broy./Diag. 0.40E+00    9.7     1.80948122     -1078.3515786574 -5.66E+00
    36 Broy./Diag. 0.40E+00   10.1     1.79879082     -1079.4295440466 -1.08E+00
    37 Broy./Diag. 0.40E+00   10.0     1.86305331     -1078.7513074548  6.78E-01
    38 Broy./Diag. 0.40E+00   10.1     1.73620951     -1080.1320505910 -1.38E+00
    39 Broy./Diag. 0.40E+00   10.1     1.83733327     -1073.9963642473  6.14E+00
    40 Broy./Diag. 0.40E+00    9.9     1.79333118     -1077.9211434235 -3.92E+00
    41 Broy./Diag. 0.40E+00    9.6     1.30748274     -1071.5044558851  6.42E+00
    42 Broy./Diag. 0.40E+00    9.5     1.78571964     -1071.6844659576 -1.80E-01
    43 Broy./Diag. 0.40E+00   10.0     1.84833793     -1075.2918456339 -3.61E+00
    44 Broy./Diag. 0.40E+00   10.2     1.81086231     -1075.8774386090 -5.86E-01
    45 Broy./Diag. 0.40E+00   10.0     1.85578349     -1077.4845419236 -1.61E+00
    46 Broy./Diag. 0.40E+00    9.9     1.84140283     -1080.0496205475 -2.57E+00
    47 Broy./Diag. 0.40E+00    9.8     1.64633740     -1076.9755381225  3.07E+00
    48 Broy./Diag. 0.40E+00   10.1     1.79663387     -1079.0106590989 -2.04E+00
    49 Broy./Diag. 0.40E+00   10.1     1.83763257     -1076.6813693836  2.33E+00
    50 Broy./Diag. 0.40E+00    9.8     1.79033792     -1076.7971962652 -1.16E-01
    51 Broy./Diag. 0.40E+00    9.5     1.43277146     -1072.8352301496  3.96E+00
    52 Broy./Diag. 0.40E+00    9.2     1.79541796     -1071.7279247363  1.11E+00
    53 Broy./Diag. 0.40E+00    9.5     1.57345348     -1078.2796815656 -6.55E+00
    54 Broy./Diag. 0.40E+00   10.0     1.82473363     -1081.7543577146 -3.47E+00
    55 Broy./Diag. 0.40E+00   10.0     1.80931906     -1077.5358154772  4.22E+00
    56 Broy./Diag. 0.40E+00    9.9     1.84840832     -1078.4631422179 -9.27E-01
    57 Broy./Diag. 0.40E+00   10.0     1.82017702     -1074.1836917187  4.28E+00
    58 Broy./Diag. 0.40E+00   10.2     1.82065812     -1080.2823992859 -6.10E+00
    59 Broy./Diag. 0.40E+00   10.1     1.80786972     -1073.7656823428  6.52E+00
    60 Broy./Diag. 0.40E+00    9.8     1.86658925     -1072.6700615851  1.10E+00
    61 Broy./Diag. 0.40E+00    9.9     1.80500102     -1078.8383391608 -6.17E+00
    62 Broy./Diag. 0.40E+00   10.2     1.80789308     -1077.7562527723  1.08E+00
    63 Broy./Diag. 0.40E+00   10.1     1.83064159     -1074.8665079926  2.89E+00
    64 Broy./Diag. 0.40E+00    9.8     1.82726422     -1078.3911623988 -3.52E+00
    65 Broy./Diag. 0.40E+00   10.0     1.81327994     -1081.4057886627 -3.01E+00
    66 Broy./Diag. 0.40E+00   10.1     1.79011236     -1075.6303962045  5.78E+00
    67 Broy./Diag. 0.40E+00    9.9     1.84737305     -1075.7584304127 -1.28E-01
    68 Broy./Diag. 0.40E+00   10.0     1.69618328     -1072.8695339964  2.89E+00
    69 Broy./Diag. 0.40E+00    9.7     1.58211428     -1076.8636753048 -3.99E+00
    70 Broy./Diag. 0.40E+00   10.2     1.78089844     -1075.4968915960  1.37E+00
    71 Broy./Diag. 0.40E+00   10.0     1.81653455     -1077.3002524257 -1.80E+00
    72 Broy./Diag. 0.40E+00    9.9     1.85380855     -1077.9719952227 -6.72E-01
    73 Broy./Diag. 0.40E+00   10.0     1.78165281     -1075.9447247634  2.03E+00
    74 Broy./Diag. 0.40E+00   10.2     1.70925382     -1076.3541382821 -4.09E-01
    75 Broy./Diag. 0.40E+00   10.0     1.74777510     -1076.4591565013 -1.05E-01
    76 Broy./Diag. 0.40E+00   10.0     1.79171235     -1072.5147343998  3.94E+00
    77 Broy./Diag. 0.40E+00    9.9     1.83059625     -1082.0084726488 -9.49E+00
    78 Broy./Diag. 0.40E+00    9.7     1.84815543     -1080.2968562219  1.71E+00
    79 Broy./Diag. 0.40E+00    9.9     1.53393917     -1074.8986310414  5.40E+00
    80 Broy./Diag. 0.40E+00   10.1     1.81030589     -1071.9571671973  2.94E+00
    81 Broy./Diag. 0.40E+00    9.9     1.85185060     -1073.9292516211 -1.97E+00
    82 Broy./Diag. 0.40E+00   10.0     1.84261476     -1080.6092081005 -6.68E+00
    83 Broy./Diag. 0.40E+00   10.2     1.85188087     -1081.1257677919 -5.17E-01
    84 Broy./Diag. 0.40E+00   10.0     1.82687451     -1076.0488356535  5.08E+00
    85 Broy./Diag. 0.40E+00   10.0     1.71227192     -1074.8075669214  1.24E+00
    86 Broy./Diag. 0.40E+00    9.7     1.81060218     -1073.3355484493  1.47E+00
    87 Broy./Diag. 0.40E+00    9.6     1.83165394     -1081.0256998699 -7.69E+00
    88 Broy./Diag. 0.40E+00   10.2     1.83022123     -1075.7740923298  5.25E+00
    89 Broy./Diag. 0.40E+00   10.1     1.83120017     -1073.2621223800  2.51E+00
    90 Broy./Diag. 0.40E+00   10.0     1.82517836     -1078.3221798201 -5.06E+00
    91 Broy./Diag. 0.40E+00   10.0     1.81348399     -1076.4086245077  1.91E+00
    92 Broy./Diag. 0.40E+00   10.1     1.80494690     -1081.8269572855 -5.42E+00
    93 Broy./Diag. 0.40E+00    9.9     1.80970255     -1074.1697300814  7.66E+00
    94 Broy./Diag. 0.40E+00   10.0     1.82746466     -1074.2773236076 -1.08E-01
    95 Broy./Diag. 0.40E+00   10.2     1.80715082     -1074.0926415614  1.85E-01
    96 Broy./Diag. 0.40E+00   10.0     1.87936098     -1074.2670686864 -1.74E-01
    97 Broy./Diag. 0.40E+00    9.9     1.83358664     -1079.0895770480 -4.82E+00
    98 Broy./Diag. 0.40E+00    9.8     1.82834106     -1078.6273822000  4.62E-01
    99 Broy./Diag. 0.40E+00    9.7     1.82420317     -1077.1267980986  1.50E+00
   100 Broy./Diag. 0.40E+00   10.0     1.83873738     -1079.3326093058 -2.21E+00
   101 Broy./Diag. 0.40E+00    9.9     1.51959911     -1074.8810314984  4.45E+00
   102 Broy./Diag. 0.40E+00   10.0     1.69294038     -1078.2731525475 -3.39E+00
   103 Broy./Diag. 0.40E+00   10.0     1.75669790     -1075.1329504029  3.14E+00
   104 Broy./Diag. 0.40E+00   10.0     1.78421032     -1076.5878646957 -1.45E+00
   105 Broy./Diag. 0.40E+00   10.0     1.84001876     -1077.4495592204 -8.62E-01
   106 Broy./Diag. 0.40E+00   10.3     1.87412833     -1074.3359559741  3.11E+00
   107 Broy./Diag. 0.40E+00   10.0     1.84079759     -1079.8444165944 -5.51E+00
   108 Broy./Diag. 0.40E+00    9.8     1.84825006     -1075.5394164122  4.31E+00
   109 Broy./Diag. 0.40E+00   10.1     1.85724535     -1080.8191548689 -5.28E+00
   110 Broy./Diag. 0.40E+00   10.4     1.84139316     -1078.1675345292  2.65E+00
   111 Broy./Diag. 0.40E+00   10.1     1.46045829     -1073.2659927238  4.90E+00
   112 Broy./Diag. 0.40E+00   10.0     1.53229370     -1074.0590390445 -7.93E-01
   113 Broy./Diag. 0.40E+00    9.9     1.59491367     -1072.8564819606  1.20E+00
   114 Broy./Diag. 0.40E+00   10.0     1.78453451     -1076.9612495594 -4.10E+00
   115 Broy./Diag. 0.40E+00   10.1     1.83763142     -1079.5894022541 -2.63E+00
   116 Broy./Diag. 0.40E+00    9.8     1.81135921     -1080.6121420152 -1.02E+00
   117 Broy./Diag. 0.40E+00    9.9     1.82294968     -1074.5196110804  6.09E+00
   118 Broy./Diag. 0.40E+00   10.0     1.84021473     -1076.3603643880 -1.84E+00
   119 Broy./Diag. 0.40E+00    9.8     1.59505110     -1072.3262764440  4.03E+00
   120 Broy./Diag. 0.40E+00    9.6     1.79134566     -1079.4654524400 -7.14E+00
   121 Broy./Diag. 0.40E+00    9.5     1.85957395     -1074.4729300755  4.99E+00
   122 Broy./Diag. 0.40E+00   10.0     1.86135284     -1077.0586672146 -2.59E+00
   123 Broy./Diag. 0.40E+00   10.0     1.83702227     -1074.7298501011  2.33E+00
   124 Broy./Diag. 0.40E+00    9.9     1.63794642     -1080.5209470933 -5.79E+00
   125 Broy./Diag. 0.40E+00   10.3     1.80181711     -1077.0694860594  3.45E+00
   126 Broy./Diag. 0.40E+00    9.9     1.81515271     -1075.4160923741  1.65E+00
   127 Broy./Diag. 0.40E+00    9.8     1.80287325     -1076.4075924291 -9.92E-01
   128 Broy./Diag. 0.40E+00   10.0     1.87124821     -1075.1564013951  1.25E+00
   129 Broy./Diag. 0.40E+00   10.0     1.78386199     -1076.2891060596 -1.13E+00
   130 Broy./Diag. 0.40E+00    9.9     1.67758383     -1075.3039823713  9.85E-01
   131 Broy./Diag. 0.40E+00    9.9     1.73091807     -1075.1032637891  2.01E-01
   132 Broy./Diag. 0.40E+00   10.1     1.77977927     -1079.9815827089 -4.88E+00
   133 Broy./Diag. 0.40E+00   10.2     1.84917273     -1080.6442613162 -6.63E-01
   134 Broy./Diag. 0.40E+00   10.1     1.72617716     -1072.1067370391  8.54E+00
   135 Broy./Diag. 0.40E+00   10.1     1.55780670     -1079.0290350308 -6.92E+00
   136 Broy./Diag. 0.40E+00   10.0     1.85774592     -1076.9774601535  2.05E+00
   137 Broy./Diag. 0.40E+00    9.7     1.59177120     -1079.7832620555 -2.81E+00
   138 Broy./Diag. 0.40E+00    9.9     1.80460150     -1075.7128810122  4.07E+00
   139 Broy./Diag. 0.40E+00    9.9     1.86087595     -1073.9401174835  1.77E+00
   140 Broy./Diag. 0.40E+00   10.0     1.79821867     -1079.4930417666 -5.55E+00
   141 Broy./Diag. 0.40E+00    9.8     1.53013918     -1078.0938667674  1.40E+00
   142 Broy./Diag. 0.40E+00    9.9     1.60324104     -1077.6289323860  4.65E-01
   143 Broy./Diag. 0.40E+00    9.8     1.68664422     -1074.4341694174  3.19E+00
   144 Broy./Diag. 0.40E+00    9.9     1.77417654     -1075.0579740837 -6.24E-01
   145 Broy./Diag. 0.40E+00    9.5     1.80681384     -1078.8835747376 -3.83E+00
   146 Broy./Diag. 0.40E+00   10.0     1.89258331     -1072.0519803530  6.83E+00
   147 Broy./Diag. 0.40E+00   10.0     1.82651164     -1081.2310448296 -9.18E+00
   148 Broy./Diag. 0.40E+00    9.8     1.78420853     -1071.8507396716  9.38E+00
   149 Broy./Diag. 0.40E+00    9.9     1.88396179     -1074.8233900207 -2.97E+00
   150 Broy./Diag. 0.40E+00   10.0     1.84861086     -1082.4907145607 -7.67E+00
   151 Broy./Diag. 0.40E+00   10.2     1.85383037     -1077.5938191532  4.90E+00
   152 Broy./Diag. 0.40E+00   10.0     1.62774600     -1078.4158214634 -8.22E-01
   153 Broy./Diag. 0.40E+00   10.0     1.83116418     -1075.1295490130  3.29E+00
   154 Broy./Diag. 0.40E+00    9.8     1.82577315     -1078.0404655766 -2.91E+00
   155 Broy./Diag. 0.40E+00    9.7     1.82537706     -1079.0546581205 -1.01E+00
   156 Broy./Diag. 0.40E+00   10.1     1.84263941     -1081.1172608379 -2.06E+00
   157 Broy./Diag. 0.40E+00    9.8     1.73304119     -1072.4679118397  8.65E+00
   158 Broy./Diag. 0.40E+00   10.1     1.79375021     -1075.8210440032 -3.35E+00
   159 Broy./Diag. 0.40E+00   10.0     1.80607680     -1075.0063987695  8.15E-01
   160 Broy./Diag. 0.40E+00    9.8     1.73327878     -1078.4677725635 -3.46E+00
   161 Broy./Diag. 0.40E+00   10.0     1.80942182     -1077.9337088110  5.34E-01
   162 Broy./Diag. 0.40E+00    9.8     1.81194929     -1075.6174421946  2.32E+00
   163 Broy./Diag. 0.40E+00   10.0     1.79969024     -1076.2065441387 -5.89E-01
   164 Broy./Diag. 0.40E+00   10.1     1.82419306     -1076.9529180855 -7.46E-01
   165 Broy./Diag. 0.40E+00    9.8     1.74512544     -1075.5512443073  1.40E+00
   166 Broy./Diag. 0.40E+00   10.0     1.82102003     -1079.1961957875 -3.64E+00
   167 Broy./Diag. 0.40E+00   10.2     1.70546374     -1072.0107596825  7.19E+00
   168 Broy./Diag. 0.40E+00   10.1     1.78965375     -1075.6233686950 -3.61E+00
   169 Broy./Diag. 0.40E+00    9.9     1.85491933     -1079.4290025826 -3.81E+00
   170 Broy./Diag. 0.40E+00   10.0     1.58350110     -1074.7522151025  4.68E+00
   171 Broy./Diag. 0.40E+00    9.8     1.77612526     -1078.0751048028 -3.32E+00
   172 Broy./Diag. 0.40E+00   10.3     1.89085028     -1073.4531094621  4.62E+00
   173 Broy./Diag. 0.40E+00   10.0     1.85502452     -1079.9314223438 -6.48E+00
   174 Broy./Diag. 0.40E+00    9.9     1.80232639     -1076.3994824953  3.53E+00
   175 Broy./Diag. 0.40E+00   10.0     1.64213950     -1075.5726670692  8.27E-01
   176 Broy./Diag. 0.40E+00   10.2     1.60835405     -1073.6345565115  1.94E+00
   177 Broy./Diag. 0.40E+00   10.2     1.78488464     -1077.3758399773 -3.74E+00
   178 Broy./Diag. 0.40E+00   10.1     1.88479820     -1079.8426945923 -2.47E+00
   179 Broy./Diag. 0.40E+00    9.8     1.82219115     -1075.9657493978  3.88E+00
   180 Broy./Diag. 0.40E+00   10.0     1.80089028     -1072.1468333222  3.82E+00
   181 Broy./Diag. 0.40E+00   10.1     1.82719283     -1079.2347738697 -7.09E+00
   182 Broy./Diag. 0.40E+00   10.0     1.81974401     -1079.3117293072 -7.70E-02
   183 Broy./Diag. 0.40E+00    9.9     1.83893343     -1079.2620039729  4.97E-02
   184 Broy./Diag. 0.40E+00    9.3     1.77000619     -1076.5220524504  2.74E+00
   185 Broy./Diag. 0.40E+00    9.5     1.82326970     -1078.6832352564 -2.16E+00
   186 Broy./Diag. 0.40E+00    9.8     1.80823253     -1071.0821163846  7.60E+00
   187 Broy./Diag. 0.40E+00    9.8     1.80550276     -1075.7615393717 -4.68E+00
   188 Broy./Diag. 0.40E+00    9.9     1.48442476     -1072.3384214061  3.42E+00
   189 Broy./Diag. 0.40E+00   10.4     1.78527588     -1075.4322395489 -3.09E+00
   190 Broy./Diag. 0.40E+00    9.9     1.85340876     -1079.0566617740 -3.62E+00
   191 Broy./Diag. 0.40E+00    9.9     1.85329506     -1077.5348885125  1.52E+00
   192 Broy./Diag. 0.40E+00   10.0     1.85810436     -1076.3612920543  1.17E+00
   193 Broy./Diag. 0.40E+00    9.9     1.82673520     -1078.8016189838 -2.44E+00
   194 Broy./Diag. 0.40E+00    9.8     1.78107115     -1076.1702487198  2.63E+00
   195 Broy./Diag. 0.40E+00    9.9     1.85664489     -1076.2337753156 -6.35E-02
   196 Broy./Diag. 0.40E+00   10.1     1.81731650     -1077.4771532309 -1.24E+00
   197 Broy./Diag. 0.40E+00    9.9     1.82315454     -1073.1255917596  4.35E+00
   198 Broy./Diag. 0.40E+00    9.8     1.81902356     -1081.6144378090 -8.49E+00
   199 Broy./Diag. 0.40E+00    9.5     1.85840039     -1078.0284864538  3.59E+00
   200 Broy./Diag. 0.40E+00    9.4     1.81302564     -1073.3602190199  4.67E+00
   201 Broy./Diag. 0.40E+00    9.8     1.75961291     -1078.2437868715 -4.88E+00
   202 Broy./Diag. 0.40E+00    9.9     1.81608244     -1078.1862482918  5.75E-02
   203 Broy./Diag. 0.40E+00   10.1     1.85878543     -1077.9173736620  2.69E-01
   204 Broy./Diag. 0.40E+00    9.8     1.79971214     -1080.5253021851 -2.61E+00
   205 Broy./Diag. 0.40E+00   10.0     1.85260315     -1077.9205682348  2.60E+00
   206 Broy./Diag. 0.40E+00   10.4     1.51493569     -1075.2104428631  2.71E+00
   207 Broy./Diag. 0.40E+00    9.9     1.55377474     -1072.3519190558  2.86E+00
   208 Broy./Diag. 0.40E+00   10.1     1.79949033     -1072.8295769951 -4.78E-01
   209 Broy./Diag. 0.40E+00   10.1     1.81658904     -1082.3064748188 -9.48E+00
   210 Broy./Diag. 0.40E+00   10.1     1.80215893     -1082.1027406625  2.04E-01
   211 Broy./Diag. 0.40E+00   10.1     1.59816194     -1079.1873350634  2.92E+00
   212 Broy./Diag. 0.40E+00    9.9     1.83511118     -1076.2288692066  2.96E+00
   213 Broy./Diag. 0.40E+00   10.0     1.87096325     -1074.7627112850  1.47E+00
   214 Broy./Diag. 0.40E+00   10.2     1.90476760     -1077.2434752683 -2.48E+00
   215 Broy./Diag. 0.40E+00   10.1     1.80071109     -1078.1820101377 -9.39E-01
   216 Broy./Diag. 0.40E+00    9.7     1.80185769     -1075.2234510267  2.96E+00
   217 Broy./Diag. 0.40E+00    9.9     1.85014346     -1080.4304667792 -5.21E+00
   218 Broy./Diag. 0.40E+00    9.9     1.85676841     -1076.0547602438  4.38E+00
   219 Broy./Diag. 0.40E+00   10.0     1.83037958     -1076.6874247568 -6.33E-01
   220 Broy./Diag. 0.40E+00   10.1     1.36931346     -1076.8647821640 -1.77E-01
   221 Broy./Diag. 0.40E+00   10.0     1.78502242     -1076.2230398343  6.42E-01
   222 Broy./Diag. 0.40E+00   10.0     1.87319812     -1077.0060424837 -7.83E-01
   223 Broy./Diag. 0.40E+00   10.1     1.33602648     -1075.0749520666  1.93E+00
   224 Broy./Diag. 0.40E+00   10.2     1.82336490     -1077.4742503466 -2.40E+00
   225 Broy./Diag. 0.40E+00   10.0     1.37762100     -1073.3912381765  4.08E+00
   226 Broy./Diag. 0.40E+00    9.9     1.80315042     -1072.6336053707  7.58E-01
   227 Broy./Diag. 0.40E+00    9.9     1.83297734     -1081.6089104025 -8.98E+00
   228 Broy./Diag. 0.40E+00    9.7     1.81311045     -1075.7231240284  5.89E+00
   229 Broy./Diag. 0.40E+00   10.2     1.84951676     -1077.7322639980 -2.01E+00
   230 Broy./Diag. 0.40E+00    9.9     1.79860485     -1077.2831798581  4.49E-01
   231 Broy./Diag. 0.40E+00   10.1     1.78506529     -1076.1378373781  1.15E+00
   232 Broy./Diag. 0.40E+00    9.8     1.84165341     -1077.6056131595 -1.47E+00
   233 Broy./Diag. 0.40E+00    9.5     1.68900995     -1075.3353285732  2.27E+00
   234 Broy./Diag. 0.40E+00    9.4     1.76187293     -1075.9923667087 -6.57E-01
   235 Broy./Diag. 0.40E+00   10.2     1.87116124     -1075.1049241827  8.87E-01
   236 Broy./Diag. 0.40E+00   10.1     1.81370906     -1075.3752695725 -2.70E-01
   237 Broy./Diag. 0.40E+00   10.1     1.81141695     -1080.5539999550 -5.18E+00
   238 Broy./Diag. 0.40E+00    9.9     1.70219183     -1078.3246855106  2.23E+00
   239 Broy./Diag. 0.40E+00    9.9     1.82431147     -1072.2517424253  6.07E+00
   240 Broy./Diag. 0.40E+00   10.0     1.80497830     -1076.9903829064 -4.74E+00
   241 Broy./Diag. 0.40E+00   10.1     1.79026261     -1077.1580951095 -1.68E-01
   242 Broy./Diag. 0.40E+00    9.8     1.82651780     -1078.2846280260 -1.13E+00
   243 Broy./Diag. 0.40E+00   10.1     1.87782633     -1076.2611723300  2.02E+00
   244 Broy./Diag. 0.40E+00   10.1     1.78893653     -1073.2285018403  3.03E+00
   245 Broy./Diag. 0.40E+00   10.0     1.82645313     -1081.1025046627 -7.87E+00
   246 Broy./Diag. 0.40E+00    9.9     1.79167089     -1075.0173560684  6.09E+00
   247 Broy./Diag. 0.40E+00   10.0     1.85050805     -1076.0919789020 -1.07E+00
   248 Broy./Diag. 0.40E+00    9.9     1.83824690     -1077.6586563872 -1.57E+00
   249 Broy./Diag. 0.40E+00    9.8     1.80229773     -1077.8256901203 -1.67E-01
   250 Broy./Diag. 0.40E+00    9.6     1.53472259     -1075.0741744179  2.75E+00
   251 Broy./Diag. 0.40E+00    9.9     1.78505956     -1073.9186172007  1.16E+00
   252 Broy./Diag. 0.40E+00    9.9     1.79943973     -1078.3294236932 -4.41E+00
   253 Broy./Diag. 0.40E+00   10.0     1.83468243     -1075.6926330841  2.64E+00
   254 Broy./Diag. 0.40E+00   10.0     1.81141863     -1078.9430301337 -3.25E+00
   255 Broy./Diag. 0.40E+00    9.8     1.82108213     -1081.7825815641 -2.84E+00
   256 Broy./Diag. 0.40E+00   10.3     1.80784088     -1072.9735577891  8.81E+00
   257 Broy./Diag. 0.40E+00    9.9     1.84230563     -1073.3526977855 -3.79E-01
   258 Broy./Diag. 0.40E+00   10.0     1.84276739     -1076.7360873032 -3.38E+00
   259 Broy./Diag. 0.40E+00    9.9     1.58731885     -1079.8545771418 -3.12E+00
   260 Broy./Diag. 0.40E+00    9.9     1.71011448     -1078.0071145868  1.85E+00
   261 Broy./Diag. 0.40E+00   10.0     1.74044487     -1077.1859882278  8.21E-01
   262 Broy./Diag. 0.40E+00   10.1     1.79914694     -1072.2416928849  4.94E+00
   263 Broy./Diag. 0.40E+00   10.0     1.84681511     -1074.7183375772 -2.48E+00
   264 Broy./Diag. 0.40E+00    9.9     1.82094972     -1080.4247115689 -5.71E+00
   265 Broy./Diag. 0.40E+00   10.1     1.77155483     -1073.8228177060  6.60E+00
   266 Broy./Diag. 0.40E+00   10.3     1.80027989     -1074.7492606168 -9.26E-01
   267 Broy./Diag. 0.40E+00   10.1     1.83344689     -1081.8577397828 -7.11E+00
   268 Broy./Diag. 0.40E+00    9.8     1.77733809     -1081.2463872537  6.11E-01
   269 Broy./Diag. 0.40E+00    9.7     1.85709176     -1075.8556535322  5.39E+00
   270 Broy./Diag. 0.40E+00   10.2     1.80176051     -1073.7589758650  2.10E+00
   271 Broy./Diag. 0.40E+00   10.2     1.85364973     -1073.6110370144  1.48E-01
   272 Broy./Diag. 0.40E+00    9.9     1.81750167     -1078.8982894535 -5.29E+00
   273 Broy./Diag. 0.40E+00   10.1     1.84891314     -1077.1754695680  1.72E+00
   274 Broy./Diag. 0.40E+00   10.0     1.83789365     -1075.8943470041  1.28E+00
   275 Broy./Diag. 0.40E+00    9.9     1.80217185     -1080.2802235534 -4.39E+00
   276 Broy./Diag. 0.40E+00   10.0     1.77100895     -1073.9579847015  6.32E+00
   277 Broy./Diag. 0.40E+00    9.8     1.84592185     -1076.3883366731 -2.43E+00
   278 Broy./Diag. 0.40E+00    9.6     1.87241640     -1078.7159459421 -2.33E+00
   279 Broy./Diag. 0.40E+00    9.9     1.53906703     -1077.6210231936  1.09E+00
   280 Broy./Diag. 0.40E+00   10.0     1.78929574     -1071.4482381630  6.17E+00
   281 Broy./Diag. 0.40E+00   10.0     1.79545735     -1082.8325679176 -1.14E+01
   282 Broy./Diag. 0.40E+00    9.9     1.80015021     -1078.0355998003  4.80E+00
   283 Broy./Diag. 0.40E+00   10.0     1.87911936     -1074.0748740453  3.96E+00
   284 Broy./Diag. 0.40E+00    9.9     1.84262028     -1077.6701714751 -3.60E+00
   285 Broy./Diag. 0.40E+00    9.4     1.84264360     -1075.7379920444  1.93E+00
   286 Broy./Diag. 0.40E+00    9.8     1.82108516     -1075.8611451496 -1.23E-01
   287 Broy./Diag. 0.40E+00   10.1     1.85750255     -1073.4451260192  2.42E+00
   288 Broy./Diag. 0.40E+00   10.0     1.83916483     -1080.0030632325 -6.56E+00
   289 Broy./Diag. 0.40E+00   10.0     1.81102775     -1077.1562757519  2.85E+00
   290 Broy./Diag. 0.40E+00   10.0     1.03973486     -1073.3981669530  3.76E+00
   291 Broy./Diag. 0.40E+00    9.8     1.69769620     -1074.1300128248 -7.32E-01
   292 Broy./Diag. 0.40E+00   10.1     1.78899252     -1080.4327767396 -6.30E+00
   293 Broy./Diag. 0.40E+00   10.0     1.84144835     -1075.1021761839  5.33E+00
   294 Broy./Diag. 0.40E+00   10.0     1.76013092     -1078.6076938701 -3.51E+00
   295 Broy./Diag. 0.40E+00   10.0     1.85287974     -1076.3795646894  2.23E+00
   296 Broy./Diag. 0.40E+00    9.9     1.53470480     -1076.9235140818 -5.44E-01
   297 Broy./Diag. 0.40E+00   10.4     1.82952583     -1078.4480545915 -1.52E+00
   298 Broy./Diag. 0.40E+00   10.2     1.28725526     -1077.2291016835  1.22E+00
   299 Broy./Diag. 0.40E+00   10.3     1.80519771     -1072.1492202137  5.08E+00
   300 Broy./Diag. 0.40E+00   10.0     1.80072023     -1079.8006317712 -7.65E+00

  Leaving inner SCF loop after reaching   300 steps.


  Electronic density on regular grids:       -512.0002467628       -0.0002467628
  Core density on regular grids:              511.9999683009       -0.0000316991
  Total charge density on r-space grids:       -0.0002784619
  Total charge density g-space grids:          -0.0002784619

  Overlap energy of the core charge distribution:               0.00000000000000
  Self energy of the core charge distribution:              -2838.21791979120962
  Core Hamiltonian energy:                                    758.32261921142037
  Hartree energy:                                            1239.22746604346207
  Exchange-correlation energy:                               -239.13279723484706

  Total energy:                                             -1079.80063177117427

 *** WARNING in qs_scf.F:542 :: SCF run NOT converged ***


 ENERGY| Total FORCE_EVAL ( QS ) energy (a.u.):            -1073.979967788947079


 ATOMIC FORCES in [a.u.]

 # Atom   Kind   Element          X              Y              Z
      1      1      O          -0.00250330    -0.00732165    -0.02804214
      2      2      H          -0.04836968     0.02258639     0.06324348
      3      2      H           0.07987728     0.01494150     0.02565513
      4      1      O          -0.00250184    -0.01726863    -0.00591116
      5      2      H          -0.04859964     0.03334233     0.02960590
      6      2      H           0.09266881     0.04519958    -0.00328581
      7      1      O           0.14627660     0.04270460    -0.02304672
      8      2      H          -0.05453601    -0.05163061     0.07591102
      9      2      H          -0.06118804    -0.06349462    -0.04030711
     10      1      O           0.07292898    -0.04981523     0.05572507
     11      2      H          -0.06852403     0.04401499     0.07406578
     12      2      H           0.01418841     0.01162570    -0.04596646
     13      1      O          -0.02017229     0.06035267    -0.01009876
     14      2      H          -0.08741048    -0.06652934     0.00232694
     15      2      H           0.12460734     0.01508501     0.03664479
     16      1      O          -0.02830578     0.07863464    -0.06101289
     17      2      H           0.05248438    -0.02283306    -0.06363392
     18      2      H          -0.00457708     0.02572075     0.07961584
     19      1      O          -0.12506798     0.03234918     0.09327753
     20      2      H           0.02870628    -0.06024828    -0.06213833
     21      2      H           0.08805503     0.07401514     0.00406635
     22      1      O          -0.00246262    -0.04685268    -0.10370634
     23      2      H          -0.05772008    -0.03886346     0.03795036
     24      2      H          -0.00903145     0.08827209     0.01371106
     25      1      O           0.07368547    -0.03326651    -0.04215805
     26      2      H          -0.01720020    -0.01755611     0.02092983
     27      2      H          -0.00903554    -0.02402897     0.04452536
     28      1      O          -0.09511246    -0.12811489    -0.01228591
     29      2      H          -0.06128991     0.10341058    -0.04666564
     30      2      H           0.08830714    -0.02092678     0.03466053
     31      1      O          -0.14486447     0.04447076    -0.07272506
     32      2      H           0.02920830     0.05344408     0.09968678
     33      2      H           0.09339217    -0.05232247    -0.06078883
     34      1      O           0.03487136    -0.08961700    -0.07878808
     35      2      H          -0.05810414    -0.00612209     0.00359939
     36      2      H           0.01382049     0.06399644     0.03947542
     37      1      O          -0.03930449     0.03724073     0.07813567
     38      2      H           0.07294610    -0.02170095    -0.07280091
     39      2      H          -0.06007236    -0.03844769     0.00255861
     40      1      O           0.04862510     0.02598911    -0.05673304
     41      2      H          -0.02726954    -0.02426069     0.05047338
     42      2      H          -0.02940135     0.03468469    -0.04300985
     43      1      O          -0.12601626     0.07215320     0.00170422
     44      2      H           0.02087882    -0.07564602    -0.05715725
     45      2      H           0.00520359     0.02831614     0.11025372
     46      1      O          -0.00198773    -0.03763319    -0.01508609
     47      2      H           0.00125949    -0.03410816     0.04124912
     48      2      H           0.05704586     0.05356586    -0.01404532
     49      1      O           0.02055627    -0.02326012     0.03118452
     50      2      H          -0.05823353    -0.09191567    -0.00979695
     51      2      H          -0.00333902     0.05637861    -0.03349166
     52      1      O          -0.01546568     0.03474035    -0.07820674
     53      2      H          -0.00111787    -0.01846992    -0.03324724
     54      2      H          -0.01693159    -0.02484396     0.08899910
     55      1      O           0.01367184    -0.09322789     0.03356964
     56      2      H           0.06923897     0.03174655     0.01621158
     57      2      H          -0.06104493    -0.02575896    -0.01222135
     58      1      O           0.01393348    -0.05911149     0.07883499
     59      2      H          -0.04863026     0.00406211    -0.06307646
     60      2      H           0.03940735     0.05602709     0.00333091
     61      1      O          -0.04777034    -0.04008320    -0.05334130
     62      2      H           0.01142292     0.07033441     0.02343883
     63      2      H           0.03215553    -0.05449682     0.04959061
     64      1      O          -0.07729484    -0.12992262     0.00471774
     65      2      H           0.00287697     0.06351130     0.06028403
     66      2      H           0.05517804     0.02026144     0.00307230
     67      1      O          -0.06365655     0.03198526     0.02253989
     68      2      H           0.05854913     0.00068611     0.04292171
     69      2      H          -0.00556529    -0.06313432    -0.11090230
     70      1      O           0.01241971     0.06712472     0.04580561
     71      2      H          -0.00502241    -0.08094105     0.03111076
     72      2      H           0.05167223    -0.01797685    -0.09320335
     73      1      O           0.07638607    -0.05793159    -0.12318266
     74      2      H           0.02747102     0.09991703    -0.01071028
     75      2      H          -0.06938102     0.01520386     0.06882975
     76      1      O          -0.05899798    -0.03473881     0.10201256
     77      2      H           0.09257000    -0.10714092     0.00169128
     78      2      H          -0.00269489     0.12705078    -0.16422044
     79      1      O          -0.03149682     0.04145882    -0.03202903
     80      2      H           0.00026530     0.00663040    -0.02311525
     81      2      H           0.01204970     0.01674618    -0.01423054
     82      1      O           0.09076191     0.01919112     0.09274280
     83      2      H          -0.04971933     0.06274621     0.02762019
     84      2      H          -0.01241427    -0.07650143    -0.04910054
     85      1      O          -0.02929911     0.04825162     0.04963280
     86      2      H           0.04021493    -0.03184890     0.05326922
     87      2      H           0.01008558    -0.02788699    -0.06545831
     88      1      O          -0.12577032     0.09710541    -0.05735176
     89      2      H           0.02470069    -0.10758527    -0.00766493
     90      2      H           0.06022873     0.04350320    -0.00786094
     91      1      O           0.00459110     0.07139762     0.09845252
     92      2      H           0.02047042    -0.10161826    -0.01124203
     93      2      H           0.02258973     0.04184456    -0.08085781
     94      1      O          -0.00030204     0.04702814    -0.01635739
     95      2      H           0.03610319     0.03982019     0.02525862
     96      2      H           0.05098914    -0.05131749     0.04201874
     97      1      O          -0.00364604     0.05641227     0.02106474
     98      2      H           0.06507471    -0.00996150    -0.05579118
     99      2      H          -0.08314478    -0.04851877    -0.00825677
    100      1      O           0.06476237     0.06159463     0.03281960
    101      2      H          -0.02185363    -0.07378549     0.03566967
    102      2      H          -0.02050889    -0.03089568    -0.03731893
    103      1      O          -0.02678457     0.03138346    -0.09982640
    104      2      H           0.01607593    -0.01044453     0.02488394
    105      2      H          -0.00621124    -0.01006425     0.05294168
    106      1      O          -0.12046981    -0.00799153     0.04407701
    107      2      H           0.02602654     0.07547651     0.00353940
    108      2      H           0.05125608    -0.03161616    -0.09010749
    109      1      O           0.07840196     0.06186688     0.04124111
    110      2      H          -0.01503509     0.05199005    -0.04268844
    111      2      H          -0.07875680    -0.06881004     0.00053006
    112      1      O          -0.01996242    -0.10581320    -0.01467116
    113      2      H           0.05360175     0.00108759     0.03720394
    114      2      H          -0.06911939     0.06960406    -0.04655233
    115      1      O           0.05862755     0.10534861    -0.10781990
    116      2      H           0.05359531    -0.05954638     0.00418839
    117      2      H          -0.04817006    -0.01051800     0.05489916
    118      1      O           0.03391051    -0.07643085    -0.03582807
    119      2      H          -0.07190051    -0.01423145     0.01761579
    120      2      H           0.03614101     0.04331514    -0.00515943
    121      1      O          -0.02104227     0.00312540     0.06044284
    122      2      H           0.08576373     0.03214031    -0.02042870
    123      2      H           0.06380048     0.00628588     0.00108540
    124      1      O          -0.02975831    -0.03631537     0.00264287
    125      2      H           0.05499974    -0.05690757    -0.04596883
    126      2      H           0.01115897     0.04168283     0.07597136
    127      1      O          -0.01203274     0.07080377    -0.01874259
    128      2      H          -0.05916405    -0.02372206     0.04967739
    129      2      H           0.00608465    -0.02920868    -0.08325356
    130      1      O          -0.05424978     0.11340662     0.06348892
    131      2      H           0.00212851    -0.01930336    -0.09618368
    132      2      H           0.03174051    -0.09566413     0.06613722
    133      1      O           0.01072666    -0.05535399    -0.03160318
    134      2      H           0.05217916     0.03249459     0.04657125
    135      2      H          -0.05467827     0.03318307    -0.06217421
    136      1      O           0.09352007    -0.08064754    -0.05194062
    137      2      H           0.05242925     0.03156605    -0.04995162
    138      2      H          -0.02486700     0.01711577     0.02555634
    139      1      O          -0.12817959    -0.06503959     0.03781220
    140      2      H           0.07570465    -0.05389200    -0.03131891
    141      2      H           0.02552658     0.06481785     0.03725466
    142      1      O           0.03904776    -0.02144299     0.03736065
    143      2      H          -0.02084282     0.09528800     0.03328935
    144      2      H          -0.00411477    -0.07335257    -0.01159937
    145      1      O           0.00831871    -0.03939585     0.06496652
    146      2      H           0.00356292     0.09829482     0.03902623
    147      2      H          -0.06335607    -0.02458420    -0.06554297
    148      1      O          -0.00114221     0.12832345    -0.04314267
    149      2      H          -0.05465185    -0.02901079     0.03528523
    150      2      H           0.01462442    -0.07019786    -0.03805015
    151      1      O          -0.02169814     0.04932296     0.01104649
    152      2      H           0.01547902    -0.00170496     0.03268956
    153      2      H           0.04645751    -0.00722599    -0.01223478
    154      1      O          -0.04407128    -0.02133370     0.03086100
    155      2      H           0.02871669     0.01533480     0.06279444
    156      2      H          -0.00443608     0.02045657    -0.04230415
    157      1      O          -0.00091858    -0.09529540     0.08942550
    158      2      H          -0.02205219     0.08348422     0.02661560
    159      2      H          -0.01706779    -0.04835539    -0.09978931
    160      1      O          -0.03160952     0.12008619     0.05958719
    161      2      H           0.05594969    -0.04480878     0.02222814
    162      2      H          -0.06442657    -0.01536529    -0.02655444
    163      1      O          -0.10211013    -0.02524951     0.02795000
    164      2      H           0.04081557     0.02839439    -0.07188320
    165      2      H           0.07733373     0.04273375     0.02750873
    166      1      O           0.07063610    -0.05539259     0.00880711
    167      2      H           0.01766519    -0.00445638    -0.06342884
    168      2      H          -0.01035693     0.02614802     0.04946075
    169      1      O           0.10808224     0.01793419    -0.05663170
    170      2      H          -0.06309904    -0.05743497     0.02347738
    171      2      H          -0.01996031     0.08404765     0.06839551
    172      1      O           0.02249606     0.00354973    -0.08559417
    173      2      H           0.02322478    -0.04058687     0.08086672
    174      2      H          -0.05097795     0.00488864    -0.04076454
    175      1      O           0.08852650    -0.01659670     0.07472954
    176      2      H          -0.03872315     0.06628346    -0.01171767
    177      2      H          -0.01448541    -0.04938218    -0.03845042
    178      1      O           0.04758894    -0.06587158    -0.05136561
    179      2      H           0.00628773    -0.02243499     0.00372964
    180      2      H          -0.05425881     0.04180207     0.01505130
    181      1      O          -0.07114515    -0.04666176    -0.04391946
    182      2      H          -0.01525033     0.08172636    -0.02789681
    183      2      H           0.06366187     0.03357641     0.05294194
    184      1      O           0.08359990    -0.08125766    -0.02178485
    185      2      H           0.00009979     0.04049423     0.07078845
    186      2      H          -0.06116021     0.03227049    -0.04538611
    187      1      O          -0.05883033    -0.05896385     0.11094101
    188      2      H           0.03460496     0.09877038    -0.06923857
    189      2      H           0.03594007    -0.08255676    -0.02215982
    190      1      O           0.02558548    -0.07127608    -0.04073343
    191      2      H           0.04406133     0.06371061    -0.04799265
    192      2      H          -0.03658891     0.02721378     0.04094662
 SUM OF ATOMIC FORCES           0.30355399     0.03650640    -0.02973709     0.30718404

 -------------------------------------------------------------------------------
 -                                                                             -
 -                                DBCSR STATISTICS                             -
 -                                                                             -
 -------------------------------------------------------------------------------
 COUNTER                                    TOTAL       BLAS       SMM       ACC
 flops     5 x     5 x   256           4318988800       0.0%    100.0%      0.0%
 flops     5 x    13 x   256           5259072000       0.0%    100.0%      0.0%
 flops    13 x     5 x   256           5459417600       0.0%    100.0%      0.0%
 flops    13 x    13 x   256           6980040704       0.0%    100.0%      0.0%
 flops inhomo. stacks                           0       0.0%      0.0%      0.0%
 flops total                        22.017519E+09       0.0%    100.0%      0.0%
 flops max/rank                     22.017519E+09       0.0%    100.0%      0.0%
 matmuls inhomo. stacks                         0       0.0%      0.0%      0.0%
 matmuls total                             740159       0.0%    100.0%      0.0%
 number of processed stacks                 42140       0.0%    100.0%      0.0%
 average stack size                                     0.0      17.6       0.0
 marketing flops                   333.927416E+09
 -------------------------------------------------------------------------------
 # multiplications                            301
 max memory usage/rank               6.027272E+09
 # max total images/rank                        1
 # max 3D layers                                1
 # MPI messages exchanged                       0
 MPI messages size (bytes):
  total size                         0.000000E+00
  min size                           0.000000E+00
  max size                           0.000000E+00
  average size                       0.000000E+00
 MPI breakdown and total messages size (bytes):
             size <=      128                   0                        0
       128 < size <=     8192                   0                        0
      8192 < size <=    32768                   0                        0
     32768 < size <=   131072                   0                        0
    131072 < size <=  4194304                   0                        0
   4194304 < size <= 16777216                   0                        0
  16777216 < size                               0                        0
 -------------------------------------------------------------------------------

 MEMORY| Estimated peak process memory [MiB]                                5745

 -------------------------------------------------------------------------------
 -                                                                             -
 -                           R E F E R E N C E S                               -
 -                                                                             -
 -------------------------------------------------------------------------------
 
 CP2K version 7.1, the CP2K developers group (2019).
 CP2K is freely available from https://www.cp2k.org/ .

 Schuett, Ole; Messmer, Peter; Hutter, Juerg; VandeVondele, Joost. 
 Electronic Structure Calculations on Graphics Processing Units, John
 Wiley & Sons, Ltd, 173-190 (2016). 
 GPU-Accelerated Sparse Matrix-Matrix Multiplication for
 Linear Scaling Density Functional Theory.
 https://dx.doi.org/10.1002/9781118670712.ch8

 Borstnik, U; VandeVondele, J; Weber, V; Hutter, J. 
 PARALLEL COMPUTING, 40 (5-6), 47-58 (2014). 
 Sparse matrix multiplication: The distributed block-compressed sparse
 row library.
 https://dx.doi.org/10.1016/j.parco.2014.03.012

 Hutter, J; Iannuzzi, M; Schiffmann, F; VandeVondele, J. 
 WIREs Comput Mol Sci., 4 (1), 15-25 (2014). 
 CP2K: atomistic simulations of condensed matter systems.
 https://dx.doi.org/10.1002/wcms.1159

 Krack, M. 
 THEORETICAL CHEMISTRY ACCOUNTS, 114 (1-3), 145-152 (2005). 
 Pseudopotentials for H to Kr optimized for gradient-corrected
 exchange-correlation functionals.
 https://dx.doi.org/10.1007/s00214-005-0655-y

 VandeVondele, J; Krack, M; Mohamed, F; Parrinello, M; Chassaing, T;
 Hutter, J. COMPUTER PHYSICS COMMUNICATIONS, 167 (2), 103-128 (2005). 
 QUICKSTEP: Fast and accurate density functional calculations using a
 mixed Gaussian and plane waves approach.
 https://dx.doi.org/10.1016/j.cpc.2004.12.014

 Frigo, M; Johnson, SG. 
 PROCEEDINGS OF THE IEEE, 93 (2), 216-231 (2005). 
 The design and implementation of FFTW3.
 https://dx.doi.org/10.1109/JPROC.2004.840301

 Hartwigsen, C; Goedecker, S; Hutter, J. 
 PHYSICAL REVIEW B, 58 (7), 3641-3662 (1998). 
 Relativistic separable dual-space Gaussian pseudopotentials from H to Rn.
 https://dx.doi.org/10.1103/PhysRevB.58.3641

 Lippert, G; Hutter, J; Parrinello, M. 
 MOLECULAR PHYSICS, 92 (3), 477-487 (1997). 
 A hybrid Gaussian and plane wave density functional scheme.
 https://dx.doi.org/10.1080/002689797170220

 Goedecker, S; Teter, M; Hutter, J. 
 PHYSICAL REVIEW B, 54 (3), 1703-1710 (1996). 
 Separable dual-space Gaussian pseudopotentials.
 https://dx.doi.org/10.1103/PhysRevB.54.1703


 -------------------------------------------------------------------------------
 -                                                                             -
 -                                T I M I N G                                  -
 -                                                                             -
 -------------------------------------------------------------------------------
 SUBROUTINE                       CALLS  ASD         SELF TIME        TOTAL TIME
                                MAXIMUM       AVERAGE  MAXIMUM  AVERAGE  MAXIMUM
 CP2K                                 1  1.0    0.214    0.214 2987.877 2987.877
 qs_forces                            1  2.0    0.000    0.000 2985.253 2985.253
 qs_energies                          1  3.0    0.000    0.000 2984.482 2984.482
 scf_env_do_scf                       1  4.0    0.001    0.001 2981.668 2981.668
 scf_env_do_scf_inner_loop          300  5.0    0.061    0.061 2981.668 2981.668
 qs_scf_new_mos                     300  6.0    0.010    0.010 1954.972 1954.972
 eigensolver                        300  7.0    0.044    0.044 1922.848 1922.848
 cp_fm_syevd                        300  8.0 1265.094 1265.094 1266.950 1266.950
 cp_fm_cholesky_restore             900  8.0  654.763  654.763  654.763  654.763
 gspace_mixing                      299  6.0    8.072    8.072  578.544  578.544
 broyden_mixing                     299  7.0  522.872  522.872  522.874  522.874
 rebuild_ks_matrix                  301  7.0    0.001    0.001  232.540  232.540
 qs_ks_build_kohn_sham_matrix       301  8.0    0.072    0.072  232.539  232.539
 qs_ks_update_qs_env                300  6.0    0.003    0.003  232.209  232.209
 pw_transfer                       3912  9.9    0.339    0.339  226.988  226.988
 fft_wrap_pw1pw2                   3310 10.9    0.040    0.040  220.805  220.805
 qs_rho_update_rho                  301  6.0    0.004    0.004  215.136  215.136
 calculate_rho_elec                 301  7.0  101.078  101.078  215.133  215.133
 fft_wrap_pw1pw2_70                1504 11.2   22.580   22.580  204.808  204.808
 density_rs2pw                      301  8.0    0.027    0.027  111.007  111.007
 fft3d_s                           3311 12.9  102.847  102.847  102.872  102.872
 pw_scatter_s                      1804 13.2   76.679   76.679   76.679   76.679
 pw_poisson_solve                   301  9.0   68.066   68.066   74.032   74.032
 sum_up_and_integrate               301  9.0    3.711    3.711   64.302   64.302
 integrate_v_rspace                 301 10.0    7.798    7.798   60.590   60.590
 -------------------------------------------------------------------------------

 The number of warnings for this run is : 1
 
 -------------------------------------------------------------------------------
  **** **** ******  **  PROGRAM ENDED AT                 2021-01-15 19:36:20.810
 ***** ** ***  *** **   PROGRAM RAN ON                                   gnode52
 **    ****   ******    PROGRAM RAN BY                               mayank.modi
 ***** **    ** ** **   PROGRAM PROCESS ID                                  8558
  **** **  *******  **  PROGRAM STOPPED IN /home/mayank.modi/ab-initio-thermodyn
                                           amics-of-water/mayank/cp2k_energy_cal
                                           culations
