 DBCSR| CPU Multiplication driver                                           XSMM
 DBCSR| Multrec recursion limit                                              512
 DBCSR| Multiplication stack size                                           1000
 DBCSR| Maximum elements for images                                    UNLIMITED
 DBCSR| Multiplicative factor virtual images                                   1
 DBCSR| Use multiplication densification                                       T
 DBCSR| Multiplication size stacks                                             3


  **** **** ******  **  PROGRAM STARTED AT               2021-02-26 14:18:33.518
 ***** ** ***  *** **   PROGRAM STARTED ON                               gnode75
 **    ****   ******    PROGRAM STARTED BY                           mayank.modi
 ***** **    ** ** **   PROGRAM PROCESS ID                                   667
  **** **  *******  **  PROGRAM STARTED IN /home/mayank.modi/ab-initio-thermodyn
                                           amics-of-water/mayank/cp2k_energy_cal
                                           culations

 CP2K| version string:                                          CP2K version 7.1
 CP2K| source code revision number:                                  git:e635599
 CP2K| cp2kflags: omp libint fftw3 libxc xsmm spglib                            
 CP2K| is freely available from                            https://www.cp2k.org/
 CP2K| Program compiled at                          Mon Dec 23 19:23:12 CET 2019
 CP2K| Program compiled on                                                pc9404
 CP2K| Program compiled for                                Linux-x86-64-gfortran
 CP2K| Data directory path                                        /opt/cp2k/data
 CP2K| Input file name                   input_training_correct_cell/input349.in

 GLOBAL| Force Environment number                                              1
 GLOBAL| Basis set file name                                           BASIS_SET
 GLOBAL| Potential file name                                      GTH_POTENTIALS
 GLOBAL| MM Potential file name                                     MM_POTENTIAL
 GLOBAL| Coordinate file name                                      __STD_INPUT__
 GLOBAL| Method name                                                        CP2K
 GLOBAL| Project name                                                   H2O_bulk
 GLOBAL| Preferred FFT library                                             FFTW3
 GLOBAL| Preferred diagonalization lib.                                       SL
 GLOBAL| Run type                                                   ENERGY_FORCE
 GLOBAL| All-to-all communication in single precision                          F
 GLOBAL| FFTs using library dependent lengths                                  F
 GLOBAL| Global print level                                                  LOW
 GLOBAL| MPI I/O enabled                                                       T
 GLOBAL| Total number of message passing processes                             1
 GLOBAL| Number of threads for this process                                   36
 GLOBAL| This output is from process                                           0
 GLOBAL| CPU model name                Intel(R) Xeon(R) CPU E5-2640 v4 @ 2.40GHz
 GLOBAL| CPUID                                                              1002
 GLOBAL| Compiled for CPUID                                                    0

 MEMORY| system memory details [Kb]
 MEMORY|                        rank 0           min           max       average
 MEMORY| MemTotal            131893432     131893432     131893432     131893432
 MEMORY| MemFree             123193660     123193660     123193660     123193660
 MEMORY| Buffers               1045156       1045156       1045156       1045156
 MEMORY| Cached                6255692       6255692       6255692       6255692
 MEMORY| Slab                   959236        959236        959236        959236
 MEMORY| SReclaimable           704816        704816        704816        704816
 MEMORY| MemLikelyFree       131199324     131199324     131199324     131199324


 GENERATE|  Preliminary Number of Bonds generated:                             0
 GENERATE|  Achieved consistency in connectivity generation.

 *******************************************************************************
 *******************************************************************************
 **                                                                           **
 **     #####                         ##              ##                      **
 **    ##   ##            ##          ##              ##                      **
 **   ##     ##                       ##            ######                    **
 **   ##     ##  ##   ##  ##   #####  ##  ##   ####   ##    #####    #####    **
 **   ##     ##  ##   ##  ##  ##      ## ##   ##      ##   ##   ##  ##   ##   **
 **   ##  ## ##  ##   ##  ##  ##      ####     ###    ##   ######   ######    **
 **    ##  ###   ##   ##  ##  ##      ## ##      ##   ##   ##       ##        **
 **     #######   #####   ##   #####  ##  ##  ####    ##    #####   ##        **
 **           ##                                                    ##        **
 **                                                                           **
 **                                                ... make the atoms dance   **
 **                                                                           **
 **            Copyright (C) by CP2K developers group (2000 - 2019)           **
 **                                                                           **
 *******************************************************************************


 TOTAL NUMBERS AND MAXIMUM NUMBERS

  Total number of            - Atomic kinds:                                   2
                             - Atoms:                                        192
                             - Shell sets:                                   384
                             - Shells:                                       704
                             - Primitive Cartesian functions:                960
                             - Cartesian basis functions:                   1536
                             - Spherical basis functions:                   1472

  Maximum angular momentum of- Orbital basis functions:                        2
                             - Local part of the GTH pseudopotential:          2
                             - Non-local part of the GTH pseudopotential:      0


 SCF PARAMETERS         Density guess:                                    ATOMIC
                        --------------------------------------------------------
                        max_scf:                                             300
                        max_scf_history:                                       0
                        max_diis:                                              4
                        --------------------------------------------------------
                        eps_scf:                                        1.00E-07
                        eps_scf_history:                                0.00E+00
                        eps_diis:                                       1.00E-01
                        eps_eigval:                                     1.00E-05
                        --------------------------------------------------------
                        level_shift [a.u.]:                                 0.00
                        --------------------------------------------------------
                        Mixing method:                            BROYDEN_MIXING
                                                charge density mixing in g-space
                        --------------------------------------------------------
                        No outer SCF

 Number of electrons:                                                        512
 Number of occupied orbitals:                                                256
 Number of molecular orbitals:                                               256

 Number of orbital functions:                                               1472
 Number of independent orbital functions:                                   1472

 Extrapolation method: initial_guess


 SCF WAVEFUNCTION OPTIMIZATION

  Step     Update method      Time    Convergence         Total energy    Change
  ------------------------------------------------------------------------------
     1 NoMix/Diag. 0.40E+00    7.2     0.60676267     -1064.3369340510 -1.06E+03
     2 Broy./Diag. 0.40E+00    7.9     1.92340423      -997.8668494234  6.65E+01
     3 Broy./Diag. 0.40E+00    8.1     1.95592426     -1257.1283339563 -2.59E+02
     4 Broy./Diag. 0.40E+00    8.1     1.67663350     -1110.3158648108  1.47E+02
     5 Broy./Diag. 0.40E+00    8.6     1.77218487     -1096.5067867022  1.38E+01
     6 Broy./Diag. 0.40E+00    8.9     1.67640395     -1094.5547836044  1.95E+00
     7 Broy./Diag. 0.40E+00    8.9     1.65233622     -1087.1195484596  7.44E+00
     8 Broy./Diag. 0.40E+00    9.1     1.70789619     -1082.1503204399  4.97E+00
     9 Broy./Diag. 0.40E+00    9.1     1.77674625     -1082.2146333131 -6.43E-02
    10 Broy./Diag. 0.40E+00    9.7     0.42715103     -1077.9329091015  4.28E+00
    11 Broy./Diag. 0.40E+00    9.6     1.44791909     -1077.8238580809  1.09E-01
    12 Broy./Diag. 0.40E+00    9.3     1.65400473     -1078.2019179734 -3.78E-01
    13 Broy./Diag. 0.40E+00    9.5     1.71132946     -1071.5683015633  6.63E+00
    14 Broy./Diag. 0.40E+00    9.3     1.73570392     -1074.9078052683 -3.34E+00
    15 Broy./Diag. 0.40E+00    9.5     1.50254935     -1079.5032576407 -4.60E+00
    16 Broy./Diag. 0.40E+00    9.4     0.75689519     -1078.1235384711  1.38E+00
    17 Broy./Diag. 0.40E+00    9.3     0.13784046     -1075.5138356736  2.61E+00
    18 Broy./Diag. 0.40E+00    9.4     0.11202770     -1074.5855633516  9.28E-01
    19 Broy./Diag. 0.40E+00    9.3     1.24105486     -1075.8754516154 -1.29E+00
    20 Broy./Diag. 0.40E+00    9.0     1.22440665     -1076.8526599246 -9.77E-01
    21 Broy./Diag. 0.40E+00    9.6     1.64689048     -1076.2296367933  6.23E-01
    22 Broy./Diag. 0.40E+00    9.5     1.72315362     -1078.7956195842 -2.57E+00
    23 Broy./Diag. 0.40E+00    9.5     1.71119841     -1075.6593485699  3.14E+00
    24 Broy./Diag. 0.40E+00    9.7     1.72171411     -1079.1452481937 -3.49E+00
    25 Broy./Diag. 0.40E+00    9.5     1.58955580     -1077.8392850355  1.31E+00
    26 Broy./Diag. 0.40E+00    9.3     1.15039286     -1075.6976526986  2.14E+00
    27 Broy./Diag. 0.40E+00    9.2     0.08320348     -1078.0628888915 -2.37E+00
    28 Broy./Diag. 0.40E+00    9.5     1.28511830     -1077.9209823765  1.42E-01
    29 Broy./Diag. 0.40E+00    9.4     1.07904968     -1075.7728601845  2.15E+00
    30 Broy./Diag. 0.40E+00    9.7     1.08579230     -1076.9478439669 -1.17E+00
    31 Broy./Diag. 0.40E+00    9.4     1.32719298     -1074.8921436303  2.06E+00
    32 Broy./Diag. 0.40E+00    9.4     1.34669658     -1077.7548928636 -2.86E+00
    33 Broy./Diag. 0.40E+00    9.5     1.68726763     -1075.9074080510  1.85E+00
    34 Broy./Diag. 0.40E+00    9.5     1.72862639     -1076.8939157468 -9.87E-01
    35 Broy./Diag. 0.40E+00    9.6     1.65344516     -1078.3100577151 -1.42E+00
    36 Broy./Diag. 0.40E+00    9.5     0.18207431     -1075.1248928685  3.19E+00
    37 Broy./Diag. 0.40E+00    9.5     1.71951103     -1075.9987337005 -8.74E-01
    38 Broy./Diag. 0.40E+00    9.5     1.70483231     -1079.4445312007 -3.45E+00
    39 Broy./Diag. 0.40E+00    9.4     1.70766118     -1077.6608989148  1.78E+00
    40 Broy./Diag. 0.40E+00    9.7     1.72807156     -1077.0276219188  6.33E-01
    41 Broy./Diag. 0.40E+00    9.3     1.25330847     -1076.6431906158  3.84E-01
    42 Broy./Diag. 0.40E+00    9.3     1.27280816     -1077.4034420601 -7.60E-01
    43 Broy./Diag. 0.40E+00    9.1     0.13399307     -1075.7043170212  1.70E+00
    44 Broy./Diag. 0.40E+00    9.5     1.60339011     -1075.4379072348  2.66E-01
    45 Broy./Diag. 0.40E+00    9.4     1.63328938     -1078.9488035093 -3.51E+00
    46 Broy./Diag. 0.40E+00    9.5     0.04869736     -1075.7058382386  3.24E+00
    47 Broy./Diag. 0.40E+00    9.5     0.11817960     -1075.7791299056 -7.33E-02
    48 Broy./Diag. 0.40E+00    9.5     1.22703268     -1075.5072724459  2.72E-01
    49 Broy./Diag. 0.40E+00    9.5     1.70755050     -1077.7894206449 -2.28E+00
    50 Broy./Diag. 0.40E+00    9.3     1.73645036     -1076.7819064297  1.01E+00
    51 Broy./Diag. 0.40E+00    9.5     1.12089757     -1075.3708102007  1.41E+00
    52 Broy./Diag. 0.40E+00    9.5     1.13082624     -1077.9405974386 -2.57E+00
    53 Broy./Diag. 0.40E+00    9.6     0.97718212     -1075.7836760649  2.16E+00
    54 Broy./Diag. 0.40E+00    9.4     0.78451859     -1077.5636404647 -1.78E+00
    55 Broy./Diag. 0.40E+00    9.4     1.61643499     -1079.1875286928 -1.62E+00
    56 Broy./Diag. 0.40E+00    9.5     0.07057387     -1075.5889324623  3.60E+00
    57 Broy./Diag. 0.40E+00    9.5     0.06783202     -1075.5010989806  8.78E-02
    58 Broy./Diag. 0.40E+00    9.8     1.55634185     -1075.7143363437 -2.13E-01
    59 Broy./Diag. 0.40E+00    9.3     1.71428672     -1079.1844996714 -3.47E+00
    60 Broy./Diag. 0.40E+00    9.1     1.74994976     -1076.8260963339  2.36E+00
    61 Broy./Diag. 0.40E+00    9.5     1.10457932     -1075.0333511373  1.79E+00
    62 Broy./Diag. 0.40E+00    9.3     1.16198105     -1077.9886948326 -2.96E+00
    63 Broy./Diag. 0.40E+00    9.5     1.23599351     -1077.7699250941  2.19E-01
    64 Broy./Diag. 0.40E+00    9.4     1.06626364     -1077.5935675867  1.76E-01
    65 Broy./Diag. 0.40E+00    9.3     1.61636459     -1077.8365229456 -2.43E-01
    66 Broy./Diag. 0.40E+00    9.5     0.10892846     -1077.4761673428  3.60E-01
    67 Broy./Diag. 0.40E+00    9.0     1.25184805     -1077.8517563356 -3.76E-01
    68 Broy./Diag. 0.40E+00    9.3     1.52594288     -1075.5236372931  2.33E+00
    69 Broy./Diag. 0.40E+00    9.3     1.71363704     -1076.9043038357 -1.38E+00
    70 Broy./Diag. 0.40E+00    9.4     1.73264417     -1077.2228466435 -3.19E-01
    71 Broy./Diag. 0.40E+00    9.5     0.08138620     -1075.2438058695  1.98E+00
    72 Broy./Diag. 0.40E+00    9.6     0.05561253     -1076.2864824419 -1.04E+00
    73 Broy./Diag. 0.40E+00    9.7     1.23717024     -1075.5937315486  6.93E-01
    74 Broy./Diag. 0.40E+00    9.6     0.44344451     -1077.1888511641 -1.60E+00
    75 Broy./Diag. 0.40E+00    9.6     1.42557981     -1077.6086492360 -4.20E-01
    76 Broy./Diag. 0.40E+00    9.3     1.67949787     -1075.3192264062  2.29E+00
    77 Broy./Diag. 0.40E+00    9.2     1.74525776     -1079.4185994389 -4.10E+00
    78 Broy./Diag. 0.40E+00    9.8     1.65842046     -1079.1794877924  2.39E-01
    79 Broy./Diag. 0.40E+00    9.5     1.21869001     -1075.2097050119  3.97E+00
    80 Broy./Diag. 0.40E+00    9.4     1.13282116     -1077.5838712731 -2.37E+00
    81 Broy./Diag. 0.40E+00    9.5     0.17491340     -1075.7511056669  1.83E+00
    82 Broy./Diag. 0.40E+00    9.5     0.09520914     -1075.4156068433  3.35E-01
    83 Broy./Diag. 0.40E+00    9.6     1.68453636     -1075.5618503616 -1.46E-01
    84 Broy./Diag. 0.40E+00    9.4     1.70969368     -1077.6662679825 -2.10E+00
    85 Broy./Diag. 0.40E+00    9.4     1.24885309     -1075.4874244985  2.18E+00
    86 Broy./Diag. 0.40E+00    9.0     1.32312545     -1077.8534662168 -2.37E+00
    87 Broy./Diag. 0.40E+00    9.4     0.74083960     -1077.5295668513  3.24E-01
    88 Broy./Diag. 0.40E+00    9.5     1.64656562     -1079.1746468423 -1.65E+00
    89 Broy./Diag. 0.40E+00    9.5     0.58309643     -1075.4595451682  3.72E+00
    90 Broy./Diag. 0.40E+00    9.6     1.01192270     -1075.9448281160 -4.85E-01
    91 Broy./Diag. 0.40E+00    9.5     1.02087236     -1077.6348618224 -1.69E+00
    92 Broy./Diag. 0.40E+00    9.7     0.89112547     -1075.5523340355  2.08E+00
    93 Broy./Diag. 0.40E+00    9.5     1.60925249     -1077.1430272885 -1.59E+00
    94 Broy./Diag. 0.40E+00    9.6     1.71879864     -1077.6874181324 -5.44E-01
    95 Broy./Diag. 0.40E+00    9.5     1.61502869     -1077.6566451772  3.08E-02
    96 Broy./Diag. 0.40E+00    9.3     1.65604926     -1079.0268023173 -1.37E+00
    97 Broy./Diag. 0.40E+00    9.2     1.61542479     -1075.1706028975  3.86E+00
    98 Broy./Diag. 0.40E+00    9.6     1.64464563     -1079.5440627232 -4.37E+00
    99 Broy./Diag. 0.40E+00    9.4     1.31411719     -1075.8837109887  3.66E+00
   100 Broy./Diag. 0.40E+00    9.5     1.27632543     -1076.3843103135 -5.01E-01
   101 Broy./Diag. 0.40E+00    9.5     0.39060725     -1075.4860655053  8.98E-01
   102 Broy./Diag. 0.40E+00    9.4     1.11393975     -1075.6401211101 -1.54E-01
   103 Broy./Diag. 0.40E+00    9.3     1.70132640     -1077.5975556322 -1.96E+00
   104 Broy./Diag. 0.40E+00    9.1     1.74378884     -1079.2872647556 -1.69E+00
   105 Broy./Diag. 0.40E+00    9.2     1.03351896     -1077.7152782556  1.57E+00
   106 Broy./Diag. 0.40E+00    9.6     0.88525875     -1075.5829002507  2.13E+00
   107 Broy./Diag. 0.40E+00    9.5     0.89136919     -1077.1217665314 -1.54E+00
   108 Broy./Diag. 0.40E+00    9.5     1.37464678     -1075.7924851416  1.33E+00
   109 Broy./Diag. 0.40E+00    9.4     1.38800040     -1077.3609944219 -1.57E+00
   110 Broy./Diag. 0.40E+00    9.3     1.52339998     -1077.8685880755 -5.08E-01
   111 Broy./Diag. 0.40E+00    9.0     1.45416614     -1075.2613037993  2.61E+00
   112 Broy./Diag. 0.40E+00    9.4     1.42976110     -1076.9455574331 -1.68E+00
   113 Broy./Diag. 0.40E+00    9.6     1.69242531     -1076.5993617459  3.46E-01
   114 Broy./Diag. 0.40E+00    9.5     1.71376200     -1077.5747888194 -9.75E-01
   115 Broy./Diag. 0.40E+00    9.3     1.07093306     -1077.3734740148  2.01E-01
   116 Broy./Diag. 0.40E+00    9.5     1.59722568     -1076.9755449355  3.98E-01
   117 Broy./Diag. 0.40E+00    9.4     1.48422677     -1075.2626811403  1.71E+00
   118 Broy./Diag. 0.40E+00    9.4     1.50100218     -1077.3110952192 -2.05E+00
   119 Broy./Diag. 0.40E+00    9.8     0.96461173     -1077.1129618160  1.98E-01
   120 Broy./Diag. 0.40E+00    9.4     1.62013144     -1075.6691479747  1.44E+00
   121 Broy./Diag. 0.40E+00    9.5     1.63160068     -1078.9550094928 -3.29E+00
   122 Broy./Diag. 0.40E+00    9.5     1.41810682     -1075.4400582444  3.51E+00
   123 Broy./Diag. 0.40E+00    9.5     1.69432498     -1078.6693275729 -3.23E+00
   124 Broy./Diag. 0.40E+00    9.4     1.73393041     -1077.1974252417  1.47E+00
   125 Broy./Diag. 0.40E+00    9.4     0.88514951     -1075.4027181898  1.79E+00
   126 Broy./Diag. 0.40E+00    9.6     0.89501230     -1077.3001146511 -1.90E+00
   127 Broy./Diag. 0.40E+00    9.6     1.14187056     -1075.4429336723  1.86E+00
   128 Broy./Diag. 0.40E+00    9.4     1.14307860     -1077.7778652628 -2.33E+00
   129 Broy./Diag. 0.40E+00    9.4     0.12736163     -1075.3684377685  2.41E+00
   130 Broy./Diag. 0.40E+00    9.1     1.59516575     -1075.7105728162 -3.42E-01
   131 Broy./Diag. 0.40E+00    9.4     1.63929654     -1078.9730678199 -3.26E+00
   132 Broy./Diag. 0.40E+00    9.3     1.63268883     -1075.5851051710  3.39E+00
   133 Broy./Diag. 0.40E+00    9.4     1.70163774     -1079.3512111581 -3.77E+00
   134 Broy./Diag. 0.40E+00    9.5     1.74104764     -1077.4168669749  1.93E+00
   135 Broy./Diag. 0.40E+00    9.5     1.00834699     -1075.3011317080  2.12E+00
   136 Broy./Diag. 0.40E+00    9.4     0.41568938     -1077.1582536424 -1.86E+00
   137 Broy./Diag. 0.40E+00    9.3     1.24843620     -1077.8639616188 -7.06E-01
   138 Broy./Diag. 0.40E+00    9.1     0.94924501     -1077.3189198286  5.45E-01
   139 Broy./Diag. 0.40E+00    9.6     0.90967287     -1076.3881456315  9.31E-01
   140 Broy./Diag. 0.40E+00    9.3     1.61049018     -1076.2676358086  1.21E-01
   141 Broy./Diag. 0.40E+00    9.0     1.63014097     -1078.9283646017 -2.66E+00
   142 Broy./Diag. 0.40E+00    9.6     1.48633481     -1075.3257615028  3.60E+00
   143 Broy./Diag. 0.40E+00    9.5     1.71116685     -1078.5859786284 -3.26E+00
   144 Broy./Diag. 0.40E+00    9.4     1.74212225     -1077.5127517953  1.07E+00
   145 Broy./Diag. 0.40E+00    9.2     0.11532263     -1075.1826078121  2.33E+00
   146 Broy./Diag. 0.40E+00    9.2     1.09598302     -1075.5488168620 -3.66E-01
   147 Broy./Diag. 0.40E+00    9.2     0.40230031     -1077.6387046930 -2.09E+00
   148 Broy./Diag. 0.40E+00    9.5     0.39484979     -1077.1608937447  4.78E-01
   149 Broy./Diag. 0.40E+00    9.4     0.98637213     -1077.5119533218 -3.51E-01
   150 Broy./Diag. 0.40E+00    9.4     1.59892132     -1075.5503582042  1.96E+00
   151 Broy./Diag. 0.40E+00    9.5     1.62846741     -1078.9004343939 -3.35E+00
   152 Broy./Diag. 0.40E+00    9.3     1.62582761     -1075.4745674787  3.43E+00
   153 Broy./Diag. 0.40E+00    9.4     1.72011802     -1079.3332980206 -3.86E+00
   154 Broy./Diag. 0.40E+00    9.6     1.75570681     -1077.6338794765  1.70E+00
   155 Broy./Diag. 0.40E+00    9.5     1.26826556     -1075.1977549045  2.44E+00
   156 Broy./Diag. 0.40E+00    9.3     0.48850872     -1077.7582830180 -2.56E+00
   157 Broy./Diag. 0.40E+00    9.4     0.69965901     -1077.0159621040  7.42E-01
   158 Broy./Diag. 0.40E+00    9.5     1.38481435     -1076.8828487656  1.33E-01
   159 Broy./Diag. 0.40E+00    9.5     0.97371131     -1076.0635544248  8.19E-01
   160 Broy./Diag. 0.40E+00    9.4     0.76639703     -1077.5624630719 -1.50E+00
   161 Broy./Diag. 0.40E+00    9.5     1.62186499     -1079.0008791279 -1.44E+00
   162 Broy./Diag. 0.40E+00    9.5     1.25051656     -1075.4528697036  3.55E+00
   163 Broy./Diag. 0.40E+00    9.4     1.72085401     -1077.8279308598 -2.38E+00
   164 Broy./Diag. 0.40E+00    9.5     1.73743051     -1077.5167836096  3.11E-01
   165 Broy./Diag. 0.40E+00    9.4     1.06839653     -1075.3417356751  2.18E+00
   166 Broy./Diag. 0.40E+00    9.5     0.42151076     -1078.2399165957 -2.90E+00
   167 Broy./Diag. 0.40E+00    9.4     1.51176755     -1078.4214828106 -1.82E-01
   168 Broy./Diag. 0.40E+00    9.4     1.05258141     -1077.4265881502  9.95E-01
   169 Broy./Diag. 0.40E+00    9.4     0.23567417     -1075.4123343518  2.01E+00
   170 Broy./Diag. 0.40E+00    9.4     1.60493113     -1075.8632789154 -4.51E-01
   171 Broy./Diag. 0.40E+00    9.4     1.62977565     -1079.0417923497 -3.18E+00
   172 Broy./Diag. 0.40E+00    9.6     0.12714744     -1075.4309130127  3.61E+00
   173 Broy./Diag. 0.40E+00    9.4     1.71457676     -1075.6335542627 -2.03E-01
   174 Broy./Diag. 0.40E+00    9.5     1.72403248     -1077.7309755669 -2.10E+00
   175 Broy./Diag. 0.40E+00    9.5     1.27520656     -1077.6733172683  5.77E-02
   176 Broy./Diag. 0.40E+00    9.4     0.45375482     -1077.1971038438  4.76E-01
   177 Broy./Diag. 0.40E+00    9.4     1.05994264     -1077.3584180794 -1.61E-01
   178 Broy./Diag. 0.40E+00    9.6     0.48083409     -1075.4078233052  1.95E+00
   179 Broy./Diag. 0.40E+00    9.4     0.48176981     -1077.0807746285 -1.67E+00
   180 Broy./Diag. 0.40E+00    9.5     1.60529114     -1075.5214707679  1.56E+00
   181 Broy./Diag. 0.40E+00    9.3     1.62667021     -1079.0121102040 -3.49E+00
   182 Broy./Diag. 0.40E+00    9.1     0.06433110     -1075.5080095239  3.50E+00
   183 Broy./Diag. 0.40E+00    9.6     1.70340217     -1075.6403511729 -1.32E-01
   184 Broy./Diag. 0.40E+00    9.3     1.72421006     -1077.7904615748 -2.15E+00
   185 Broy./Diag. 0.40E+00    9.1     1.65587757     -1078.9306902148 -1.14E+00
   186 Broy./Diag. 0.40E+00    8.8     1.05641329     -1075.3172445907  3.61E+00
   187 Broy./Diag. 0.40E+00    8.9     0.41615943     -1077.0415030858 -1.72E+00
   188 Broy./Diag. 0.40E+00    9.5     0.98447152     -1077.5344842990 -4.93E-01
   189 Broy./Diag. 0.40E+00    9.5     0.16482815     -1075.5733927415  1.96E+00
   190 Broy./Diag. 0.40E+00    9.4     1.60756354     -1075.6136757627 -4.03E-02
   191 Broy./Diag. 0.40E+00    9.5     1.63227767     -1079.0156273699 -3.40E+00
   192 Broy./Diag. 0.40E+00    9.5     0.99536449     -1077.5265409494  1.49E+00
   193 Broy./Diag. 0.40E+00    9.5     1.70885933     -1075.9575860921  1.57E+00
   194 Broy./Diag. 0.40E+00    9.5     1.73287202     -1077.0536072564 -1.10E+00
   195 Broy./Diag. 0.40E+00    9.3     0.42263686     -1074.8703814366  2.18E+00
   196 Broy./Diag. 0.40E+00    9.5     1.01865750     -1075.8320871118 -9.62E-01
   197 Broy./Diag. 0.40E+00    9.5     1.02160921     -1077.6572710366 -1.83E+00
   198 Broy./Diag. 0.40E+00    9.4     0.96244649     -1075.6535657943  2.00E+00
   199 Broy./Diag. 0.40E+00    9.5     0.39230095     -1077.1830196873 -1.53E+00
   200 Broy./Diag. 0.40E+00    9.4     0.80273351     -1077.6650226341 -4.82E-01
   201 Broy./Diag. 0.40E+00    9.8     1.68388555     -1079.1943787977 -1.53E+00
   202 Broy./Diag. 0.40E+00    9.5     1.71021667     -1079.0089768927  1.85E-01
   203 Broy./Diag. 0.40E+00    9.5     1.69850799     -1075.2863623648  3.72E+00
   204 Broy./Diag. 0.40E+00    9.3     1.72886311     -1077.6339742256 -2.35E+00
   205 Broy./Diag. 0.40E+00    9.1     1.10527062     -1077.4924065789  1.42E-01
   206 Broy./Diag. 0.40E+00    9.0     0.17664747     -1075.5117015645  1.98E+00
   207 Broy./Diag. 0.40E+00    9.0     1.24413909     -1075.4981019198  1.36E-02
   208 Broy./Diag. 0.40E+00    9.0     0.40519757     -1077.6574056507 -2.16E+00
   209 Broy./Diag. 0.40E+00    9.3     0.40356091     -1077.1449330931  5.12E-01
   210 Broy./Diag. 0.40E+00    9.0     1.60618004     -1077.8251342843 -6.80E-01
   211 Broy./Diag. 0.40E+00    8.9     1.64407368     -1079.0032841716 -1.18E+00
   212 Broy./Diag. 0.40E+00    9.1     0.51430965     -1075.2551231746  3.75E+00
   213 Broy./Diag. 0.40E+00    9.6     1.70123446     -1076.1324742870 -8.77E-01
   214 Broy./Diag. 0.40E+00    9.4     1.72267449     -1077.2260863086 -1.09E+00
   215 Broy./Diag. 0.40E+00    9.4     1.00341434     -1075.5360309451  1.69E+00
   216 Broy./Diag. 0.40E+00    9.4     0.35510145     -1077.6118914893 -2.08E+00
   217 Broy./Diag. 0.40E+00    9.4     1.28227557     -1076.9603756726  6.52E-01
   218 Broy./Diag. 0.40E+00    9.5     1.25371283     -1077.8449901645 -8.85E-01
   219 Broy./Diag. 0.40E+00    9.4     1.25225629     -1075.4906378157  2.35E+00
   220 Broy./Diag. 0.40E+00    9.5     0.98444862     -1077.1047233333 -1.61E+00
   221 Broy./Diag. 0.40E+00    9.5     1.62790758     -1079.1383718927 -2.03E+00
   222 Broy./Diag. 0.40E+00    9.3     0.08005867     -1075.5790186019  3.56E+00
   223 Broy./Diag. 0.40E+00    9.3     1.71108772     -1075.5635652116  1.55E-02
   224 Broy./Diag. 0.40E+00    9.3     1.71656765     -1077.6127635929 -2.05E+00
   225 Broy./Diag. 0.40E+00    9.4     0.93155809     -1077.4719208133  1.41E-01
   226 Broy./Diag. 0.40E+00    9.8     0.95315689     -1076.3918522185  1.08E+00
   227 Broy./Diag. 0.40E+00    9.3     1.59440922     -1075.7303715703  6.61E-01
   228 Broy./Diag. 0.40E+00    9.0     1.60311771     -1077.2628701484 -1.53E+00
   229 Broy./Diag. 0.40E+00    9.3     1.58104415     -1075.3587842406  1.90E+00
   230 Broy./Diag. 0.40E+00    9.5     1.64088860     -1078.7554194581 -3.40E+00
   231 Broy./Diag. 0.40E+00    9.3     1.64900098     -1079.0813949449 -3.26E-01
   232 Broy./Diag. 0.40E+00    9.4     0.12994943     -1075.1950518503  3.89E+00
   233 Broy./Diag. 0.40E+00    9.8     1.69861979     -1075.6861535520 -4.91E-01
   234 Broy./Diag. 0.40E+00    9.3     1.71314498     -1077.0769715795 -1.39E+00
   235 Broy./Diag. 0.40E+00    9.2     0.91054836     -1075.3348279220  1.74E+00
   236 Broy./Diag. 0.40E+00    9.1     0.90509383     -1077.6214783078 -2.29E+00
   237 Broy./Diag. 0.40E+00    9.2     1.09939831     -1075.5928150755  2.03E+00
   238 Broy./Diag. 0.40E+00    9.5     0.65369839     -1077.5105321150 -1.92E+00
   239 Broy./Diag. 0.40E+00    9.4     1.51623871     -1077.6813292207 -1.71E-01
   240 Broy./Diag. 0.40E+00    9.4     1.74369785     -1079.1348239248 -1.45E+00
   241 Broy./Diag. 0.40E+00    9.5     1.67513802     -1078.9465562298  1.88E-01
   242 Broy./Diag. 0.40E+00    9.4     1.29237883     -1075.2397516441  3.71E+00
   243 Broy./Diag. 0.40E+00    9.5     0.03837375     -1077.6852176142 -2.45E+00
   244 Broy./Diag. 0.40E+00    9.7     0.03723925     -1077.8048482467 -1.20E-01
   245 Broy./Diag. 0.40E+00    9.3     1.35699183     -1077.6590191856  1.46E-01
   246 Broy./Diag. 0.40E+00    9.1     1.02746573     -1076.8759471054  7.83E-01
   247 Broy./Diag. 0.40E+00    8.9     1.68999545     -1075.3354508069  1.54E+00
   248 Broy./Diag. 0.40E+00    8.9     0.01974929     -1077.0773358169 -1.74E+00
   249 Broy./Diag. 0.40E+00    9.4     0.01272425     -1077.0761551156  1.18E-03
   250 Broy./Diag. 0.40E+00    9.3     1.72991621     -1077.0791297415 -2.97E-03
   251 Broy./Diag. 0.40E+00    9.4     1.36161188     -1077.4183296799 -3.39E-01
   252 Broy./Diag. 0.40E+00    9.8     1.41112775     -1077.9073137154 -4.89E-01
   253 Broy./Diag. 0.40E+00    9.5     0.40364994     -1077.2039489902  7.03E-01
   254 Broy./Diag. 0.40E+00    9.7     1.08281720     -1076.9057039208  2.98E-01
   255 Broy./Diag. 0.40E+00    9.3     1.31066614     -1076.9614497311 -5.57E-02
   256 Broy./Diag. 0.40E+00    9.3     1.62029728     -1074.9907445116  1.97E+00
   257 Broy./Diag. 0.40E+00    9.4     1.61887308     -1077.2193387529 -2.23E+00
   258 Broy./Diag. 0.40E+00    9.6     0.12919183     -1075.5596090621  1.66E+00
   259 Broy./Diag. 0.40E+00    9.4     1.71787012     -1075.2074907941  3.52E-01
   260 Broy./Diag. 0.40E+00    9.4     1.73459195     -1077.8945835388 -2.69E+00
   261 Broy./Diag. 0.40E+00    9.6     1.63200942     -1076.9289654116  9.66E-01
   262 Broy./Diag. 0.40E+00    9.3     1.75151388     -1078.9958808879 -2.07E+00
   263 Broy./Diag. 0.40E+00    9.0     1.34531333     -1077.2039520096  1.79E+00
   264 Broy./Diag. 0.40E+00    9.2     1.57278754     -1077.3770182415 -1.73E-01
   265 Broy./Diag. 0.40E+00    9.5     0.12063228     -1074.9444329977  2.43E+00
   266 Broy./Diag. 0.40E+00    9.5     1.21920459     -1075.8138711116 -8.69E-01
   267 Broy./Diag. 0.40E+00    9.5     1.21304679     -1077.6390696568 -1.83E+00
   268 Broy./Diag. 0.40E+00    9.5     0.12354836     -1075.4068956599  2.23E+00
   269 Broy./Diag. 0.40E+00    9.4     1.70794715     -1075.8854829167 -4.79E-01
   270 Broy./Diag. 0.40E+00    9.4     1.72621520     -1077.9576895728 -2.07E+00
   271 Broy./Diag. 0.40E+00    9.4     1.13395419     -1077.5317067829  4.26E-01
   272 Broy./Diag. 0.40E+00    9.6     1.60197398     -1075.4900339224  2.04E+00
   273 Broy./Diag. 0.40E+00    9.4     1.63129084     -1079.0937949270 -3.60E+00
   274 Broy./Diag. 0.40E+00    9.5     1.41787767     -1077.0564262151  2.04E+00
   275 Broy./Diag. 0.40E+00    9.4     1.41002185     -1077.3786977847 -3.22E-01
   276 Broy./Diag. 0.40E+00    9.4     1.59165474     -1077.5745678036 -1.96E-01
   277 Broy./Diag. 0.40E+00    9.6     1.61317433     -1076.9588321953  6.16E-01
   278 Broy./Diag. 0.40E+00    9.6     0.39173511     -1075.6987428059  1.26E+00
   279 Broy./Diag. 0.40E+00    9.5     1.71041974     -1075.3184730914  3.80E-01
   280 Broy./Diag. 0.40E+00    9.5     1.72132395     -1077.9027390731 -2.58E+00
   281 Broy./Diag. 0.40E+00    9.5     1.33981791     -1075.5868599407  2.32E+00
   282 Broy./Diag. 0.40E+00    9.5     1.09642624     -1077.6464141752 -2.06E+00
   283 Broy./Diag. 0.40E+00    9.4     1.63522344     -1079.0431752844 -1.40E+00
   284 Broy./Diag. 0.40E+00    8.9     0.66184951     -1075.7958872934  3.25E+00
   285 Broy./Diag. 0.40E+00    9.0     1.13558718     -1075.8750920773 -7.92E-02
   286 Broy./Diag. 0.40E+00    8.7     1.41272727     -1078.2321365325 -2.36E+00
   287 Broy./Diag. 0.40E+00    9.3     0.40729337     -1075.2276760790  3.00E+00
   288 Broy./Diag. 0.40E+00    9.7     0.36814957     -1076.0763643770 -8.49E-01
   289 Broy./Diag. 0.40E+00    9.4     1.70510645     -1075.5983462924  4.78E-01
   290 Broy./Diag. 0.40E+00    9.6     1.71519372     -1077.2372455062 -1.64E+00
   291 Broy./Diag. 0.40E+00    9.6     0.54498590     -1077.0775544111  1.60E-01
   292 Broy./Diag. 0.40E+00    9.5     0.96902679     -1077.5355908999 -4.58E-01
   293 Broy./Diag. 0.40E+00    9.7     1.64259873     -1079.0009254118 -1.47E+00
   294 Broy./Diag. 0.40E+00    9.5     1.18322318     -1075.3961384894  3.60E+00
   295 Broy./Diag. 0.40E+00    9.3     1.17965362     -1077.6765422051 -2.28E+00
   296 Broy./Diag. 0.40E+00    9.5     1.15890964     -1075.5872516430  2.09E+00
   297 Broy./Diag. 0.40E+00    9.5     1.13653645     -1077.6033044871 -2.02E+00
   298 Broy./Diag. 0.40E+00    9.6     1.00331229     -1075.7131178848  1.89E+00
   299 Broy./Diag. 0.40E+00    9.3     1.69855970     -1077.5690492899 -1.86E+00
   300 Broy./Diag. 0.40E+00    9.5     1.73043983     -1077.0132426103  5.56E-01

  Leaving inner SCF loop after reaching   300 steps.


  Electronic density on regular grids:       -512.0000821914       -0.0000821914
  Core density on regular grids:              511.9997779668       -0.0002220332
  Total charge density on r-space grids:       -0.0003042246
  Total charge density g-space grids:          -0.0003042246

  Overlap energy of the core charge distribution:               0.00000000000000
  Self energy of the core charge distribution:              -2838.21791979120962
  Core Hamiltonian energy:                                    759.23903940534365
  Hartree energy:                                            1240.74537612869312
  Exchange-correlation energy:                               -238.77973835313838

  Total energy:                                             -1077.01324261031118

 *** WARNING in qs_scf.F:542 :: SCF run NOT converged ***


 ENERGY| Total FORCE_EVAL ( QS ) energy (a.u.):            -1076.313115553728949


 ATOMIC FORCES in [a.u.]

 # Atom   Kind   Element          X              Y              Z
      1      1      O           0.04518357     0.07909903    -0.00623034
      2      2      H           0.01327167    -0.05088406     0.01827532
      3      2      H          -0.03502636    -0.01348628    -0.05145260
      4      1      O          -0.05796845    -0.02456693     0.04260433
      5      2      H           0.01474563     0.08585222    -0.04301744
      6      2      H           0.04699679    -0.06406229     0.03218122
      7      1      O          -0.03606549    -0.01686770    -0.06568761
      8      2      H          -0.03722235     0.07060696    -0.01818667
      9      2      H           0.04509833    -0.02203440     0.04363610
     10      1      O          -0.10748655     0.01644365    -0.02629484
     11      2      H           0.01075507     0.01395385     0.08478804
     12      2      H           0.07352645     0.04335244    -0.03705734
     13      1      O          -0.08249660     0.07932494    -0.07140960
     14      2      H           0.02647130     0.00344474     0.08253831
     15      2      H           0.07078014    -0.02477457    -0.03975300
     16      1      O          -0.08090078     0.04101027     0.03451681
     17      2      H           0.05263989     0.00570846     0.00799370
     18      2      H           0.01136636     0.00320772    -0.09055119
     19      1      O          -0.05680915     0.05346930    -0.05626466
     20      2      H           0.00207575    -0.09013242    -0.02569898
     21      2      H           0.07491926     0.00544480     0.03490714
     22      1      O          -0.02171934    -0.06472665    -0.05025898
     23      2      H          -0.03300231     0.07669129     0.05066790
     24      2      H           0.08795704    -0.04234629     0.01848751
     25      1      O          -0.06400560    -0.07809110     0.03291143
     26      2      H           0.01734494     0.03454729    -0.04647712
     27      2      H           0.00823854     0.01495059     0.06536430
     28      1      O          -0.07055287     0.10417248     0.04491281
     29      2      H           0.05003775    -0.03669978    -0.09147992
     30      2      H           0.04086522    -0.03163290     0.06333855
     31      1      O           0.01006143    -0.11010368    -0.05509895
     32      2      H          -0.05285582     0.04407734    -0.01993817
     33      2      H           0.02804136     0.02929412     0.05468205
     34      1      O           0.06427976    -0.05278060     0.04962899
     35      2      H          -0.06453567     0.00597463    -0.02824136
     36      2      H           0.02909398     0.05727408     0.03095530
     37      1      O           0.04410543    -0.00021268     0.08490336
     38      2      H           0.02954876    -0.08458672    -0.05562682
     39      2      H          -0.08816847     0.00826942    -0.05530768
     40      1      O          -0.06434175    -0.01427977     0.08980599
     41      2      H          -0.04336669     0.07203843    -0.01030924
     42      2      H           0.06741426    -0.02924454    -0.06019011
     43      1      O          -0.11130450     0.02673046    -0.09180628
     44      2      H           0.06937038     0.01018720     0.05439926
     45      2      H          -0.00520831    -0.09494497    -0.01251304
     46      1      O          -0.07607686    -0.10855958     0.02579237
     47      2      H          -0.01103733     0.05869476    -0.01175847
     48      2      H           0.08900313    -0.00590087     0.02257753
     49      1      O          -0.01111208    -0.09467805    -0.10186063
     50      2      H           0.05053093    -0.01427151     0.07679255
     51      2      H          -0.04608381     0.06185553    -0.02198580
     52      1      O          -0.06677356    -0.07622603     0.08224302
     53      2      H          -0.05208583    -0.01940385    -0.05516735
     54      2      H           0.04724730     0.08096418    -0.00191703
     55      1      O          -0.02704534     0.11429706     0.02561958
     56      2      H          -0.00486191    -0.01298935    -0.06295290
     57      2      H           0.02189372    -0.02816448     0.04319497
     58      1      O           0.02338303    -0.13038691    -0.04522123
     59      2      H          -0.08844400     0.06869459     0.00704705
     60      2      H           0.02431481     0.00929855     0.05251541
     61      1      O          -0.04669495    -0.02338679     0.01506051
     62      2      H          -0.00446031     0.06657545    -0.04561981
     63      2      H           0.06651938    -0.02291322     0.01928230
     64      1      O           0.05651746    -0.02581526     0.06059996
     65      2      H          -0.01819455     0.08068953     0.04171353
     66      2      H           0.00724057    -0.00967072    -0.05859038
     67      1      O           0.10493323    -0.02787662     0.00998581
     68      2      H          -0.01814046     0.05999358     0.04751108
     69      2      H          -0.09044441    -0.02797713    -0.02434887
     70      1      O          -0.07983299    -0.09741845     0.03921759
     71      2      H          -0.02396153     0.04289834    -0.09081524
     72      2      H           0.05718507     0.01927279    -0.00718641
     73      1      O           0.01861729     0.03190012     0.02122266
     74      2      H           0.08267362     0.04194667    -0.01180276
     75      2      H          -0.00729151    -0.01497151    -0.07204219
     76      1      O           0.04104730     0.04238690     0.00262894
     77      2      H           0.04418145    -0.04707016    -0.00276880
     78      2      H          -0.03259798    -0.01141653    -0.05306589
     79      1      O          -0.04075317    -0.08691952    -0.04828199
     80      2      H          -0.00280976     0.06989556     0.02779926
     81      2      H          -0.05817768    -0.04430373     0.09915524
     82      1      O           0.05445471     0.03968417     0.06980137
     83      2      H           0.01595625     0.02681491    -0.08472379
     84      2      H          -0.06446819    -0.03281971    -0.01090315
     85      1      O           0.06125508    -0.00781214     0.04535725
     86      2      H          -0.06647859    -0.03524036     0.05050814
     87      2      H          -0.02237124    -0.00729538    -0.05409246
     88      1      O           0.03953307    -0.08650237     0.01457012
     89      2      H          -0.04642191     0.06953654     0.03963734
     90      2      H           0.06816096     0.02190009    -0.05739787
     91      1      O          -0.06907450     0.03504850    -0.09817753
     92      2      H           0.04871419    -0.08743133    -0.04130520
     93      2      H           0.00112055     0.02937525     0.06519349
     94      1      O           0.01812415     0.04826264     0.09060954
     95      2      H          -0.09575042    -0.00584402     0.01873505
     96      2      H           0.02960458    -0.04476024    -0.04010557
     97      1      O           0.01994034     0.02276518     0.11808604
     98      2      H           0.07020484    -0.03978941    -0.04275020
     99      2      H          -0.05803917    -0.01115576    -0.06797568
    100      1      O          -0.03002415     0.04047279    -0.01236132
    101      2      H           0.01298372     0.00683656     0.04010079
    102      2      H           0.04748512    -0.00577169    -0.05342247
    103      1      O          -0.10019086    -0.04725295    -0.02102249
    104      2      H           0.00829994     0.08949359     0.03542242
    105      2      H           0.06547347    -0.01164162     0.01801606
    106      1      O           0.01101812    -0.07382166     0.02599580
    107      2      H           0.00846884     0.05134508     0.01351100
    108      2      H          -0.02377124    -0.00921252    -0.08375049
    109      1      O           0.00892400    -0.01002342    -0.03334926
    110      2      H          -0.05828869     0.02428756     0.06025006
    111      2      H           0.05851579     0.02584253     0.01013824
    112      1      O           0.06334355    -0.08059582    -0.03125433
    113      2      H           0.00617261    -0.00661301    -0.01340302
    114      2      H          -0.00696057     0.06537494     0.05559804
    115      1      O          -0.04176269     0.07103141     0.00712343
    116      2      H           0.05357653    -0.06576069    -0.03128230
    117      2      H          -0.05515381    -0.02569524     0.03802976
    118      1      O          -0.04855949     0.06141428     0.00629202
    119      2      H           0.01903415    -0.03754001    -0.04473109
    120      2      H          -0.04533417    -0.05476485     0.05447266
    121      1      O           0.12385947    -0.05817949     0.00098127
    122      2      H          -0.01648993     0.03599176    -0.06031091
    123      2      H          -0.06541417    -0.01182448     0.06665951
    124      1      O          -0.08280416    -0.05166091    -0.09859281
    125      2      H           0.01032399     0.05198358    -0.00346571
    126      2      H          -0.00287157    -0.03130237     0.08276347
    127      1      O          -0.03817212     0.04109640     0.06396313
    128      2      H           0.04608150    -0.01951318    -0.02928828
    129      2      H          -0.05727875    -0.03879238     0.02798777
    130      1      O           0.05228119     0.05027516     0.04413114
    131      2      H          -0.03713198    -0.02446940     0.01140023
    132      2      H          -0.01780038     0.00726151    -0.05880165
    133      1      O          -0.02715002    -0.08199491     0.11804549
    134      2      H          -0.02836564     0.07418571    -0.03575497
    135      2      H           0.05250079    -0.02305536    -0.06018591
    136      1      O          -0.12210374     0.07962510     0.01927301
    137      2      H           0.04531479     0.02254761     0.07220566
    138      2      H           0.02079236    -0.05310590    -0.01278677
    139      1      O           0.00270791    -0.04562859     0.03906976
    140      2      H          -0.05795134     0.04700561    -0.05308257
    141      2      H          -0.00458592     0.06520475     0.04795043
    142      1      O          -0.11773836     0.08174039    -0.05583260
    143      2      H           0.09079120     0.01484346    -0.00309194
    144      2      H           0.00727798    -0.07937850     0.02636400
    145      1      O           0.09629365    -0.03324523    -0.06693990
    146      2      H          -0.02947182     0.02685485     0.07041728
    147      2      H          -0.05289714     0.00505253    -0.05989021
    148      1      O           0.01747295     0.07480259    -0.09987180
    149      2      H          -0.00436025     0.04289020     0.08562994
    150      2      H           0.00269330    -0.08088262     0.01231625
    151      1      O          -0.04725028    -0.09900518    -0.08847274
    152      2      H          -0.03038366     0.01264461     0.07073785
    153      2      H           0.03104532     0.06325125     0.00195946
    154      1      O           0.00092601     0.06159067     0.04787579
    155      2      H          -0.04728881     0.05605358    -0.03136024
    156      2      H           0.04010055    -0.08687682    -0.05683773
    157      1      O          -0.03243932     0.00511745    -0.07562435
    158      2      H           0.06172220    -0.02533328     0.03669150
    159      2      H          -0.05084122     0.05249208     0.03260332
    160      1      O           0.04190779     0.08521957    -0.04254919
    161      2      H          -0.06940363     0.01054530     0.00861342
    162      2      H          -0.00040613    -0.04665825    -0.04660198
    163      1      O          -0.08796463     0.05852372     0.11483143
    164      2      H           0.06431637     0.00555805    -0.02143240
    165      2      H          -0.03019745    -0.07970106    -0.03203759
    166      1      O          -0.10669777     0.02585797     0.03196133
    167      2      H           0.07157669     0.02689526     0.04735798
    168      2      H           0.01644700    -0.06004028    -0.06994843
    169      1      O           0.12513739     0.07977394     0.00301144
    170      2      H          -0.04822234    -0.01905070     0.04716084
    171      2      H          -0.03006270    -0.01940830    -0.07916663
    172      1      O          -0.08505189    -0.02715475    -0.01151198
    173      2      H          -0.01273172     0.04386584    -0.02772353
    174      2      H           0.08311597     0.00779914    -0.01475413
    175      1      O           0.02610685    -0.11980783    -0.01201312
    176      2      H          -0.07027341     0.03222501     0.02249283
    177      2      H           0.06914407     0.02811314     0.04814551
    178      1      O           0.06294499    -0.08955893     0.02534075
    179      2      H           0.03642120     0.05650777     0.06557234
    180      2      H          -0.03553308     0.02706124    -0.05101944
    181      1      O          -0.11697747     0.00763724    -0.06555820
    182      2      H           0.00861186     0.05845665     0.04342777
    183      2      H           0.08395400    -0.04132658    -0.01963607
    184      1      O           0.01057906     0.03539125    -0.04496200
    185      2      H           0.02230579     0.01978777     0.06663713
    186      2      H          -0.02467759    -0.06199706    -0.02178543
    187      1      O           0.09912045    -0.00307374    -0.00654836
    188      2      H          -0.01261433     0.05981403     0.02766534
    189      2      H          -0.08066458    -0.06146895     0.01560494
    190      1      O           0.05754020    -0.12071374    -0.01004601
    191      2      H          -0.01368326     0.05370614    -0.07645318
    192      2      H          -0.01913181     0.07357711     0.04251152
 SUM OF ATOMIC FORCES          -0.42639438     0.07447073    -0.04191744     0.43487370

 -------------------------------------------------------------------------------
 -                                                                             -
 -                                DBCSR STATISTICS                             -
 -                                                                             -
 -------------------------------------------------------------------------------
 COUNTER                                    TOTAL       BLAS       SMM       ACC
 flops     5 x     5 x   256           5359244800       0.0%    100.0%      0.0%
 flops    13 x     5 x   256           6451128320       0.0%    100.0%      0.0%
 flops     5 x    13 x   256           6481180160       0.0%    100.0%      0.0%
 flops    13 x    13 x   256           9141769728       0.0%    100.0%      0.0%
 flops inhomo. stacks                           0       0.0%      0.0%      0.0%
 flops total                        27.433323E+09       0.0%    100.0%      0.0%
 flops max/rank                     27.433323E+09       0.0%    100.0%      0.0%
 matmuls inhomo. stacks                         0       0.0%      0.0%      0.0%
 matmuls total                             912933       0.0%    100.0%      0.0%
 number of processed stacks                 42140       0.0%    100.0%      0.0%
 average stack size                                     0.0      21.7       0.0
 marketing flops                   333.927416E+09
 -------------------------------------------------------------------------------
 # multiplications                            301
 max memory usage/rank               4.994200E+09
 # max total images/rank                        1
 # max 3D layers                                1
 # MPI messages exchanged                       0
 MPI messages size (bytes):
  total size                         0.000000E+00
  min size                           0.000000E+00
  max size                           0.000000E+00
  average size                       0.000000E+00
 MPI breakdown and total messages size (bytes):
             size <=      128                   0                        0
       128 < size <=     8192                   0                        0
      8192 < size <=    32768                   0                        0
     32768 < size <=   131072                   0                        0
    131072 < size <=  4194304                   0                        0
   4194304 < size <= 16777216                   0                        0
  16777216 < size                               0                        0
 -------------------------------------------------------------------------------

 MEMORY| Estimated peak process memory [MiB]                                4757

 -------------------------------------------------------------------------------
 -                                                                             -
 -                           R E F E R E N C E S                               -
 -                                                                             -
 -------------------------------------------------------------------------------
 
 CP2K version 7.1, the CP2K developers group (2019).
 CP2K is freely available from https://www.cp2k.org/ .

 Schuett, Ole; Messmer, Peter; Hutter, Juerg; VandeVondele, Joost. 
 Electronic Structure Calculations on Graphics Processing Units, John
 Wiley & Sons, Ltd, 173-190 (2016). 
 GPU-Accelerated Sparse Matrix-Matrix Multiplication for
 Linear Scaling Density Functional Theory.
 https://dx.doi.org/10.1002/9781118670712.ch8

 Borstnik, U; VandeVondele, J; Weber, V; Hutter, J. 
 PARALLEL COMPUTING, 40 (5-6), 47-58 (2014). 
 Sparse matrix multiplication: The distributed block-compressed sparse
 row library.
 https://dx.doi.org/10.1016/j.parco.2014.03.012

 Hutter, J; Iannuzzi, M; Schiffmann, F; VandeVondele, J. 
 WIREs Comput Mol Sci., 4 (1), 15-25 (2014). 
 CP2K: atomistic simulations of condensed matter systems.
 https://dx.doi.org/10.1002/wcms.1159

 Krack, M. 
 THEORETICAL CHEMISTRY ACCOUNTS, 114 (1-3), 145-152 (2005). 
 Pseudopotentials for H to Kr optimized for gradient-corrected
 exchange-correlation functionals.
 https://dx.doi.org/10.1007/s00214-005-0655-y

 VandeVondele, J; Krack, M; Mohamed, F; Parrinello, M; Chassaing, T;
 Hutter, J. COMPUTER PHYSICS COMMUNICATIONS, 167 (2), 103-128 (2005). 
 QUICKSTEP: Fast and accurate density functional calculations using a
 mixed Gaussian and plane waves approach.
 https://dx.doi.org/10.1016/j.cpc.2004.12.014

 Frigo, M; Johnson, SG. 
 PROCEEDINGS OF THE IEEE, 93 (2), 216-231 (2005). 
 The design and implementation of FFTW3.
 https://dx.doi.org/10.1109/JPROC.2004.840301

 Hartwigsen, C; Goedecker, S; Hutter, J. 
 PHYSICAL REVIEW B, 58 (7), 3641-3662 (1998). 
 Relativistic separable dual-space Gaussian pseudopotentials from H to Rn.
 https://dx.doi.org/10.1103/PhysRevB.58.3641

 Lippert, G; Hutter, J; Parrinello, M. 
 MOLECULAR PHYSICS, 92 (3), 477-487 (1997). 
 A hybrid Gaussian and plane wave density functional scheme.
 https://dx.doi.org/10.1080/002689797170220

 Goedecker, S; Teter, M; Hutter, J. 
 PHYSICAL REVIEW B, 54 (3), 1703-1710 (1996). 
 Separable dual-space Gaussian pseudopotentials.
 https://dx.doi.org/10.1103/PhysRevB.54.1703


 -------------------------------------------------------------------------------
 -                                                                             -
 -                                T I M I N G                                  -
 -                                                                             -
 -------------------------------------------------------------------------------
 SUBROUTINE                       CALLS  ASD         SELF TIME        TOTAL TIME
                                MAXIMUM       AVERAGE  MAXIMUM  AVERAGE  MAXIMUM
 CP2K                                 1  1.0    0.168    0.168 2819.911 2819.911
 qs_forces                            1  2.0    0.000    0.000 2817.850 2817.850
 qs_energies                          1  3.0    0.000    0.000 2817.109 2817.109
 scf_env_do_scf                       1  4.0    0.001    0.001 2814.678 2814.678
 scf_env_do_scf_inner_loop          300  5.0    0.068    0.068 2814.677 2814.677
 qs_scf_new_mos                     300  6.0    0.010    0.010 1988.057 1988.057
 eigensolver                        300  7.0    0.046    0.046 1954.563 1954.563
 cp_fm_syevd                        300  8.0 1264.169 1264.169 1265.896 1265.896
 cp_fm_cholesky_restore             900  8.0  687.586  687.586  687.586  687.586
 gspace_mixing                      299  6.0    6.760    6.760  460.565  460.565
 broyden_mixing                     299  7.0  416.202  416.202  416.204  416.204
 rebuild_ks_matrix                  301  7.0    0.001    0.001  188.374  188.374
 qs_ks_build_kohn_sham_matrix       301  8.0    0.071    0.071  188.373  188.373
 qs_ks_update_qs_env                300  6.0    0.003    0.003  188.144  188.144
 pw_transfer                       3912  9.9    0.324    0.324  180.039  180.039
 qs_rho_update_rho                  301  6.0    0.003    0.003  176.821  176.821
 calculate_rho_elec                 301  7.0   85.342   85.342  176.819  176.819
 fft_wrap_pw1pw2                   3310 10.9    0.034    0.034  174.981  174.981
 fft_wrap_pw1pw2_70                1504 11.2   18.827   18.827  162.022  162.022
 density_rs2pw                      301  8.0    0.023    0.023   88.555   88.555
 fft3d_s                           3311 12.9   79.903   79.903   79.934   79.934
 pw_scatter_s                      1804 13.2   60.822   60.822   60.822   60.822
 pw_poisson_solve                   301  9.0   54.097   54.097   58.935   58.935
 -------------------------------------------------------------------------------

 The number of warnings for this run is : 1
 
 -------------------------------------------------------------------------------
  **** **** ******  **  PROGRAM ENDED AT                 2021-02-26 15:05:34.008
 ***** ** ***  *** **   PROGRAM RAN ON                                   gnode75
 **    ****   ******    PROGRAM RAN BY                               mayank.modi
 ***** **    ** ** **   PROGRAM PROCESS ID                                   667
  **** **  *******  **  PROGRAM STOPPED IN /home/mayank.modi/ab-initio-thermodyn
                                           amics-of-water/mayank/cp2k_energy_cal
                                           culations
