 DBCSR| CPU Multiplication driver                                           XSMM
 DBCSR| Multrec recursion limit                                              512
 DBCSR| Multiplication stack size                                           1000
 DBCSR| Maximum elements for images                                    UNLIMITED
 DBCSR| Multiplicative factor virtual images                                   1
 DBCSR| Use multiplication densification                                       T
 DBCSR| Multiplication size stacks                                             3


  **** **** ******  **  PROGRAM STARTED AT               2021-01-18 19:21:11.405
 ***** ** ***  *** **   PROGRAM STARTED ON                               gnode52
 **    ****   ******    PROGRAM STARTED BY                           mayank.modi
 ***** **    ** ** **   PROGRAM PROCESS ID                                 17787
  **** **  *******  **  PROGRAM STARTED IN /home/mayank.modi/ab-initio-thermodyn
                                           amics-of-water/mayank/cp2k_energy_cal
                                           culations

 CP2K| version string:                                          CP2K version 7.1
 CP2K| source code revision number:                                  git:e635599
 CP2K| cp2kflags: omp libint fftw3 libxc xsmm spglib                            
 CP2K| is freely available from                            https://www.cp2k.org/
 CP2K| Program compiled at                          Mon Dec 23 19:23:12 CET 2019
 CP2K| Program compiled on                                                pc9404
 CP2K| Program compiled for                                Linux-x86-64-gfortran
 CP2K| Data directory path                                        /opt/cp2k/data
 CP2K| Input file name                  input_training_correct_cell/input1032.in

 GLOBAL| Force Environment number                                              1
 GLOBAL| Basis set file name                                           BASIS_SET
 GLOBAL| Potential file name                                      GTH_POTENTIALS
 GLOBAL| MM Potential file name                                     MM_POTENTIAL
 GLOBAL| Coordinate file name                                      __STD_INPUT__
 GLOBAL| Method name                                                        CP2K
 GLOBAL| Project name                                                   H2O_bulk
 GLOBAL| Preferred FFT library                                             FFTW3
 GLOBAL| Preferred diagonalization lib.                                       SL
 GLOBAL| Run type                                                   ENERGY_FORCE
 GLOBAL| All-to-all communication in single precision                          F
 GLOBAL| FFTs using library dependent lengths                                  F
 GLOBAL| Global print level                                                  LOW
 GLOBAL| MPI I/O enabled                                                       T
 GLOBAL| Total number of message passing processes                             1
 GLOBAL| Number of threads for this process                                   36
 GLOBAL| This output is from process                                           0
 GLOBAL| CPU model name                Intel(R) Xeon(R) CPU E5-2640 v4 @ 2.40GHz
 GLOBAL| CPUID                                                              1002
 GLOBAL| Compiled for CPUID                                                    0

 MEMORY| system memory details [Kb]
 MEMORY|                        rank 0           min           max       average
 MEMORY| MemTotal            131893316     131893316     131893316     131893316
 MEMORY| MemFree             105817448     105817448     105817448     105817448
 MEMORY| Buffers              13834260      13834260      13834260      13834260
 MEMORY| Cached                4269540       4269540       4269540       4269540
 MEMORY| Slab                  7243164       7243164       7243164       7243164
 MEMORY| SReclaimable          4173012       4173012       4173012       4173012
 MEMORY| MemLikelyFree       128094260     128094260     128094260     128094260


 GENERATE|  Preliminary Number of Bonds generated:                             0
 GENERATE|  Achieved consistency in connectivity generation.

 *******************************************************************************
 *******************************************************************************
 **                                                                           **
 **     #####                         ##              ##                      **
 **    ##   ##            ##          ##              ##                      **
 **   ##     ##                       ##            ######                    **
 **   ##     ##  ##   ##  ##   #####  ##  ##   ####   ##    #####    #####    **
 **   ##     ##  ##   ##  ##  ##      ## ##   ##      ##   ##   ##  ##   ##   **
 **   ##  ## ##  ##   ##  ##  ##      ####     ###    ##   ######   ######    **
 **    ##  ###   ##   ##  ##  ##      ## ##      ##   ##   ##       ##        **
 **     #######   #####   ##   #####  ##  ##  ####    ##    #####   ##        **
 **           ##                                                    ##        **
 **                                                                           **
 **                                                ... make the atoms dance   **
 **                                                                           **
 **            Copyright (C) by CP2K developers group (2000 - 2019)           **
 **                                                                           **
 *******************************************************************************


 TOTAL NUMBERS AND MAXIMUM NUMBERS

  Total number of            - Atomic kinds:                                   2
                             - Atoms:                                        192
                             - Shell sets:                                   384
                             - Shells:                                       704
                             - Primitive Cartesian functions:                960
                             - Cartesian basis functions:                   1536
                             - Spherical basis functions:                   1472

  Maximum angular momentum of- Orbital basis functions:                        2
                             - Local part of the GTH pseudopotential:          2
                             - Non-local part of the GTH pseudopotential:      0


 SCF PARAMETERS         Density guess:                                    ATOMIC
                        --------------------------------------------------------
                        max_scf:                                             300
                        max_scf_history:                                       0
                        max_diis:                                              4
                        --------------------------------------------------------
                        eps_scf:                                        1.00E-07
                        eps_scf_history:                                0.00E+00
                        eps_diis:                                       1.00E-01
                        eps_eigval:                                     1.00E-05
                        --------------------------------------------------------
                        level_shift [a.u.]:                                 0.00
                        --------------------------------------------------------
                        Mixing method:                            BROYDEN_MIXING
                                                charge density mixing in g-space
                        --------------------------------------------------------
                        No outer SCF

 Number of electrons:                                                        512
 Number of occupied orbitals:                                                256
 Number of molecular orbitals:                                               256

 Number of orbital functions:                                               1472
 Number of independent orbital functions:                                   1472

 Extrapolation method: initial_guess


 SCF WAVEFUNCTION OPTIMIZATION

  Step     Update method      Time    Convergence         Total energy    Change
  ------------------------------------------------------------------------------
     1 NoMix/Diag. 0.40E+00    7.2     0.62684564     -1063.8150254273 -1.06E+03
     2 Broy./Diag. 0.40E+00    7.9     1.88381481      -992.2545987441  7.16E+01
     3 Broy./Diag. 0.40E+00    8.0     1.92362495     -1276.6162126393 -2.84E+02
     4 Broy./Diag. 0.40E+00    8.1     1.56026722     -1121.5198585652  1.55E+02
     5 Broy./Diag. 0.40E+00    8.5     1.62822714     -1094.8487043178  2.67E+01
     6 Broy./Diag. 0.40E+00    8.9     1.77615005     -1099.1097007147 -4.26E+00
     7 Broy./Diag. 0.40E+00    9.0     1.78763725     -1095.7291843100  3.38E+00
     8 Broy./Diag. 0.40E+00    9.3     0.96247811     -1081.6091611619  1.41E+01
     9 Broy./Diag. 0.40E+00    9.4     1.50497598     -1073.3485734483  8.26E+00
    10 Broy./Diag. 0.40E+00    9.5     1.62336920     -1073.4846356349 -1.36E-01
    11 Broy./Diag. 0.40E+00    9.4     0.28364888     -1071.6837659251  1.80E+00
    12 Broy./Diag. 0.40E+00    9.4     0.10558155     -1073.1009466897 -1.42E+00
    13 Broy./Diag. 0.40E+00    9.9     1.34485951     -1071.7279259791  1.37E+00
    14 Broy./Diag. 0.40E+00    9.6     1.33868825     -1081.4021883520 -9.67E+00
    15 Broy./Diag. 0.40E+00    9.5     1.63974368     -1078.7662876569  2.64E+00
    16 Broy./Diag. 0.40E+00    9.6     1.63421880     -1077.6535136881  1.11E+00
    17 Broy./Diag. 0.40E+00    9.5     0.25061102     -1075.5455200657  2.11E+00
    18 Broy./Diag. 0.40E+00    9.7     0.19158491     -1074.6374810092  9.08E-01
    19 Broy./Diag. 0.40E+00    9.9     0.08809337     -1075.6281088210 -9.91E-01
    20 Broy./Diag. 0.40E+00    9.7     0.04908738     -1075.2452503849  3.83E-01
    21 Broy./Diag. 0.40E+00    9.4     0.03262916     -1075.3315235483 -8.63E-02
    22 Broy./Diag. 0.40E+00    9.5     0.01829617     -1075.2840898621  4.74E-02
    23 Broy./Diag. 0.40E+00    9.6     0.03650748     -1075.3546492281 -7.06E-02
    24 Broy./Diag. 0.40E+00    9.5     0.02048676     -1075.4766005324 -1.22E-01
    25 Broy./Diag. 0.40E+00    9.5     0.04607480     -1075.3273359212  1.49E-01
    26 Broy./Diag. 0.40E+00    9.5     0.02725267     -1075.3574340467 -3.01E-02
    27 Broy./Diag. 0.40E+00    9.4     0.01062190     -1075.4425624166 -8.51E-02
    28 Broy./Diag. 0.40E+00    9.3     0.00933452     -1075.5420401123 -9.95E-02
    29 Broy./Diag. 0.40E+00    9.4     0.00613053     -1075.3984484966  1.44E-01
    30 Broy./Diag. 0.40E+00    9.7     0.00599193     -1075.4799369295 -8.15E-02
    31 Broy./Diag. 0.40E+00    9.6     0.00493479     -1075.4734464376  6.49E-03
    32 Broy./Diag. 0.40E+00    9.4     0.00559361     -1075.4621925969  1.13E-02
    33 Broy./Diag. 0.40E+00    9.4     0.00321335     -1075.4584550934  3.74E-03
    34 Broy./Diag. 0.40E+00    9.2     0.00907835     -1075.4430173439  1.54E-02
    35 Broy./Diag. 0.40E+00    9.6     0.02948452     -1075.4602786825 -1.73E-02
    36 Broy./Diag. 0.40E+00    9.5     0.02909253     -1075.4948811873 -3.46E-02
    37 Broy./Diag. 0.40E+00    9.6     0.00185498     -1075.4352545287  5.96E-02
    38 Broy./Diag. 0.40E+00    9.3     0.00217800     -1075.4333817899  1.87E-03
    39 Broy./Diag. 0.40E+00    9.3     0.00278955     -1075.4626010597 -2.92E-02
    40 Broy./Diag. 0.40E+00    9.5     0.01553040     -1075.4430324591  1.96E-02
    41 Broy./Diag. 0.40E+00    9.5     0.01353105     -1075.4539612932 -1.09E-02
    42 Broy./Diag. 0.40E+00    9.3     0.00939721     -1075.4545010298 -5.40E-04
    43 Broy./Diag. 0.40E+00    9.3     0.00796482     -1075.4562098467 -1.71E-03
    44 Broy./Diag. 0.40E+00    9.4     0.00144577     -1075.4573802728 -1.17E-03
    45 Broy./Diag. 0.40E+00    9.5     0.00176320     -1075.4557922223  1.59E-03
    46 Broy./Diag. 0.40E+00    9.5     0.00223423     -1075.4561926598 -4.00E-04
    47 Broy./Diag. 0.40E+00    9.3     0.00170475     -1075.4569458161 -7.53E-04
    48 Broy./Diag. 0.40E+00    9.4     0.00038033     -1075.4539325558  3.01E-03
    49 Broy./Diag. 0.40E+00    9.6     0.00165491     -1075.4580762879 -4.14E-03
    50 Broy./Diag. 0.40E+00    9.4     0.00056968     -1075.4553558335  2.72E-03
    51 Broy./Diag. 0.40E+00    9.6     0.00060346     -1075.4542955907  1.06E-03
    52 Broy./Diag. 0.40E+00    9.7     0.00107547     -1075.4549197436 -6.24E-04
    53 Broy./Diag. 0.40E+00    9.5     0.00118134     -1075.4559983557 -1.08E-03
    54 Broy./Diag. 0.40E+00    9.4     0.00061131     -1075.4555603202  4.38E-04
    55 Broy./Diag. 0.40E+00    9.6     0.00020066     -1075.4543891124  1.17E-03
    56 Broy./Diag. 0.40E+00    9.6     0.00009328     -1075.4551670994 -7.78E-04
    57 Broy./Diag. 0.40E+00    9.6     0.00013575     -1075.4553389634 -1.72E-04
    58 Broy./Diag. 0.40E+00    9.5     0.00024391     -1075.4547274497  6.12E-04
    59 Broy./Diag. 0.40E+00    9.5     0.00020606     -1075.4556226602 -8.95E-04
    60 Broy./Diag. 0.40E+00    9.6     0.00005225     -1075.4546253475  9.97E-04
    61 Broy./Diag. 0.40E+00    9.6     0.00016174     -1075.4551522976 -5.27E-04
    62 Broy./Diag. 0.40E+00    9.6     0.00009778     -1075.4551372344  1.51E-05
    63 Broy./Diag. 0.40E+00    9.5     0.00004949     -1075.4546367250  5.01E-04
    64 Broy./Diag. 0.40E+00    9.4     0.00003298     -1075.4548741085 -2.37E-04
    65 Broy./Diag. 0.40E+00    9.4     0.00015310     -1075.4548521305  2.20E-05
    66 Broy./Diag. 0.40E+00    9.3     0.00012297     -1075.4549480301 -9.59E-05
    67 Broy./Diag. 0.40E+00    9.2     0.00011055     -1075.4549899657 -4.19E-05
    68 Broy./Diag. 0.40E+00    8.8     0.00007641     -1075.4548841714  1.06E-04
    69 Broy./Diag. 0.40E+00    8.9     0.00003126     -1075.4549659587 -8.18E-05
    70 Broy./Diag. 0.40E+00    9.4     0.00001161     -1075.4549068834  5.91E-05
    71 Broy./Diag. 0.40E+00    9.5     0.00000942     -1075.4549907399 -8.39E-05
    72 Broy./Diag. 0.40E+00    9.6     0.00002676     -1075.4549629083  2.78E-05
    73 Broy./Diag. 0.40E+00    9.5     0.00001658     -1075.4549043827  5.85E-05
    74 Broy./Diag. 0.40E+00    9.5     0.00001028     -1075.4549822498 -7.79E-05
    75 Broy./Diag. 0.40E+00    9.6     0.00001778     -1075.4549900391 -7.79E-06
    76 Broy./Diag. 0.40E+00    9.7     0.00003667     -1075.4549693621  2.07E-05
    77 Broy./Diag. 0.40E+00    9.6     0.00003501     -1075.4549494310  1.99E-05
    78 Broy./Diag. 0.40E+00    9.6     0.00002349     -1075.4549529369 -3.51E-06
    79 Broy./Diag. 0.40E+00    9.5     0.00001264     -1075.4549672736 -1.43E-05
    80 Broy./Diag. 0.40E+00    9.6     0.00000435     -1075.4549471229  2.02E-05
    81 Broy./Diag. 0.40E+00    9.7     0.00000316     -1075.4549671315 -2.00E-05
    82 Broy./Diag. 0.40E+00    9.6     0.00000905     -1075.4549595452  7.59E-06
    83 Broy./Diag. 0.40E+00    9.6     0.00000760     -1075.4549407190  1.88E-05
    84 Broy./Diag. 0.40E+00    9.7     0.00000319     -1075.4549663087 -2.56E-05
    85 Broy./Diag. 0.40E+00    9.4     0.00000229     -1075.4549652902  1.02E-06
    86 Broy./Diag. 0.40E+00    9.6     0.00001065     -1075.4549546769  1.06E-05
    87 Broy./Diag. 0.40E+00    9.6     0.00001296     -1075.4549510516  3.63E-06
    88 Broy./Diag. 0.40E+00    9.7     0.00000736     -1075.4549601670 -9.12E-06
    89 Broy./Diag. 0.40E+00    9.6     0.00000285     -1075.4549614177 -1.25E-06
    90 Broy./Diag. 0.40E+00    9.5     0.00000131     -1075.4549561208  5.30E-06
    91 Broy./Diag. 0.40E+00    9.4     0.00000127     -1075.4549616031 -5.48E-06
    92 Broy./Diag. 0.40E+00    9.3     0.00000290     -1075.4549585847  3.02E-06
    93 Broy./Diag. 0.40E+00    9.6     0.00000260     -1075.4549543040  4.28E-06
    94 Broy./Diag. 0.40E+00    9.5     0.00000109     -1075.4549615571 -7.25E-06
    95 Broy./Diag. 0.40E+00    9.4     0.00000056     -1075.4549602712  1.29E-06
    96 Broy./Diag. 0.40E+00    9.5     0.00000187     -1075.4549577896  2.48E-06
    97 Broy./Diag. 0.40E+00    9.6     0.00000310     -1075.4549576255  1.64E-07
    98 Broy./Diag. 0.40E+00    9.4     0.00000223     -1075.4549598117 -2.19E-06
    99 Broy./Diag. 0.40E+00    9.2     0.00000085     -1075.4549589993  8.12E-07
   100 Broy./Diag. 0.40E+00    9.4     0.00000045     -1075.4549579147  1.08E-06
   101 Broy./Diag. 0.40E+00    9.3     0.00000038     -1075.4549597475 -1.83E-06
   102 Broy./Diag. 0.40E+00    9.5     0.00000104     -1075.4549582068  1.54E-06
   103 Broy./Diag. 0.40E+00    9.4     0.00000097     -1075.4549572504  9.56E-07
   104 Broy./Diag. 0.40E+00    9.5     0.00000052     -1075.4549596369 -2.39E-06
   105 Broy./Diag. 0.40E+00    9.8     0.00000022     -1075.4549591741  4.63E-07
   106 Broy./Diag. 0.40E+00    9.5     0.00000031     -1075.4549579625  1.21E-06
   107 Broy./Diag. 0.40E+00    9.6     0.00000127     -1075.4549582318 -2.69E-07
   108 Broy./Diag. 0.40E+00    9.5     0.00000122     -1075.4549591849 -9.53E-07
   109 Broy./Diag. 0.40E+00    9.5     0.00000039     -1075.4549588288  3.56E-07
   110 Broy./Diag. 0.40E+00    9.5     0.00000021     -1075.4549582821  5.47E-07
   111 Broy./Diag. 0.40E+00    9.5     0.00000016     -1075.4549591383 -8.56E-07
   112 Broy./Diag. 0.40E+00    9.6     0.00000035     -1075.4549583398  7.99E-07
   113 Broy./Diag. 0.40E+00    9.8     0.00000042     -1075.4549584145 -7.47E-08
   114 Broy./Diag. 0.40E+00    9.8     0.00000028     -1075.4549593347 -9.20E-07
   115 Broy./Diag. 0.40E+00    9.4     0.00000010     -1075.4549588220  5.13E-07

  *** SCF run converged in   115 steps ***


  Electronic density on regular grids:       -512.0003340507       -0.0003340507
  Core density on regular grids:              511.9998640539       -0.0001359461
  Total charge density on r-space grids:       -0.0004699968
  Total charge density g-space grids:          -0.0004699968

  Overlap energy of the core charge distribution:               0.00000000000000
  Self energy of the core charge distribution:              -2838.21791979120962
  Core Hamiltonian energy:                                    759.62910579614561
  Hartree energy:                                            1241.36489156291668
  Exchange-correlation energy:                               -238.23103638986731

  Total energy:                                             -1075.45495882201453

 ENERGY| Total FORCE_EVAL ( QS ) energy (a.u.):            -1075.454958640686300


 ATOMIC FORCES in [a.u.]

 # Atom   Kind   Element          X              Y              Z
      1      1      O           0.01708456    -0.13003680    -0.06067378
      2      2      H           0.02664964    -0.02493636     0.02542147
      3      2      H          -0.04571940     0.08261090     0.04967489
      4      1      O           0.09414567     0.06630441    -0.05219191
      5      2      H          -0.04563708    -0.08796265    -0.03984959
      6      2      H          -0.04367507     0.01125690     0.05102617
      7      1      O           0.10604222    -0.12717224    -0.00400412
      8      2      H          -0.07408425    -0.01716696    -0.05493581
      9      2      H          -0.00539085     0.04123742     0.05536416
     10      1      O           0.07073307     0.10371133     0.03778349
     11      2      H          -0.03998728     0.05065206     0.07862715
     12      2      H           0.00972540    -0.05185262    -0.04138804
     13      1      O           0.12741880     0.10485038    -0.01420616
     14      2      H          -0.07614873    -0.02737584    -0.07422663
     15      2      H           0.00509660    -0.03505543     0.07253776
     16      1      O          -0.10025640    -0.10046798    -0.06367479
     17      2      H           0.04370608     0.04945042    -0.01306896
     18      2      H           0.03698350     0.04420514     0.04935361
     19      1      O           0.02001247    -0.14856399    -0.08748117
     20      2      H          -0.08422466     0.04498144    -0.02569664
     21      2      H           0.03997347     0.04638906    -0.00963721
     22      1      O          -0.05979418    -0.07679815     0.01215032
     23      2      H           0.01762326     0.05777504     0.09323795
     24      2      H           0.08348467    -0.01943159    -0.02600898
     25      1      O           0.02620835    -0.13446958    -0.00635604
     26      2      H           0.06048011     0.00859538     0.03140630
     27      2      H          -0.02176956     0.04435967    -0.03141338
     28      1      O           0.02643228    -0.03727193     0.07349807
     29      2      H          -0.03498038     0.02544272     0.03547811
     30      2      H           0.02639652     0.02834347    -0.09444780
     31      1      O          -0.04102914     0.07032247    -0.05554284
     32      2      H          -0.00313754    -0.01474453     0.04953904
     33      2      H           0.04978900    -0.00678545    -0.00814524
     34      1      O          -0.11667828    -0.07328788    -0.01531703
     35      2      H           0.06729805     0.00589510    -0.01590238
     36      2      H          -0.02894693     0.05352530     0.10794598
     37      1      O           0.02319414    -0.12592461    -0.01495980
     38      2      H          -0.02029166    -0.00141204     0.04674924
     39      2      H           0.03367398     0.01311002    -0.04245434
     40      1      O          -0.14477975     0.04741213    -0.02491023
     41      2      H           0.04891386    -0.03443696    -0.04460815
     42      2      H           0.05281210     0.08515822     0.00920889
     43      1      O           0.02650935    -0.05958082     0.07830536
     44      2      H          -0.00211339    -0.02277574    -0.06090740
     45      2      H          -0.03795154     0.00925060     0.03446660
     46      1      O           0.00142633    -0.08832318     0.05677180
     47      2      H           0.06803537    -0.06007573     0.01798660
     48      2      H          -0.01188176     0.10418883    -0.03284566
     49      1      O           0.11112924    -0.06661299    -0.07862473
     50      2      H           0.00254631     0.04681624     0.06951295
     51      2      H          -0.09511044    -0.06926922     0.01064504
     52      1      O           0.01372177    -0.00306530    -0.06150984
     53      2      H           0.00069240     0.04888601    -0.01918981
     54      2      H           0.00191374     0.05500003     0.07535518
     55      1      O          -0.13370865     0.03623584    -0.10116100
     56      2      H           0.02623635    -0.09212079     0.01764815
     57      2      H           0.06325046     0.07005736    -0.03378162
     58      1      O          -0.00272148     0.01428149    -0.04001903
     59      2      H           0.01555167    -0.01125023    -0.04051765
     60      2      H           0.00447979     0.07083260     0.07405936
     61      1      O           0.02798051    -0.11207519     0.02917738
     62      2      H          -0.05009716     0.01545131     0.03375643
     63      2      H           0.03088200     0.03480678     0.00230834
     64      1      O           0.13405359    -0.02164930    -0.02021038
     65      2      H          -0.03173993    -0.08663952     0.03503029
     66      2      H          -0.10326973     0.07419791    -0.00716644
     67      1      O          -0.00587080     0.01690522    -0.03340809
     68      2      H           0.07893708    -0.00460964     0.03381851
     69      2      H          -0.05556223     0.06593938     0.00004234
     70      1      O          -0.00631376     0.06552900     0.03885085
     71      2      H           0.05584702    -0.06996154    -0.00397378
     72      2      H          -0.01857380     0.03571800    -0.07566132
     73      1      O          -0.06042753    -0.00624612     0.10716301
     74      2      H           0.07697248     0.06258659    -0.03249427
     75      2      H           0.08258767    -0.09327000    -0.03181755
     76      1      O          -0.07554049     0.02054771    -0.00556147
     77      2      H           0.04964849     0.02867087     0.08548869
     78      2      H          -0.06890379     0.04590633    -0.01867512
     79      1      O           0.09005263    -0.01056426     0.01313502
     80      2      H           0.00715834     0.04362063     0.00051181
     81      2      H          -0.05389630     0.01864492    -0.04809430
     82      1      O           0.00219451    -0.02710470     0.04890523
     83      2      H           0.00545830     0.08526279     0.01346983
     84      2      H           0.07278218     0.01343925    -0.02252990
     85      1      O          -0.01635193    -0.03984749    -0.00931362
     86      2      H          -0.02817551    -0.07559832     0.08133352
     87      2      H          -0.02553836     0.04509878     0.02821136
     88      1      O           0.00164380    -0.08063196     0.00886223
     89      2      H           0.03410508     0.07396628     0.00349031
     90      2      H          -0.07154365     0.05344683     0.00774282
     91      1      O           0.09627910     0.05029254    -0.06146843
     92      2      H          -0.06753744     0.02110177    -0.00843553
     93      2      H          -0.00971459    -0.02004238     0.08359756
     94      1      O           0.10707653    -0.02764433    -0.02071702
     95      2      H          -0.06028396     0.02503582     0.06043310
     96      2      H          -0.02102303     0.05741693    -0.08810108
     97      1      O           0.02213269     0.03760336     0.02188815
     98      2      H          -0.02741422    -0.01787778     0.06309532
     99      2      H          -0.00637243     0.06173365    -0.05323317
    100      1      O          -0.15593876    -0.05952176     0.09343613
    101      2      H           0.08549655    -0.01988063    -0.02749271
    102      2      H           0.04521906     0.03636590     0.00581517
    103      1      O          -0.07964160    -0.03457998    -0.02792002
    104      2      H           0.02140935     0.01731401     0.04855640
    105      2      H           0.08552245    -0.01763968    -0.02515693
    106      1      O          -0.08023486     0.08091835    -0.04176926
    107      2      H          -0.00594349    -0.08917682     0.01930149
    108      2      H           0.02392989     0.06534126     0.04465461
    109      1      O           0.03585897    -0.10490835    -0.08769878
    110      2      H           0.00428325     0.06048407     0.06917143
    111      2      H           0.05656601     0.00981929    -0.07134340
    112      1      O           0.11334375    -0.04147891    -0.10547909
    113      2      H           0.04277446     0.03232304     0.05019288
    114      2      H          -0.06000226    -0.05500326    -0.00674859
    115      1      O           0.00989142     0.01648490    -0.00697497
    116      2      H           0.02795330     0.05314847    -0.03149881
    117      2      H           0.03316718    -0.03738905     0.06313752
    118      1      O          -0.11377799    -0.12289243    -0.12847950
    119      2      H           0.00664882     0.04528408     0.04087492
    120      2      H           0.00525318     0.01161978     0.04887187
    121      1      O           0.00002506    -0.02661746     0.05010535
    122      2      H          -0.00424947     0.03507180    -0.06036925
    123      2      H           0.02927768    -0.00860792     0.07908164
    124      1      O           0.03915742    -0.04805170    -0.04766191
    125      2      H           0.06712764    -0.00156199     0.04316243
    126      2      H          -0.04493968     0.03292891    -0.04186769
    127      1      O           0.05236672    -0.12581412     0.05640315
    128      2      H          -0.02457472     0.00411915    -0.02744035
    129      2      H           0.04335012     0.02519969     0.01586505
    130      1      O          -0.04598310    -0.07963884     0.09035816
    131      2      H          -0.06777973    -0.07132565    -0.05235067
    132      2      H          -0.00993718     0.07959220    -0.03018690
    133      1      O          -0.03174722     0.07118209     0.03486460
    134      2      H           0.03598924     0.05849377    -0.07836834
    135      2      H           0.08778834     0.00778351     0.05188141
    136      1      O           0.06416288     0.03299338    -0.06324735
    137      2      H           0.02865401     0.00919057     0.08281218
    138      2      H          -0.03899861     0.02654430    -0.02154610
    139      1      O          -0.14011328    -0.00856195     0.02799141
    140      2      H           0.08454811    -0.08285669    -0.05979229
    141      2      H          -0.01820021     0.02985389     0.04266452
    142      1      O          -0.00760633     0.05316327    -0.07054647
    143      2      H           0.04429990    -0.05705971    -0.00318616
    144      2      H           0.00196590    -0.01824419     0.06719892
    145      1      O          -0.11654383    -0.09977304    -0.00686244
    146      2      H          -0.01773447     0.01424370    -0.04750151
    147      2      H           0.04308713     0.02595579     0.05280533
    148      1      O           0.05102620     0.04123867     0.09698898
    149      2      H          -0.00499693    -0.06360735    -0.00557827
    150      2      H           0.03691471     0.03689940    -0.00223413
    151      1      O           0.01466542    -0.05656559    -0.11442959
    152      2      H          -0.01621890    -0.07798681     0.03497297
    153      2      H           0.01699456     0.01725591     0.01084050
    154      1      O          -0.10167157     0.00631154     0.04855601
    155      2      H           0.07801225    -0.01299505     0.02530154
    156      2      H          -0.00372082     0.05212347    -0.03150020
    157      1      O          -0.10814990     0.05705964    -0.07500565
    158      2      H           0.08205075     0.07421604    -0.01468021
    159      2      H           0.01925148    -0.05290597     0.02302304
    160      1      O          -0.05193591     0.09315249     0.02413060
    161      2      H          -0.05221433    -0.06459347     0.01702287
    162      2      H           0.06615316     0.00085542    -0.08265183
    163      1      O          -0.06299411    -0.10387911    -0.08830171
    164      2      H          -0.01967331     0.08856747     0.00860050
    165      2      H           0.07503038     0.00443972     0.03263427
    166      1      O          -0.12138679    -0.12934965     0.07586030
    167      2      H           0.09739274     0.02694140    -0.05071902
    168      2      H          -0.00066387     0.01808101    -0.08752255
    169      1      O           0.09170496    -0.03429051     0.12723908
    170      2      H          -0.09294049     0.05459310    -0.00759340
    171      2      H           0.00816105    -0.09098883     0.01054091
    172      1      O          -0.04942244    -0.00055287    -0.04582247
    173      2      H           0.03017081    -0.01487207    -0.03924287
    174      2      H           0.02863151     0.07046852     0.07439659
    175      1      O          -0.01483643    -0.05200768    -0.03782019
    176      2      H           0.08020497     0.01970765    -0.05225399
    177      2      H          -0.02406187     0.01172972     0.04575141
    178      1      O           0.12272197    -0.06668146     0.06248871
    179      2      H          -0.01918414     0.01728026    -0.05330351
    180      2      H          -0.03534207     0.01253388     0.02380479
    181      1      O           0.03145960    -0.00015339    -0.06962442
    182      2      H           0.03686970     0.02281592    -0.02041680
    183      2      H          -0.03813209     0.00813060     0.03063492
    184      1      O          -0.00050411    -0.01896682    -0.01983907
    185      2      H           0.00530624    -0.00952636    -0.07563877
    186      2      H          -0.03093642     0.01054290     0.04220186
    187      1      O           0.11721304    -0.01934340     0.08720077
    188      2      H          -0.04980721    -0.02889205    -0.07604709
    189      2      H           0.01632071     0.04341336     0.00075412
    190      1      O           0.07333473     0.01582658    -0.01490575
    191      2      H          -0.06888531    -0.00551813     0.01803934
    192      2      H           0.00681085    -0.02453273    -0.04254896
 SUM OF ATOMIC FORCES           0.66488732    -0.24711908     0.00456730     0.70934043

 -------------------------------------------------------------------------------
 -                                                                             -
 -                                DBCSR STATISTICS                             -
 -                                                                             -
 -------------------------------------------------------------------------------
 COUNTER                                    TOTAL       BLAS       SMM       ACC
 flops     5 x     5 x   256           1875302400       0.0%    100.0%      0.0%
 flops    13 x     5 x   256           2262241280       0.0%    100.0%      0.0%
 flops     5 x    13 x   256           2316288000       0.0%    100.0%      0.0%
 flops    13 x    13 x   256           2940913664       0.0%    100.0%      0.0%
 flops inhomo. stacks                           0       0.0%      0.0%      0.0%
 flops total                         9.394745E+09       0.0%    100.0%      0.0%
 flops max/rank                      9.394745E+09       0.0%    100.0%      0.0%
 matmuls inhomo. stacks                         0       0.0%      0.0%      0.0%
 matmuls total                             318072       0.0%    100.0%      0.0%
 number of processed stacks                 16240       0.0%    100.0%      0.0%
 average stack size                                     0.0      19.6       0.0
 marketing flops                   128.689635E+09
 -------------------------------------------------------------------------------
 # multiplications                            116
 max memory usage/rank               5.058912E+09
 # max total images/rank                        1
 # max 3D layers                                1
 # MPI messages exchanged                       0
 MPI messages size (bytes):
  total size                         0.000000E+00
  min size                           0.000000E+00
  max size                           0.000000E+00
  average size                       0.000000E+00
 MPI breakdown and total messages size (bytes):
             size <=      128                   0                        0
       128 < size <=     8192                   0                        0
      8192 < size <=    32768                   0                        0
     32768 < size <=   131072                   0                        0
    131072 < size <=  4194304                   0                        0
   4194304 < size <= 16777216                   0                        0
  16777216 < size                               0                        0
 -------------------------------------------------------------------------------

 MEMORY| Estimated peak process memory [MiB]                                4857

 -------------------------------------------------------------------------------
 -                                                                             -
 -                           R E F E R E N C E S                               -
 -                                                                             -
 -------------------------------------------------------------------------------
 
 CP2K version 7.1, the CP2K developers group (2019).
 CP2K is freely available from https://www.cp2k.org/ .

 Schuett, Ole; Messmer, Peter; Hutter, Juerg; VandeVondele, Joost. 
 Electronic Structure Calculations on Graphics Processing Units, John
 Wiley & Sons, Ltd, 173-190 (2016). 
 GPU-Accelerated Sparse Matrix-Matrix Multiplication for
 Linear Scaling Density Functional Theory.
 https://dx.doi.org/10.1002/9781118670712.ch8

 Borstnik, U; VandeVondele, J; Weber, V; Hutter, J. 
 PARALLEL COMPUTING, 40 (5-6), 47-58 (2014). 
 Sparse matrix multiplication: The distributed block-compressed sparse
 row library.
 https://dx.doi.org/10.1016/j.parco.2014.03.012

 Hutter, J; Iannuzzi, M; Schiffmann, F; VandeVondele, J. 
 WIREs Comput Mol Sci., 4 (1), 15-25 (2014). 
 CP2K: atomistic simulations of condensed matter systems.
 https://dx.doi.org/10.1002/wcms.1159

 Krack, M. 
 THEORETICAL CHEMISTRY ACCOUNTS, 114 (1-3), 145-152 (2005). 
 Pseudopotentials for H to Kr optimized for gradient-corrected
 exchange-correlation functionals.
 https://dx.doi.org/10.1007/s00214-005-0655-y

 VandeVondele, J; Krack, M; Mohamed, F; Parrinello, M; Chassaing, T;
 Hutter, J. COMPUTER PHYSICS COMMUNICATIONS, 167 (2), 103-128 (2005). 
 QUICKSTEP: Fast and accurate density functional calculations using a
 mixed Gaussian and plane waves approach.
 https://dx.doi.org/10.1016/j.cpc.2004.12.014

 Frigo, M; Johnson, SG. 
 PROCEEDINGS OF THE IEEE, 93 (2), 216-231 (2005). 
 The design and implementation of FFTW3.
 https://dx.doi.org/10.1109/JPROC.2004.840301

 Hartwigsen, C; Goedecker, S; Hutter, J. 
 PHYSICAL REVIEW B, 58 (7), 3641-3662 (1998). 
 Relativistic separable dual-space Gaussian pseudopotentials from H to Rn.
 https://dx.doi.org/10.1103/PhysRevB.58.3641

 Lippert, G; Hutter, J; Parrinello, M. 
 MOLECULAR PHYSICS, 92 (3), 477-487 (1997). 
 A hybrid Gaussian and plane wave density functional scheme.
 https://dx.doi.org/10.1080/002689797170220

 Goedecker, S; Teter, M; Hutter, J. 
 PHYSICAL REVIEW B, 54 (3), 1703-1710 (1996). 
 Separable dual-space Gaussian pseudopotentials.
 https://dx.doi.org/10.1103/PhysRevB.54.1703


 -------------------------------------------------------------------------------
 -                                                                             -
 -                                T I M I N G                                  -
 -                                                                             -
 -------------------------------------------------------------------------------
 SUBROUTINE                       CALLS  ASD         SELF TIME        TOTAL TIME
                                MAXIMUM       AVERAGE  MAXIMUM  AVERAGE  MAXIMUM
 CP2K                                 1  1.0    0.175    0.175 1089.796 1089.796
 qs_forces                            1  2.0    0.000    0.000 1087.538 1087.538
 qs_energies                          1  3.0    0.000    0.000 1086.786 1086.786
 scf_env_do_scf                       1  4.0    0.001    0.001 1084.327 1084.327
 scf_env_do_scf_inner_loop          115  5.0    0.024    0.024 1084.326 1084.326
 qs_scf_new_mos                     115  6.0    0.004    0.004  762.923  762.923
 eigensolver                        115  7.0    0.019    0.019  750.370  750.370
 cp_fm_syevd                        115  8.0  490.451  490.451  491.180  491.180
 cp_fm_cholesky_restore             345  8.0  258.761  258.761  258.761  258.761
 gspace_mixing                      114  6.0    2.587    2.587  177.040  177.040
 broyden_mixing                     114  7.0  159.786  159.786  159.787  159.787
 rebuild_ks_matrix                  116  7.0    0.000    0.000   74.303   74.303
 qs_ks_build_kohn_sham_matrix       116  8.0    0.026    0.026   74.303   74.303
 qs_ks_update_qs_env                115  6.0    0.001    0.001   73.798   73.798
 pw_transfer                       1507  9.9    0.126    0.126   72.296   72.296
 qs_rho_update_rho                  116  6.0    0.001    0.001   70.505   70.505
 calculate_rho_elec                 116  7.0   33.117   33.117   70.504   70.504
 fft_wrap_pw1pw2                   1275 10.9    0.013    0.013   70.195   70.195
 fft_wrap_pw1pw2_70                 579 11.2    7.381    7.381   63.743   63.743
 density_rs2pw                      116  8.0    0.014    0.014   36.306   36.306
 fft3d_s                           1276 12.9   32.406   32.406   32.419   32.419
 pw_scatter_s                       694 13.2   23.939   23.939   23.939   23.939
 pw_poisson_solve                   116  9.0   21.495   21.495   23.541   23.541
 -------------------------------------------------------------------------------

 The number of warnings for this run is : 0
 
 -------------------------------------------------------------------------------
  **** **** ******  **  PROGRAM ENDED AT                 2021-01-18 19:39:21.278
 ***** ** ***  *** **   PROGRAM RAN ON                                   gnode52
 **    ****   ******    PROGRAM RAN BY                               mayank.modi
 ***** **    ** ** **   PROGRAM PROCESS ID                                 17787
  **** **  *******  **  PROGRAM STOPPED IN /home/mayank.modi/ab-initio-thermodyn
                                           amics-of-water/mayank/cp2k_energy_cal
                                           culations
