 DBCSR| CPU Multiplication driver                                           XSMM
 DBCSR| Multrec recursion limit                                              512
 DBCSR| Multiplication stack size                                           1000
 DBCSR| Maximum elements for images                                    UNLIMITED
 DBCSR| Multiplicative factor virtual images                                   1
 DBCSR| Use multiplication densification                                       T
 DBCSR| Multiplication size stacks                                             3


  **** **** ******  **  PROGRAM STARTED AT               2021-02-23 06:37:18.441
 ***** ** ***  *** **   PROGRAM STARTED ON                               gnode68
 **    ****   ******    PROGRAM STARTED BY                           mayank.modi
 ***** **    ** ** **   PROGRAM PROCESS ID                                 31405
  **** **  *******  **  PROGRAM STARTED IN /home/mayank.modi/ab-initio-thermodyn
                                           amics-of-water/mayank/cp2k_energy_cal
                                           culations

 CP2K| version string:                                          CP2K version 7.1
 CP2K| source code revision number:                                  git:e635599
 CP2K| cp2kflags: omp libint fftw3 libxc xsmm spglib                            
 CP2K| is freely available from                            https://www.cp2k.org/
 CP2K| Program compiled at                          Mon Dec 23 19:23:12 CET 2019
 CP2K| Program compiled on                                                pc9404
 CP2K| Program compiled for                                Linux-x86-64-gfortran
 CP2K| Data directory path                                        /opt/cp2k/data
 CP2K| Input file name                  input_training_correct_cell/input1484.in

 GLOBAL| Force Environment number                                              1
 GLOBAL| Basis set file name                                           BASIS_SET
 GLOBAL| Potential file name                                      GTH_POTENTIALS
 GLOBAL| MM Potential file name                                     MM_POTENTIAL
 GLOBAL| Coordinate file name                                      __STD_INPUT__
 GLOBAL| Method name                                                        CP2K
 GLOBAL| Project name                                                   H2O_bulk
 GLOBAL| Preferred FFT library                                             FFTW3
 GLOBAL| Preferred diagonalization lib.                                       SL
 GLOBAL| Run type                                                   ENERGY_FORCE
 GLOBAL| All-to-all communication in single precision                          F
 GLOBAL| FFTs using library dependent lengths                                  F
 GLOBAL| Global print level                                                  LOW
 GLOBAL| MPI I/O enabled                                                       T
 GLOBAL| Total number of message passing processes                             1
 GLOBAL| Number of threads for this process                                   36
 GLOBAL| This output is from process                                           0
 GLOBAL| CPU model name                Intel(R) Xeon(R) CPU E5-2640 v4 @ 2.40GHz
 GLOBAL| CPUID                                                              1002
 GLOBAL| Compiled for CPUID                                                    0

 MEMORY| system memory details [Kb]
 MEMORY|                        rank 0           min           max       average
 MEMORY| MemTotal            131893512     131893512     131893512     131893512
 MEMORY| MemFree             119713192     119713192     119713192     119713192
 MEMORY| Buffers               1024376       1024376       1024376       1024376
 MEMORY| Cached                9706768       9706768       9706768       9706768
 MEMORY| Slab                  1017892       1017892       1017892       1017892
 MEMORY| SReclaimable           623156        623156        623156        623156
 MEMORY| MemLikelyFree       131067492     131067492     131067492     131067492


 GENERATE|  Preliminary Number of Bonds generated:                             0
 GENERATE|  Achieved consistency in connectivity generation.

 *******************************************************************************
 *******************************************************************************
 **                                                                           **
 **     #####                         ##              ##                      **
 **    ##   ##            ##          ##              ##                      **
 **   ##     ##                       ##            ######                    **
 **   ##     ##  ##   ##  ##   #####  ##  ##   ####   ##    #####    #####    **
 **   ##     ##  ##   ##  ##  ##      ## ##   ##      ##   ##   ##  ##   ##   **
 **   ##  ## ##  ##   ##  ##  ##      ####     ###    ##   ######   ######    **
 **    ##  ###   ##   ##  ##  ##      ## ##      ##   ##   ##       ##        **
 **     #######   #####   ##   #####  ##  ##  ####    ##    #####   ##        **
 **           ##                                                    ##        **
 **                                                                           **
 **                                                ... make the atoms dance   **
 **                                                                           **
 **            Copyright (C) by CP2K developers group (2000 - 2019)           **
 **                                                                           **
 *******************************************************************************


 TOTAL NUMBERS AND MAXIMUM NUMBERS

  Total number of            - Atomic kinds:                                   2
                             - Atoms:                                        192
                             - Shell sets:                                   384
                             - Shells:                                       704
                             - Primitive Cartesian functions:                960
                             - Cartesian basis functions:                   1536
                             - Spherical basis functions:                   1472

  Maximum angular momentum of- Orbital basis functions:                        2
                             - Local part of the GTH pseudopotential:          2
                             - Non-local part of the GTH pseudopotential:      0


 SCF PARAMETERS         Density guess:                                    ATOMIC
                        --------------------------------------------------------
                        max_scf:                                             300
                        max_scf_history:                                       0
                        max_diis:                                              4
                        --------------------------------------------------------
                        eps_scf:                                        1.00E-07
                        eps_scf_history:                                0.00E+00
                        eps_diis:                                       1.00E-01
                        eps_eigval:                                     1.00E-05
                        --------------------------------------------------------
                        level_shift [a.u.]:                                 0.00
                        --------------------------------------------------------
                        Mixing method:                            BROYDEN_MIXING
                                                charge density mixing in g-space
                        --------------------------------------------------------
                        No outer SCF

 Number of electrons:                                                        512
 Number of occupied orbitals:                                                256
 Number of molecular orbitals:                                               256

 Number of orbital functions:                                               1472
 Number of independent orbital functions:                                   1472

 Extrapolation method: initial_guess


 SCF WAVEFUNCTION OPTIMIZATION

  Step     Update method      Time    Convergence         Total energy    Change
  ------------------------------------------------------------------------------
     1 NoMix/Diag. 0.40E+00    7.2     0.62266220     -1064.1820464782 -1.06E+03
     2 Broy./Diag. 0.40E+00    7.9     1.85270392      -994.9621923111  6.92E+01
     3 Broy./Diag. 0.40E+00    8.0     1.93566946     -1266.4765063030 -2.72E+02
     4 Broy./Diag. 0.40E+00    8.3     1.71620016     -1117.0929069506  1.49E+02
     5 Broy./Diag. 0.40E+00    8.8     1.63143528     -1094.5043014084  2.26E+01
     6 Broy./Diag. 0.40E+00    8.8     1.71218558     -1099.7937487356 -5.29E+00
     7 Broy./Diag. 0.40E+00    8.9     1.77083516     -1097.4527256068  2.34E+00
     8 Broy./Diag. 0.40E+00    9.3     0.55046769     -1082.0469394988  1.54E+01
     9 Broy./Diag. 0.40E+00    9.3     0.27750688     -1073.3136614579  8.73E+00
    10 Broy./Diag. 0.40E+00    9.9     0.16686875     -1073.1553759145  1.58E-01
    11 Broy./Diag. 0.40E+00    9.4     0.09591664     -1074.2147756740 -1.06E+00
    12 Broy./Diag. 0.40E+00    9.4     1.68236767     -1074.0229281116  1.92E-01
    13 Broy./Diag. 0.40E+00    9.3     1.69477370     -1073.3831596384  6.40E-01
    14 Broy./Diag. 0.40E+00    9.5     0.13382230     -1074.2687563687 -8.86E-01
    15 Broy./Diag. 0.40E+00    9.6     0.27955801     -1075.2486179799 -9.80E-01
    16 Broy./Diag. 0.40E+00    9.5     0.22991198     -1077.9051025819 -2.66E+00
    17 Broy./Diag. 0.40E+00    9.4     0.07692591     -1076.1681971569  1.74E+00
    18 Broy./Diag. 0.40E+00    9.9     0.06883896     -1075.4406262012  7.28E-01
    19 Broy./Diag. 0.40E+00    9.6     0.02091938     -1076.1769518707 -7.36E-01
    20 Broy./Diag. 0.40E+00    9.6     0.02114773     -1076.2320809749 -5.51E-02
    21 Broy./Diag. 0.40E+00    9.5     1.49890794     -1076.0623572383  1.70E-01
    22 Broy./Diag. 0.40E+00    9.6     1.50734271     -1077.5504623405 -1.49E+00
    23 Broy./Diag. 0.40E+00    9.5     0.16364691     -1076.0632357943  1.49E+00
    24 Broy./Diag. 0.40E+00    9.2     0.09792042     -1075.6201394699  4.43E-01
    25 Broy./Diag. 0.40E+00    8.8     0.03590641     -1075.9775433777 -3.57E-01
    26 Broy./Diag. 0.40E+00    9.1     0.01973342     -1076.2838638235 -3.06E-01
    27 Broy./Diag. 0.40E+00    9.6     0.01003436     -1075.9967089461  2.87E-01
    28 Broy./Diag. 0.40E+00   10.0     0.00823055     -1076.0310873213 -3.44E-02
    29 Broy./Diag. 0.40E+00   10.1     0.00594309     -1076.1384150133 -1.07E-01
    30 Broy./Diag. 0.40E+00    9.4     0.00347815     -1076.0275091063  1.11E-01
    31 Broy./Diag. 0.40E+00    9.5     1.50378707     -1076.0660332281 -3.85E-02
    32 Broy./Diag. 0.40E+00    9.8     1.51128400     -1077.5809869794 -1.51E+00
    33 Broy./Diag. 0.40E+00    9.5     0.03820885     -1075.9918803044  1.59E+00
    34 Broy./Diag. 0.40E+00    9.4     0.02322806     -1076.1496382639 -1.58E-01
    35 Broy./Diag. 0.40E+00    9.4     0.00272655     -1076.0353459905  1.14E-01
    36 Broy./Diag. 0.40E+00    9.3     0.00186625     -1076.0611447505 -2.58E-02
    37 Broy./Diag. 0.40E+00    9.5     0.00230157     -1076.0380337706  2.31E-02
    38 Broy./Diag. 0.40E+00    9.4     0.00314196     -1076.0532605674 -1.52E-02
    39 Broy./Diag. 0.40E+00    9.5     0.00306925     -1076.0351765149  1.81E-02
    40 Broy./Diag. 0.40E+00    9.6     0.00161810     -1076.0588701320 -2.37E-02
    41 Broy./Diag. 0.40E+00    9.8     0.01396571     -1076.0381595048  2.07E-02
    42 Broy./Diag. 0.40E+00    9.3     0.00715020     -1076.0902611627 -5.21E-02
    43 Broy./Diag. 0.40E+00    9.3     1.49920278     -1076.0872076251  3.05E-03
    44 Broy./Diag. 0.40E+00    9.1     1.51024960     -1077.5862821250 -1.50E+00
    45 Broy./Diag. 0.40E+00    9.4     0.01097333     -1076.0174948963  1.57E+00
    46 Broy./Diag. 0.40E+00    9.5     0.01113685     -1075.9903361650  2.72E-02
    47 Broy./Diag. 0.40E+00    9.5     0.00637759     -1076.0640036599 -7.37E-02
    48 Broy./Diag. 0.40E+00    9.4     0.00287749     -1076.0279605896  3.60E-02
    49 Broy./Diag. 0.40E+00    9.4     0.00266792     -1076.0302740588 -2.31E-03
    50 Broy./Diag. 0.40E+00    9.3     0.00205241     -1076.0215864992  8.69E-03
    51 Broy./Diag. 0.40E+00    9.7     0.00119925     -1076.0514165864 -2.98E-02
    52 Broy./Diag. 0.40E+00    9.9     0.00169269     -1076.0336604753  1.78E-02
    53 Broy./Diag. 0.40E+00    9.6     0.01524302     -1076.0356613341 -2.00E-03
    54 Broy./Diag. 0.40E+00    9.5     0.00481056     -1076.0900621422 -5.44E-02
    55 Broy./Diag. 0.40E+00    9.5     0.00443659     -1076.0625161173  2.75E-02
    56 Broy./Diag. 0.40E+00    9.4     0.00412788     -1076.0627260868 -2.10E-04
    57 Broy./Diag. 0.40E+00    9.5     1.49917460     -1076.0761923500 -1.35E-02
    58 Broy./Diag. 0.40E+00    9.9     1.54778527     -1077.5848526952 -1.51E+00
    59 Broy./Diag. 0.40E+00    9.6     0.05196226     -1075.9539013722  1.63E+00
    60 Broy./Diag. 0.40E+00    9.3     0.02547721     -1075.8525797913  1.01E-01
    61 Broy./Diag. 0.40E+00    9.5     0.00750474     -1075.9384101297 -8.58E-02
    62 Broy./Diag. 0.40E+00    9.5     0.00470083     -1076.0972836399 -1.59E-01
    63 Broy./Diag. 0.40E+00    9.5     0.00393004     -1076.0069246340  9.04E-02
    64 Broy./Diag. 0.40E+00    9.5     0.00385751     -1075.9840606601  2.29E-02
    65 Broy./Diag. 0.40E+00    9.6     0.00452069     -1076.0180702533 -3.40E-02
    66 Broy./Diag. 0.40E+00    9.4     0.00349878     -1076.0312901449 -1.32E-02
    67 Broy./Diag. 0.40E+00    9.6     0.01814132     -1076.0200489228  1.12E-02
    68 Broy./Diag. 0.40E+00   10.1     0.00390062     -1076.0590986879 -3.90E-02
    69 Broy./Diag. 0.40E+00    9.3     0.00289503     -1076.0523988637  6.70E-03
    70 Broy./Diag. 0.40E+00    9.2     0.00327355     -1076.0668780811 -1.45E-02
    71 Broy./Diag. 0.40E+00    9.6     0.00455536     -1076.0568360200  1.00E-02
    72 Broy./Diag. 0.40E+00    9.6     1.45955537     -1076.0494756062  7.36E-03
    73 Broy./Diag. 0.40E+00    9.4     1.47128523     -1077.5373514335 -1.49E+00
    74 Broy./Diag. 0.40E+00    9.5     0.04136601     -1076.0248209325  1.51E+00
    75 Broy./Diag. 0.40E+00    9.5     0.02509454     -1076.1592853327 -1.34E-01
    76 Broy./Diag. 0.40E+00    9.5     1.50093938     -1076.0431494755  1.16E-01
    77 Broy./Diag. 0.40E+00    9.6     1.50856484     -1077.5616341095 -1.52E+00
    78 Broy./Diag. 0.40E+00    9.5     0.03659024     -1076.0090649101  1.55E+00
    79 Broy./Diag. 0.40E+00    9.9     0.02628109     -1076.1044208713 -9.54E-02
    80 Broy./Diag. 0.40E+00    9.7     0.01192524     -1076.0404541384  6.40E-02
    81 Broy./Diag. 0.40E+00    9.8     0.00459177     -1076.0595006715 -1.90E-02
    82 Broy./Diag. 0.40E+00    9.6     0.00656603     -1076.0329006157  2.66E-02
    83 Broy./Diag. 0.40E+00    9.4     0.00416182     -1076.0653552023 -3.25E-02
    84 Broy./Diag. 0.40E+00    9.6     0.00334463     -1076.0423970741  2.30E-02
    85 Broy./Diag. 0.40E+00    9.6     0.00221015     -1076.0468532338 -4.46E-03
    86 Broy./Diag. 0.40E+00    9.7     0.01290954     -1076.0510910031 -4.24E-03
    87 Broy./Diag. 0.40E+00    9.4     1.49798645     -1076.0885202351 -3.74E-02
    88 Broy./Diag. 0.40E+00    9.7     1.50949780     -1077.5845640948 -1.50E+00
    89 Broy./Diag. 0.40E+00    9.6     0.00808567     -1076.0189571447  1.57E+00
    90 Broy./Diag. 0.40E+00    9.4     0.00603882     -1076.0506464002 -3.17E-02
    91 Broy./Diag. 0.40E+00    9.7     0.00240274     -1076.0250799806  2.56E-02
    92 Broy./Diag. 0.40E+00    9.3     0.00194422     -1076.0478816782 -2.28E-02
    93 Broy./Diag. 0.40E+00    9.5     0.00173800     -1076.0427402639  5.14E-03
    94 Broy./Diag. 0.40E+00    9.5     0.00086457     -1076.0386618004  4.08E-03
    95 Broy./Diag. 0.40E+00    9.4     0.00026531     -1076.0424164194 -3.75E-03
    96 Broy./Diag. 0.40E+00    9.6     0.00056364     -1076.0434932827 -1.08E-03
    97 Broy./Diag. 0.40E+00    9.5     0.01105488     -1076.0430473704  4.46E-04
    98 Broy./Diag. 0.40E+00    9.7     0.00467501     -1076.0870174388 -4.40E-02
    99 Broy./Diag. 0.40E+00    9.5     0.00311003     -1076.0619157114  2.51E-02
   100 Broy./Diag. 0.40E+00    9.6     1.49990377     -1076.0586983880  3.22E-03
   101 Broy./Diag. 0.40E+00    9.4     1.53509737     -1077.5701401561 -1.51E+00
   102 Broy./Diag. 0.40E+00    9.6     1.47742327     -1078.9096359257 -1.34E+00
   103 Broy./Diag. 0.40E+00    9.5     0.07831699     -1075.7871273464  3.12E+00
   104 Broy./Diag. 0.40E+00    9.4     0.04689727     -1076.0141704607 -2.27E-01
   105 Broy./Diag. 0.40E+00    9.5     0.01428105     -1076.0580817811 -4.39E-02
   106 Broy./Diag. 0.40E+00    9.6     0.01290896     -1075.9345230099  1.24E-01
   107 Broy./Diag. 0.40E+00    9.5     0.00871792     -1075.9945712035 -6.00E-02
   108 Broy./Diag. 0.40E+00    9.3     0.00804098     -1075.9800708772  1.45E-02
   109 Broy./Diag. 0.40E+00    9.3     0.00500782     -1076.0163803845 -3.63E-02
   110 Broy./Diag. 0.40E+00    9.7     0.01661906     -1075.9972677603  1.91E-02
   111 Broy./Diag. 0.40E+00    9.6     0.00959307     -1076.0905079937 -9.32E-02
   112 Broy./Diag. 0.40E+00    9.5     0.00717224     -1076.0564420942  3.41E-02
   113 Broy./Diag. 0.40E+00    9.4     0.00590452     -1076.0767252990 -2.03E-02
   114 Broy./Diag. 0.40E+00    9.4     0.00543284     -1076.0565745606  2.02E-02
   115 Broy./Diag. 0.40E+00    9.4     0.00525880     -1076.0844536508 -2.79E-02
   116 Broy./Diag. 0.40E+00    9.9     0.00508513     -1076.0355119721  4.89E-02
   117 Broy./Diag. 0.40E+00    9.9     1.49883917     -1076.0671224219 -3.16E-02
   118 Broy./Diag. 0.40E+00    9.3     1.52125781     -1077.5829811966 -1.52E+00
   119 Broy./Diag. 0.40E+00    9.6     1.18117057     -1076.1028414230  1.48E+00
   120 Broy./Diag. 0.40E+00    9.6     1.19458987     -1077.2068643935 -1.10E+00
   121 Broy./Diag. 0.40E+00    9.5     0.13723112     -1075.6682942502  1.54E+00
   122 Broy./Diag. 0.40E+00    9.4     0.08895625     -1076.6166470169 -9.48E-01
   123 Broy./Diag. 0.40E+00    9.6     0.02788267     -1075.9241391102  6.93E-01
   124 Broy./Diag. 0.40E+00    9.6     0.02407062     -1076.0375269598 -1.13E-01
   125 Broy./Diag. 0.40E+00    9.6     0.00980894     -1075.9690492848  6.85E-02
   126 Broy./Diag. 0.40E+00    9.5     0.00216052     -1076.0108474644 -4.18E-02
   127 Broy./Diag. 0.40E+00    9.3     0.05833253     -1076.0025349077  8.31E-03
   128 Broy./Diag. 0.40E+00    9.1     0.03860839     -1076.1317890109 -1.29E-01
   129 Broy./Diag. 0.40E+00    9.6     0.01685465     -1076.0024048152  1.29E-01
   130 Broy./Diag. 0.40E+00    9.4     0.01136930     -1076.0850958209 -8.27E-02
   131 Broy./Diag. 0.40E+00    9.5     0.00682455     -1076.0615950623  2.35E-02
   132 Broy./Diag. 0.40E+00    9.6     0.00287647     -1076.0554884377  6.11E-03
   133 Broy./Diag. 0.40E+00    9.3     0.00244723     -1076.0786116985 -2.31E-02
   134 Broy./Diag. 0.40E+00    9.0     0.00248804     -1076.0650321711  1.36E-02
   135 Broy./Diag. 0.40E+00    9.8     1.49923958     -1076.0487652731  1.63E-02
   136 Broy./Diag. 0.40E+00    9.7     1.50813069     -1077.5489246861 -1.50E+00
   137 Broy./Diag. 0.40E+00    9.3     0.01867767     -1076.0076827342  1.54E+00
   138 Broy./Diag. 0.40E+00    9.7     0.02101298     -1076.0962230134 -8.85E-02
   139 Broy./Diag. 0.40E+00    9.3     0.01250016     -1076.0106202083  8.56E-02
   140 Broy./Diag. 0.40E+00    9.9     0.00324267     -1076.0399531135 -2.93E-02
   141 Broy./Diag. 0.40E+00    9.5     0.00141312     -1076.0470364460 -7.08E-03
   142 Broy./Diag. 0.40E+00    9.5     0.00093198     -1076.0412504148  5.79E-03
   143 Broy./Diag. 0.40E+00    9.3     0.00082654     -1076.0422519744 -1.00E-03
   144 Broy./Diag. 0.40E+00    9.4     0.00049253     -1076.0437270247 -1.48E-03
   145 Broy./Diag. 0.40E+00    9.4     0.01474229     -1076.0439467036 -2.20E-04
   146 Broy./Diag. 0.40E+00    9.6     0.00794222     -1076.0879875085 -4.40E-02
   147 Broy./Diag. 0.40E+00    9.6     0.00831611     -1076.0503129672  3.77E-02
   148 Broy./Diag. 0.40E+00    9.3     1.50007924     -1076.0663053334 -1.60E-02
   149 Broy./Diag. 0.40E+00    9.3     1.52643266     -1077.5702586122 -1.50E+00
   150 Broy./Diag. 0.40E+00    9.6     0.08568587     -1075.9412794150  1.63E+00
   151 Broy./Diag. 0.40E+00    9.5     0.06710633     -1076.1178934163 -1.77E-01
   152 Broy./Diag. 0.40E+00    9.2     0.01013278     -1075.9643129886  1.54E-01
   153 Broy./Diag. 0.40E+00    9.8     0.00599108     -1076.0522917659 -8.80E-02
   154 Broy./Diag. 0.40E+00    9.7     0.00312263     -1076.0207601659  3.15E-02
   155 Broy./Diag. 0.40E+00    9.3     0.00272424     -1076.0223755168 -1.62E-03
   156 Broy./Diag. 0.40E+00    9.6     0.00260440     -1076.0101113179  1.23E-02
   157 Broy./Diag. 0.40E+00    9.6     0.00201643     -1076.0246047847 -1.45E-02
   158 Broy./Diag. 0.40E+00    9.6     0.01833755     -1076.0280542297 -3.45E-03
   159 Broy./Diag. 0.40E+00    9.3     0.00415508     -1076.0660465798 -3.80E-02
   160 Broy./Diag. 0.40E+00    9.9     0.00319944     -1076.0335731712  3.25E-02
   161 Broy./Diag. 0.40E+00    9.8     0.00280102     -1076.0739540274 -4.04E-02
   162 Broy./Diag. 0.40E+00    9.4     0.00269739     -1076.0493515165  2.46E-02
   163 Broy./Diag. 0.40E+00    9.5     1.49945572     -1076.0593365127 -9.98E-03
   164 Broy./Diag. 0.40E+00    9.4     1.69980424     -1077.6088494951 -1.55E+00
   165 Broy./Diag. 0.40E+00    9.5     0.07641696     -1077.1887672767  4.20E-01
   166 Broy./Diag. 0.40E+00    9.4     1.54543809     -1076.8473436146  3.41E-01
   167 Broy./Diag. 0.40E+00    9.3     1.67911882     -1077.1081857705 -2.61E-01
   168 Broy./Diag. 0.40E+00    9.4     1.49463173     -1077.3466084567 -2.38E-01
   169 Broy./Diag. 0.40E+00    9.7     1.23518295     -1075.4361960710  1.91E+00
   170 Broy./Diag. 0.40E+00    9.8     1.20922099     -1077.8940733118 -2.46E+00
   171 Broy./Diag. 0.40E+00    9.6     0.17309063     -1076.2690396604  1.63E+00
   172 Broy./Diag. 0.40E+00    9.4     0.10341840     -1075.3629141485  9.06E-01
   173 Broy./Diag. 0.40E+00    9.4     0.04254015     -1075.9170195534 -5.54E-01
   174 Broy./Diag. 0.40E+00    9.6     0.01215722     -1075.8816543036  3.54E-02
   175 Broy./Diag. 0.40E+00    9.5     0.04167666     -1075.9123902180 -3.07E-02
   176 Broy./Diag. 0.40E+00    9.3     0.05785447     -1076.0608900851 -1.48E-01
   177 Broy./Diag. 0.40E+00    9.9     0.10437411     -1076.1441229961 -8.32E-02
   178 Broy./Diag. 0.40E+00    9.7     0.06559400     -1076.2158192480 -7.17E-02
   179 Broy./Diag. 0.40E+00    9.6     0.01422838     -1075.9968406682  2.19E-01
   180 Broy./Diag. 0.40E+00    9.5     1.49910674     -1076.1488041454 -1.52E-01
   181 Broy./Diag. 0.40E+00    9.6     1.52429974     -1077.5758653763 -1.43E+00
   182 Broy./Diag. 0.40E+00    9.5     0.05372647     -1075.8961247808  1.68E+00
   183 Broy./Diag. 0.40E+00    9.3     0.04126610     -1076.1225590438 -2.26E-01
   184 Broy./Diag. 0.40E+00    9.4     0.00676728     -1076.0163489813  1.06E-01
   185 Broy./Diag. 0.40E+00    9.4     0.00582604     -1076.0192897495 -2.94E-03
   186 Broy./Diag. 0.40E+00    9.3     0.00789377     -1076.0028717305  1.64E-02
   187 Broy./Diag. 0.40E+00    9.6     0.00625159     -1076.0403871357 -3.75E-02
   188 Broy./Diag. 0.40E+00    9.7     0.00407093     -1076.0245333924  1.59E-02
   189 Broy./Diag. 0.40E+00    9.4     0.00247652     -1076.0316619273 -7.13E-03
   190 Broy./Diag. 0.40E+00    9.0     0.01406409     -1076.0195032081  1.22E-02
   191 Broy./Diag. 0.40E+00    9.3     0.00215742     -1076.0583268719 -3.88E-02
   192 Broy./Diag. 0.40E+00    9.2     0.00225085     -1076.0796250347 -2.13E-02
   193 Broy./Diag. 0.40E+00    9.7     0.00203138     -1076.0526372431  2.70E-02
   194 Broy./Diag. 0.40E+00   10.0     1.49986968     -1076.0526862440 -4.90E-05
   195 Broy./Diag. 0.40E+00    9.6     1.69171646     -1077.5963100967 -1.54E+00
   196 Broy./Diag. 0.40E+00    9.6     0.06934636     -1077.1013177199  4.95E-01
   197 Broy./Diag. 0.40E+00    9.5     0.02589237     -1076.9615999043  1.40E-01
   198 Broy./Diag. 0.40E+00    9.3     1.62599341     -1076.9874917426 -2.59E-02
   199 Broy./Diag. 0.40E+00    9.7     0.08792778     -1075.3338216905  1.65E+00
   200 Broy./Diag. 0.40E+00    9.6     0.06239392     -1075.2151790276  1.19E-01
   201 Broy./Diag. 0.40E+00    9.6     0.02669326     -1075.6048816869 -3.90E-01
   202 Broy./Diag. 0.40E+00    9.4     0.02458887     -1075.7258180688 -1.21E-01
   203 Broy./Diag. 0.40E+00    9.4     0.04872558     -1075.4894285045  2.36E-01
   204 Broy./Diag. 0.40E+00    9.6     1.46764900     -1075.7667687262 -2.77E-01
   205 Broy./Diag. 0.40E+00    9.6     1.47242249     -1077.7740248773 -2.01E+00
   206 Broy./Diag. 0.40E+00    9.5     1.22032837     -1077.9194663711 -1.45E-01
   207 Broy./Diag. 0.40E+00    9.4     1.46505279     -1076.2482592438  1.67E+00
   208 Broy./Diag. 0.40E+00    9.6     1.48540394     -1076.9208166922 -6.73E-01
   209 Broy./Diag. 0.40E+00   10.0     0.96161101     -1076.8785226989  4.23E-02
   210 Broy./Diag. 0.40E+00    9.9     1.52265760     -1075.4575607306  1.42E+00
   211 Broy./Diag. 0.40E+00    9.6     1.53982975     -1077.7120693583 -2.25E+00
   212 Broy./Diag. 0.40E+00    9.3     0.19201073     -1076.6466902458  1.07E+00
   213 Broy./Diag. 0.40E+00    9.4     0.14315335     -1075.4274720570  1.22E+00
   214 Broy./Diag. 0.40E+00    9.5     0.05669638     -1076.0010011429 -5.74E-01
   215 Broy./Diag. 0.40E+00    9.5     0.03678592     -1075.9819575936  1.90E-02
   216 Broy./Diag. 0.40E+00    9.7     0.01956184     -1075.9785182858  3.44E-03
   217 Broy./Diag. 0.40E+00    9.5     0.03526659     -1076.0644850031 -8.60E-02
   218 Broy./Diag. 0.40E+00    9.6     0.02667667     -1076.0276781942  3.68E-02
   219 Broy./Diag. 0.40E+00    9.5     0.02771659     -1076.0244382922  3.24E-03
   220 Broy./Diag. 0.40E+00    9.4     0.06542706     -1076.0263258233 -1.89E-03
   221 Broy./Diag. 0.40E+00    9.5     0.03798404     -1076.2106694827 -1.84E-01
   222 Broy./Diag. 0.40E+00    9.3     0.01862441     -1076.0750470147  1.36E-01
   223 Broy./Diag. 0.40E+00    9.3     0.01710680     -1076.1344000952 -5.94E-02
   224 Broy./Diag. 0.40E+00    9.5     0.00854329     -1076.0401319139  9.43E-02
   225 Broy./Diag. 0.40E+00    9.8     0.00571621     -1076.0939606275 -5.38E-02
   226 Broy./Diag. 0.40E+00    9.3     0.00374715     -1076.0700952762  2.39E-02
   227 Broy./Diag. 0.40E+00    9.4     0.00278172     -1076.0585553205  1.15E-02
   228 Broy./Diag. 0.40E+00    9.7     1.49911297     -1076.0502913650  8.26E-03
   229 Broy./Diag. 0.40E+00    9.5     1.50681232     -1077.5672937442 -1.52E+00
   230 Broy./Diag. 0.40E+00    9.4     0.01923185     -1076.0243281835  1.54E+00
   231 Broy./Diag. 0.40E+00    9.4     0.01486480     -1076.0540703184 -2.97E-02
   232 Broy./Diag. 0.40E+00    9.5     0.00578170     -1076.0626180773 -8.55E-03
   233 Broy./Diag. 0.40E+00    9.4     0.00676354     -1076.0502731904  1.23E-02
   234 Broy./Diag. 0.40E+00    9.3     0.00427758     -1076.0610964331 -1.08E-02
   235 Broy./Diag. 0.40E+00    9.8     0.00259769     -1076.0251013389  3.60E-02
   236 Broy./Diag. 0.40E+00    9.5     0.00145181     -1076.0412009924 -1.61E-02
   237 Broy./Diag. 0.40E+00    9.5     0.00129884     -1076.0490821887 -7.88E-03
   238 Broy./Diag. 0.40E+00    9.4     0.01780115     -1076.0526530498 -3.57E-03
   239 Broy./Diag. 0.40E+00    9.7     0.00869634     -1076.0858042582 -3.32E-02
   240 Broy./Diag. 0.40E+00   10.1     1.49900246     -1076.0618926437  2.39E-02
   241 Broy./Diag. 0.40E+00    9.4     1.51086799     -1077.5721436776 -1.51E+00
   242 Broy./Diag. 0.40E+00    9.6     0.01410052     -1076.0164171384  1.56E+00
   243 Broy./Diag. 0.40E+00    9.8     0.00687250     -1076.0225144692 -6.10E-03
   244 Broy./Diag. 0.40E+00    9.5     0.00705282     -1076.0057027622  1.68E-02
   245 Broy./Diag. 0.40E+00    9.5     0.00325347     -1076.0316808750 -2.60E-02
   246 Broy./Diag. 0.40E+00    9.5     0.00128359     -1076.0249612338  6.72E-03
   247 Broy./Diag. 0.40E+00    9.9     0.00129331     -1076.0320391084 -7.08E-03
   248 Broy./Diag. 0.40E+00    9.5     0.00103424     -1076.0272823635  4.76E-03
   249 Broy./Diag. 0.40E+00    9.3     0.00279231     -1076.0294999223 -2.22E-03
   250 Broy./Diag. 0.40E+00    9.0     0.01353238     -1076.0316103995 -2.11E-03
   251 Broy./Diag. 0.40E+00    9.9     0.00502769     -1076.0486688916 -1.71E-02
   252 Broy./Diag. 0.40E+00    9.5     0.00511275     -1076.0565356660 -7.87E-03
   253 Broy./Diag. 0.40E+00    9.6     1.49959545     -1076.0626176046 -6.08E-03
   254 Broy./Diag. 0.40E+00    9.4     1.68926709     -1077.6056260170 -1.54E+00
   255 Broy./Diag. 0.40E+00    9.5     0.07763949     -1077.1854332896  4.20E-01
   256 Broy./Diag. 0.40E+00   10.0     0.02327390     -1076.9714222563  2.14E-01
   257 Broy./Diag. 0.40E+00   10.4     1.63009145     -1076.9874101657 -1.60E-02
   258 Broy./Diag. 0.40E+00    9.4     1.51300914     -1076.6814624995  3.06E-01
   259 Broy./Diag. 0.40E+00    9.6     1.24518633     -1076.3859897492  2.95E-01
   260 Broy./Diag. 0.40E+00    9.6     0.21216065     -1074.6729151819  1.71E+00
   261 Broy./Diag. 0.40E+00    9.6     0.15612731     -1076.5262086614 -1.85E+00
   262 Broy./Diag. 0.40E+00    9.4     0.09939949     -1075.4094322306  1.12E+00
   263 Broy./Diag. 0.40E+00    9.4     0.17556651     -1075.6259986895 -2.17E-01
   264 Broy./Diag. 0.40E+00    9.8     0.13434943     -1076.1050849549 -4.79E-01
   265 Broy./Diag. 0.40E+00    9.4     0.08773388     -1077.0537500195 -9.49E-01
   266 Broy./Diag. 0.40E+00    9.7     0.07268888     -1075.7892195198  1.26E+00
   267 Broy./Diag. 0.40E+00    9.5     0.05952624     -1076.0353118790 -2.46E-01
   268 Broy./Diag. 0.40E+00    9.6     0.01507274     -1076.0544529124 -1.91E-02
   269 Broy./Diag. 0.40E+00    9.5     1.49941496     -1076.1023504780 -4.79E-02
   270 Broy./Diag. 0.40E+00    9.0     1.51391238     -1077.5909206233 -1.49E+00
   271 Broy./Diag. 0.40E+00    8.9     0.03377263     -1075.9983442798  1.59E+00
   272 Broy./Diag. 0.40E+00    9.1     0.02777886     -1076.1412512801 -1.43E-01
   273 Broy./Diag. 0.40E+00    9.5     0.00575278     -1076.0674605893  7.38E-02
   274 Broy./Diag. 0.40E+00    9.3     0.00672324     -1075.9762208806  9.12E-02
   275 Broy./Diag. 0.40E+00    9.4     0.00602313     -1076.0135323297 -3.73E-02
   276 Broy./Diag. 0.40E+00    9.8     0.00287168     -1076.0317362368 -1.82E-02
   277 Broy./Diag. 0.40E+00    9.8     0.00252657     -1076.0378793683 -6.14E-03
   278 Broy./Diag. 0.40E+00    9.6     0.00191310     -1076.0187525669  1.91E-02
   279 Broy./Diag. 0.40E+00    9.4     1.18513485     -1076.0138456212  4.91E-03
   280 Broy./Diag. 0.40E+00   10.1     1.19268213     -1077.6260215297 -1.61E+00
   281 Broy./Diag. 0.40E+00    9.8     0.02119225     -1076.0921416396  1.53E+00
   282 Broy./Diag. 0.40E+00    9.3     0.01649172     -1076.0288890352  6.33E-02
   283 Broy./Diag. 0.40E+00    9.3     0.00571546     -1076.0785214561 -4.96E-02
   284 Broy./Diag. 0.40E+00    9.2     0.00455044     -1076.0524707623  2.61E-02
   285 Broy./Diag. 0.40E+00    9.6     0.00392720     -1076.0569843313 -4.51E-03
   286 Broy./Diag. 0.40E+00    9.6     0.00538184     -1076.0600444357 -3.06E-03
   287 Broy./Diag. 0.40E+00    9.4     1.49963347     -1076.0512497023  8.79E-03
   288 Broy./Diag. 0.40E+00    9.8     1.50881003     -1077.5617607848 -1.51E+00
   289 Broy./Diag. 0.40E+00    9.4     0.02454382     -1075.9649085561  1.60E+00
   290 Broy./Diag. 0.40E+00    9.6     0.01672898     -1076.2237836208 -2.59E-01
   291 Broy./Diag. 0.40E+00    9.6     0.00998434     -1076.0524246803  1.71E-01
   292 Broy./Diag. 0.40E+00   10.1     0.00416407     -1076.0280765204  2.43E-02
   293 Broy./Diag. 0.40E+00   10.2     0.00280317     -1076.0513408406 -2.33E-02
   294 Broy./Diag. 0.40E+00    9.3     0.00240276     -1076.0389960039  1.23E-02
   295 Broy./Diag. 0.40E+00    9.1     0.00209433     -1076.0467205878 -7.72E-03
   296 Broy./Diag. 0.40E+00    9.5     0.00157835     -1076.0446457263  2.07E-03
   297 Broy./Diag. 0.40E+00    9.4     0.02190946     -1076.0414052775  3.24E-03
   298 Broy./Diag. 0.40E+00    9.5     0.01126426     -1076.0940066477 -5.26E-02
   299 Broy./Diag. 0.40E+00    9.6     0.00876837     -1076.1033856856 -9.38E-03
   300 Broy./Diag. 0.40E+00    9.5     1.50008664     -1075.9956203053  1.08E-01

  Leaving inner SCF loop after reaching   300 steps.


  Electronic density on regular grids:       -511.9995465589        0.0004534411
  Core density on regular grids:              512.0002685427        0.0002685427
  Total charge density on r-space grids:        0.0007219838
  Total charge density g-space grids:           0.0007219838

  Overlap energy of the core charge distribution:               0.00000000000000
  Self energy of the core charge distribution:              -2838.21791979120962
  Core Hamiltonian energy:                                    760.03299770814965
  Hartree energy:                                            1240.85581619230265
  Exchange-correlation energy:                               -238.66651441455184

  Total energy:                                             -1075.99562030530910

 *** WARNING in qs_scf.F:542 :: SCF run NOT converged ***


 ENERGY| Total FORCE_EVAL ( QS ) energy (a.u.):            -1074.152840429432445


 ATOMIC FORCES in [a.u.]

 # Atom   Kind   Element          X              Y              Z
      1      1      O          -0.05713128    -0.08558346     0.00092962
      2      2      H           0.07529218     0.01690509    -0.01528238
      3      2      H          -0.02266817     0.03404588     0.06734327
      4      1      O           0.02251285     0.02425142    -0.05951297
      5      2      H          -0.06581445    -0.02363034     0.06441038
      6      2      H           0.02925543     0.09832765     0.02058284
      7      1      O           0.05409993    -0.00288861     0.09012966
      8      2      H           0.00277612    -0.02812867    -0.05906069
      9      2      H          -0.00913853     0.03394055     0.00128263
     10      1      O           0.05636391    -0.01113608    -0.02833408
     11      2      H          -0.03800714     0.07744224    -0.02503085
     12      2      H           0.01853173    -0.06848268    -0.04186979
     13      1      O          -0.06713296    -0.13078774     0.01831794
     14      2      H          -0.04028420     0.07948060    -0.07028694
     15      2      H           0.01750224     0.04760810     0.06717202
     16      1      O          -0.09780254     0.01263972    -0.12486338
     17      2      H           0.02217707    -0.04280329     0.00499817
     18      2      H           0.03580195     0.03199526     0.09550940
     19      1      O           0.02112476    -0.05255820    -0.01379838
     20      2      H          -0.11367675    -0.02226173     0.01922748
     21      2      H           0.00645139     0.08417411     0.03655691
     22      1      O           0.10302197    -0.01047108     0.08026117
     23      2      H          -0.01934060     0.07315558     0.04188332
     24      2      H          -0.02156128     0.01253062    -0.03534447
     25      1      O           0.03145165    -0.06783222    -0.02228759
     26      2      H           0.06478844     0.04768044    -0.04710055
     27      2      H          -0.02294205     0.05298380    -0.00177585
     28      1      O           0.01541739    -0.11830439     0.00468843
     29      2      H          -0.02168552     0.02337294    -0.00136871
     30      2      H           0.09605207     0.04466423    -0.04194890
     31      1      O          -0.04801990     0.03526791    -0.00496279
     32      2      H          -0.06150540    -0.03492797     0.01716918
     33      2      H           0.06833636     0.01790381     0.00538583
     34      1      O          -0.02541248    -0.03579669     0.08020800
     35      2      H           0.09941542     0.04597647    -0.03073301
     36      2      H          -0.08581691     0.03738486    -0.01209223
     37      1      O          -0.13800009     0.05232466    -0.06509280
     38      2      H           0.05049521    -0.00128800     0.03498559
     39      2      H           0.04253075    -0.03127844    -0.05221434
     40      1      O          -0.09258761    -0.10568434     0.05092414
     41      2      H           0.06445621    -0.00389942    -0.03396961
     42      2      H          -0.01085673     0.00967884    -0.04798452
     43      1      O           0.09261963    -0.07628519    -0.04267038
     44      2      H          -0.06418191     0.02759023    -0.05272604
     45      2      H          -0.04531968    -0.00628346     0.06180498
     46      1      O          -0.04497488     0.11550199    -0.03424743
     47      2      H          -0.08630091    -0.05187407     0.03606346
     48      2      H           0.06012260    -0.01635814    -0.04716340
     49      1      O           0.04751827    -0.03425447    -0.00614600
     50      2      H          -0.01797998     0.04110433     0.03629542
     51      2      H          -0.11809514     0.01839300    -0.00616292
     52      1      O           0.04987804     0.02652356     0.05680631
     53      2      H           0.02863038    -0.01178081    -0.06826008
     54      2      H           0.03225270     0.05318946     0.07649700
     55      1      O          -0.09703745    -0.06059584    -0.01914691
     56      2      H           0.05508181    -0.03296980    -0.00729299
     57      2      H          -0.03064474     0.06206657    -0.06106816
     58      1      O           0.01951965    -0.04990480    -0.02775844
     59      2      H           0.04154172     0.06340006     0.01035414
     60      2      H          -0.06210656     0.01689836     0.00955081
     61      1      O           0.01291810    -0.09474491    -0.03740275
     62      2      H          -0.06380577     0.02674012     0.00295391
     63      2      H           0.05252101     0.02558260     0.02293088
     64      1      O          -0.01384882    -0.04334779     0.02729775
     65      2      H           0.02016393     0.05567597    -0.00436361
     66      2      H           0.06810524     0.02799975     0.01865811
     67      1      O           0.03414427    -0.01773053     0.10061816
     68      2      H           0.01503712     0.02171203    -0.11008539
     69      2      H           0.01763229     0.07529666     0.02904959
     70      1      O           0.00703144     0.01203270    -0.08053834
     71      2      H          -0.07208728    -0.08556893     0.02658389
     72      2      H           0.00377796     0.03482667     0.07831844
     73      1      O          -0.03246125    -0.10949576     0.00351567
     74      2      H           0.06495765     0.02889860     0.01092979
     75      2      H          -0.08938281    -0.01014089     0.05565825
     76      1      O           0.01832498     0.10453077    -0.13045855
     77      2      H          -0.07188564    -0.01858393     0.05812426
     78      2      H           0.07862447    -0.02266637     0.01134724
     79      1      O           0.07638158    -0.10087062     0.06715021
     80      2      H          -0.00709578     0.03209299     0.01924785
     81      2      H           0.02321349     0.03530465    -0.09405701
     82      1      O          -0.00179319    -0.09854998     0.04834702
     83      2      H          -0.03049207     0.02240674    -0.07992423
     84      2      H           0.10969876     0.00912551     0.03936784
     85      1      O           0.06354498     0.04689949    -0.05549995
     86      2      H          -0.00845387    -0.00907955     0.04501790
     87      2      H          -0.04526330     0.02693814    -0.01649363
     88      1      O          -0.02013646     0.05027683    -0.02891922
     89      2      H           0.06077144     0.04198659     0.07186019
     90      2      H          -0.06531389    -0.01926007    -0.01018690
     91      1      O          -0.05457245    -0.03185660     0.06568555
     92      2      H          -0.07986159     0.06577833    -0.04707921
     93      2      H           0.06215678    -0.00039056    -0.05581992
     94      1      O          -0.05794121    -0.04088131    -0.14352584
     95      2      H           0.03704654    -0.03361019     0.11501498
     96      2      H          -0.01270215     0.09350090    -0.02351750
     97      1      O           0.10233223     0.08378481    -0.00995289
     98      2      H          -0.04750522    -0.05397061     0.04962016
     99      2      H          -0.07267897     0.05099608    -0.08547131
    100      1      O           0.09548431     0.01144256     0.06236719
    101      2      H          -0.03766010     0.04762973    -0.05680338
    102      2      H          -0.05044314    -0.04537981     0.07308026
    103      1      O           0.00674069    -0.11690395    -0.08403046
    104      2      H          -0.00919322     0.02747710     0.02506003
    105      2      H           0.03960894    -0.01055847    -0.00918509
    106      1      O           0.09367170    -0.09794180    -0.05145971
    107      2      H          -0.05969139     0.02423224     0.03774326
    108      2      H           0.05033927     0.02234775     0.05247987
    109      1      O           0.02030621     0.08488597    -0.09533041
    110      2      H          -0.03016606    -0.05695447     0.00854707
    111      2      H           0.02742442     0.03335233     0.08363887
    112      1      O           0.07930383    -0.02529494    -0.00553544
    113      2      H          -0.00387753     0.04772041    -0.02319642
    114      2      H          -0.00230475    -0.00174673     0.03545100
    115      1      O           0.05170660    -0.16312551    -0.02024194
    116      2      H          -0.08041504     0.06628208    -0.02744000
    117      2      H           0.09600894     0.04492425    -0.02743799
    118      1      O           0.02665387    -0.01333405    -0.02533282
    119      2      H          -0.00525275    -0.01236689    -0.02552604
    120      2      H           0.02053340     0.06889079     0.05302342
    121      1      O           0.01531177    -0.07570210    -0.05286998
    122      2      H          -0.08762009    -0.03105733     0.02119922
    123      2      H           0.00766454     0.08111832    -0.06191897
    124      1      O           0.09469140     0.00577051    -0.00500126
    125      2      H          -0.04435623     0.04320741    -0.02995468
    126      2      H          -0.00696197    -0.03684447     0.03400186
    127      1      O          -0.02512303    -0.11084519     0.03463156
    128      2      H          -0.04735858     0.02929692    -0.06338990
    129      2      H           0.00177513     0.07042806     0.03790894
    130      1      O           0.00166603    -0.03799375     0.09884931
    131      2      H           0.04846912    -0.01609065    -0.06665422
    132      2      H           0.02047006     0.05378031    -0.02311579
    133      1      O          -0.00622300    -0.08545602     0.04858706
    134      2      H          -0.02269047    -0.03701861    -0.02129363
    135      2      H           0.01135036     0.06133450    -0.01667268
    136      1      O          -0.01410947    -0.01368780     0.00072845
    137      2      H           0.03816478     0.01701328     0.08877387
    138      2      H           0.02150553     0.02832318    -0.00005496
    139      1      O          -0.05347741     0.01646748    -0.06714446
    140      2      H          -0.00508317     0.02553918     0.03214432
    141      2      H          -0.03263812     0.00006423     0.06247286
    142      1      O           0.02972232    -0.09648535    -0.01738275
    143      2      H           0.04672977    -0.00088381    -0.06024856
    144      2      H           0.03691277     0.04954094     0.05130102
    145      1      O           0.05725862    -0.07672607    -0.01903931
    146      2      H           0.06271560     0.00715837     0.02958239
    147      2      H          -0.04390758     0.02169158     0.06476161
    148      1      O           0.04289835     0.01004499     0.14345015
    149      2      H          -0.00186023     0.06839576    -0.05616635
    150      2      H          -0.06058858    -0.05798977     0.01267216
    151      1      O          -0.10350595     0.04933918    -0.09255189
    152      2      H           0.01971965    -0.04634432     0.07627853
    153      2      H           0.02677144     0.05549755     0.03503664
    154      1      O          -0.11156152    -0.00434219     0.04678502
    155      2      H           0.03723279     0.02403524     0.04683271
    156      2      H           0.02546991    -0.03025134    -0.04609921
    157      1      O           0.03480437    -0.11321936    -0.04140444
    158      2      H           0.04999691     0.07916990    -0.07810190
    159      2      H           0.01882905     0.03282741     0.02607405
    160      1      O          -0.06449902     0.01970259    -0.00032588
    161      2      H          -0.02648393    -0.04174953    -0.01926207
    162      2      H           0.06279921    -0.05818787    -0.01685086
    163      1      O          -0.00663174    -0.08095233    -0.03567330
    164      2      H          -0.06996653    -0.00851065     0.05778218
    165      2      H           0.03917415     0.03593923     0.00262918
    166      1      O          -0.05658543     0.01768807     0.06527781
    167      2      H          -0.04587766    -0.04387618    -0.06104414
    168      2      H           0.06137866     0.07625507    -0.01315191
    169      1      O           0.02597243     0.05138614     0.12417988
    170      2      H          -0.02473800     0.01510510    -0.04291926
    171      2      H          -0.02486373    -0.04256180    -0.04283483
    172      1      O          -0.01153986    -0.00096979    -0.10957939
    173      2      H          -0.05502214     0.05174468     0.07863190
    174      2      H           0.06596253    -0.06252767     0.09623424
    175      1      O           0.03090252    -0.03478381    -0.09069566
    176      2      H           0.01614115    -0.02268718    -0.01871708
    177      2      H          -0.01066374    -0.02071367     0.02285427
    178      1      O           0.04556152     0.01922896     0.00719114
    179      2      H          -0.06659241    -0.00392229    -0.01582789
    180      2      H          -0.02406469     0.04546587     0.03494540
    181      1      O          -0.19648756    -0.03699287    -0.05557410
    182      2      H          -0.01390819     0.11154362     0.02591596
    183      2      H           0.14292985    -0.08667981     0.00148555
    184      1      O          -0.02068163    -0.05019762    -0.01383809
    185      2      H           0.05622288     0.05854390    -0.03151848
    186      2      H          -0.08681972     0.06545505    -0.03575074
    187      1      O          -0.04446804    -0.01970030    -0.01972365
    188      2      H          -0.08408608     0.04375510    -0.07152891
    189      2      H           0.06661411     0.04169758     0.03641626
    190      1      O          -0.03456202    -0.07382730     0.02247603
    191      2      H           0.03732922     0.05414141    -0.03047652
    192      2      H           0.05648032    -0.02855843    -0.06074891
 SUM OF ATOMIC FORCES           0.03086606     0.26692878    -0.22136198     0.34814481

 -------------------------------------------------------------------------------
 -                                                                             -
 -                                DBCSR STATISTICS                             -
 -                                                                             -
 -------------------------------------------------------------------------------
 COUNTER                                    TOTAL       BLAS       SMM       ACC
 flops     5 x     5 x   256           5070284800       0.0%    100.0%      0.0%
 flops    13 x     5 x   256           6160627200       0.0%    100.0%      0.0%
 flops     5 x    13 x   256           6320903680       0.0%    100.0%      0.0%
 flops    13 x    13 x   256           8073927680       0.0%    100.0%      0.0%
 flops inhomo. stacks                           0       0.0%      0.0%      0.0%
 flops total                        25.625743E+09       0.0%    100.0%      0.0%
 flops max/rank                     25.625743E+09       0.0%    100.0%      0.0%
 matmuls inhomo. stacks                         0       0.0%      0.0%      0.0%
 matmuls total                             864472       0.0%    100.0%      0.0%
 number of processed stacks                 42140       0.0%    100.0%      0.0%
 average stack size                                     0.0      20.5       0.0
 marketing flops                   333.927416E+09
 -------------------------------------------------------------------------------
 # multiplications                            301
 max memory usage/rank               4.993409E+09
 # max total images/rank                        1
 # max 3D layers                                1
 # MPI messages exchanged                       0
 MPI messages size (bytes):
  total size                         0.000000E+00
  min size                           0.000000E+00
  max size                           0.000000E+00
  average size                       0.000000E+00
 MPI breakdown and total messages size (bytes):
             size <=      128                   0                        0
       128 < size <=     8192                   0                        0
      8192 < size <=    32768                   0                        0
     32768 < size <=   131072                   0                        0
    131072 < size <=  4194304                   0                        0
   4194304 < size <= 16777216                   0                        0
  16777216 < size                               0                        0
 -------------------------------------------------------------------------------

 MEMORY| Estimated peak process memory [MiB]                                4757

 -------------------------------------------------------------------------------
 -                                                                             -
 -                           R E F E R E N C E S                               -
 -                                                                             -
 -------------------------------------------------------------------------------
 
 CP2K version 7.1, the CP2K developers group (2019).
 CP2K is freely available from https://www.cp2k.org/ .

 Schuett, Ole; Messmer, Peter; Hutter, Juerg; VandeVondele, Joost. 
 Electronic Structure Calculations on Graphics Processing Units, John
 Wiley & Sons, Ltd, 173-190 (2016). 
 GPU-Accelerated Sparse Matrix-Matrix Multiplication for
 Linear Scaling Density Functional Theory.
 https://dx.doi.org/10.1002/9781118670712.ch8

 Borstnik, U; VandeVondele, J; Weber, V; Hutter, J. 
 PARALLEL COMPUTING, 40 (5-6), 47-58 (2014). 
 Sparse matrix multiplication: The distributed block-compressed sparse
 row library.
 https://dx.doi.org/10.1016/j.parco.2014.03.012

 Hutter, J; Iannuzzi, M; Schiffmann, F; VandeVondele, J. 
 WIREs Comput Mol Sci., 4 (1), 15-25 (2014). 
 CP2K: atomistic simulations of condensed matter systems.
 https://dx.doi.org/10.1002/wcms.1159

 Krack, M. 
 THEORETICAL CHEMISTRY ACCOUNTS, 114 (1-3), 145-152 (2005). 
 Pseudopotentials for H to Kr optimized for gradient-corrected
 exchange-correlation functionals.
 https://dx.doi.org/10.1007/s00214-005-0655-y

 VandeVondele, J; Krack, M; Mohamed, F; Parrinello, M; Chassaing, T;
 Hutter, J. COMPUTER PHYSICS COMMUNICATIONS, 167 (2), 103-128 (2005). 
 QUICKSTEP: Fast and accurate density functional calculations using a
 mixed Gaussian and plane waves approach.
 https://dx.doi.org/10.1016/j.cpc.2004.12.014

 Frigo, M; Johnson, SG. 
 PROCEEDINGS OF THE IEEE, 93 (2), 216-231 (2005). 
 The design and implementation of FFTW3.
 https://dx.doi.org/10.1109/JPROC.2004.840301

 Hartwigsen, C; Goedecker, S; Hutter, J. 
 PHYSICAL REVIEW B, 58 (7), 3641-3662 (1998). 
 Relativistic separable dual-space Gaussian pseudopotentials from H to Rn.
 https://dx.doi.org/10.1103/PhysRevB.58.3641

 Lippert, G; Hutter, J; Parrinello, M. 
 MOLECULAR PHYSICS, 92 (3), 477-487 (1997). 
 A hybrid Gaussian and plane wave density functional scheme.
 https://dx.doi.org/10.1080/002689797170220

 Goedecker, S; Teter, M; Hutter, J. 
 PHYSICAL REVIEW B, 54 (3), 1703-1710 (1996). 
 Separable dual-space Gaussian pseudopotentials.
 https://dx.doi.org/10.1103/PhysRevB.54.1703


 -------------------------------------------------------------------------------
 -                                                                             -
 -                                T I M I N G                                  -
 -                                                                             -
 -------------------------------------------------------------------------------
 SUBROUTINE                       CALLS  ASD         SELF TIME        TOTAL TIME
                                MAXIMUM       AVERAGE  MAXIMUM  AVERAGE  MAXIMUM
 CP2K                                 1  1.0    0.185    0.185 2852.691 2852.691
 qs_forces                            1  2.0    0.000    0.000 2850.687 2850.687
 qs_energies                          1  3.0    0.000    0.000 2849.937 2849.937
 scf_env_do_scf                       1  4.0    0.001    0.001 2847.495 2847.495
 scf_env_do_scf_inner_loop          300  5.0    0.063    0.063 2847.494 2847.494
 qs_scf_new_mos                     300  6.0    0.011    0.011 2000.102 2000.102
 eigensolver                        300  7.0    0.051    0.051 1963.833 1963.833
 cp_fm_syevd                        300  8.0 1281.757 1281.757 1283.558 1283.558
 cp_fm_cholesky_restore             900  8.0  679.206  679.206  679.206  679.206
 gspace_mixing                      299  6.0    6.836    6.836  469.125  469.125
 broyden_mixing                     299  7.0  423.453  423.453  423.455  423.455
 rebuild_ks_matrix                  301  7.0    0.001    0.001  195.117  195.117
 qs_ks_build_kohn_sham_matrix       301  8.0    0.082    0.082  195.116  195.116
 qs_ks_update_qs_env                300  6.0    0.003    0.003  194.846  194.846
 pw_transfer                       3912  9.9    0.318    0.318  186.319  186.319
 qs_rho_update_rho                  301  6.0    0.003    0.003  182.300  182.300
 calculate_rho_elec                 301  7.0   87.331   87.331  182.298  182.298
 fft_wrap_pw1pw2                   3310 10.9    0.041    0.041  180.799  180.799
 fft_wrap_pw1pw2_70                1504 11.2   19.265   19.265  166.057  166.057
 density_rs2pw                      301  8.0    0.031    0.031   91.594   91.594
 fft3d_s                           3311 12.9   83.075   83.075   83.103   83.103
 pw_scatter_s                      1804 13.2   61.720   61.720   61.720   61.720
 pw_poisson_solve                   301  9.0   54.938   54.938   60.245   60.245
 -------------------------------------------------------------------------------

 The number of warnings for this run is : 1
 
 -------------------------------------------------------------------------------
  **** **** ******  **  PROGRAM ENDED AT                 2021-02-23 07:24:51.372
 ***** ** ***  *** **   PROGRAM RAN ON                                   gnode68
 **    ****   ******    PROGRAM RAN BY                               mayank.modi
 ***** **    ** ** **   PROGRAM PROCESS ID                                 31405
  **** **  *******  **  PROGRAM STOPPED IN /home/mayank.modi/ab-initio-thermodyn
                                           amics-of-water/mayank/cp2k_energy_cal
                                           culations
