 DBCSR| CPU Multiplication driver                                           XSMM
 DBCSR| Multrec recursion limit                                              512
 DBCSR| Multiplication stack size                                           1000
 DBCSR| Maximum elements for images                                    UNLIMITED
 DBCSR| Multiplicative factor virtual images                                   1
 DBCSR| Use multiplication densification                                       T
 DBCSR| Multiplication size stacks                                             3


  **** **** ******  **  PROGRAM STARTED AT               2021-02-20 20:23:41.404
 ***** ** ***  *** **   PROGRAM STARTED ON                               gnode68
 **    ****   ******    PROGRAM STARTED BY                           mayank.modi
 ***** **    ** ** **   PROGRAM PROCESS ID                                 36783
  **** **  *******  **  PROGRAM STARTED IN /home/mayank.modi/ab-initio-thermodyn
                                           amics-of-water/mayank/cp2k_energy_cal
                                           culations

 CP2K| version string:                                          CP2K version 7.1
 CP2K| source code revision number:                                  git:e635599
 CP2K| cp2kflags: omp libint fftw3 libxc xsmm spglib                            
 CP2K| is freely available from                            https://www.cp2k.org/
 CP2K| Program compiled at                          Mon Dec 23 19:23:12 CET 2019
 CP2K| Program compiled on                                                pc9404
 CP2K| Program compiled for                                Linux-x86-64-gfortran
 CP2K| Data directory path                                        /opt/cp2k/data
 CP2K| Input file name                  input_training_correct_cell/input1076.in

 GLOBAL| Force Environment number                                              1
 GLOBAL| Basis set file name                                           BASIS_SET
 GLOBAL| Potential file name                                      GTH_POTENTIALS
 GLOBAL| MM Potential file name                                     MM_POTENTIAL
 GLOBAL| Coordinate file name                                      __STD_INPUT__
 GLOBAL| Method name                                                        CP2K
 GLOBAL| Project name                                                   H2O_bulk
 GLOBAL| Preferred FFT library                                             FFTW3
 GLOBAL| Preferred diagonalization lib.                                       SL
 GLOBAL| Run type                                                   ENERGY_FORCE
 GLOBAL| All-to-all communication in single precision                          F
 GLOBAL| FFTs using library dependent lengths                                  F
 GLOBAL| Global print level                                                  LOW
 GLOBAL| MPI I/O enabled                                                       T
 GLOBAL| Total number of message passing processes                             1
 GLOBAL| Number of threads for this process                                   36
 GLOBAL| This output is from process                                           0
 GLOBAL| CPU model name                Intel(R) Xeon(R) CPU E5-2640 v4 @ 2.40GHz
 GLOBAL| CPUID                                                              1002
 GLOBAL| Compiled for CPUID                                                    0

 MEMORY| system memory details [Kb]
 MEMORY|                        rank 0           min           max       average
 MEMORY| MemTotal            131893512     131893512     131893512     131893512
 MEMORY| MemFree             119723876     119723876     119723876     119723876
 MEMORY| Buffers               1024004       1024004       1024004       1024004
 MEMORY| Cached                9694844       9694844       9694844       9694844
 MEMORY| Slab                  1009628       1009628       1009628       1009628
 MEMORY| SReclaimable           620672        620672        620672        620672
 MEMORY| MemLikelyFree       131063396     131063396     131063396     131063396


 GENERATE|  Preliminary Number of Bonds generated:                             0
 GENERATE|  Achieved consistency in connectivity generation.

 *******************************************************************************
 *******************************************************************************
 **                                                                           **
 **     #####                         ##              ##                      **
 **    ##   ##            ##          ##              ##                      **
 **   ##     ##                       ##            ######                    **
 **   ##     ##  ##   ##  ##   #####  ##  ##   ####   ##    #####    #####    **
 **   ##     ##  ##   ##  ##  ##      ## ##   ##      ##   ##   ##  ##   ##   **
 **   ##  ## ##  ##   ##  ##  ##      ####     ###    ##   ######   ######    **
 **    ##  ###   ##   ##  ##  ##      ## ##      ##   ##   ##       ##        **
 **     #######   #####   ##   #####  ##  ##  ####    ##    #####   ##        **
 **           ##                                                    ##        **
 **                                                                           **
 **                                                ... make the atoms dance   **
 **                                                                           **
 **            Copyright (C) by CP2K developers group (2000 - 2019)           **
 **                                                                           **
 *******************************************************************************


 TOTAL NUMBERS AND MAXIMUM NUMBERS

  Total number of            - Atomic kinds:                                   2
                             - Atoms:                                        192
                             - Shell sets:                                   384
                             - Shells:                                       704
                             - Primitive Cartesian functions:                960
                             - Cartesian basis functions:                   1536
                             - Spherical basis functions:                   1472

  Maximum angular momentum of- Orbital basis functions:                        2
                             - Local part of the GTH pseudopotential:          2
                             - Non-local part of the GTH pseudopotential:      0


 SCF PARAMETERS         Density guess:                                    ATOMIC
                        --------------------------------------------------------
                        max_scf:                                             300
                        max_scf_history:                                       0
                        max_diis:                                              4
                        --------------------------------------------------------
                        eps_scf:                                        1.00E-07
                        eps_scf_history:                                0.00E+00
                        eps_diis:                                       1.00E-01
                        eps_eigval:                                     1.00E-05
                        --------------------------------------------------------
                        level_shift [a.u.]:                                 0.00
                        --------------------------------------------------------
                        Mixing method:                            BROYDEN_MIXING
                                                charge density mixing in g-space
                        --------------------------------------------------------
                        No outer SCF

 Number of electrons:                                                        512
 Number of occupied orbitals:                                                256
 Number of molecular orbitals:                                               256

 Number of orbital functions:                                               1472
 Number of independent orbital functions:                                   1472

 Extrapolation method: initial_guess


 SCF WAVEFUNCTION OPTIMIZATION

  Step     Update method      Time    Convergence         Total energy    Change
  ------------------------------------------------------------------------------
     1 NoMix/Diag. 0.40E+00    7.3     0.61866287     -1064.0288890866 -1.06E+03
     2 Broy./Diag. 0.40E+00    7.9     1.85234329      -994.6118721123  6.94E+01
     3 Broy./Diag. 0.40E+00    8.4     1.89084982     -1269.6766584748 -2.75E+02
     4 Broy./Diag. 0.40E+00    8.7     1.74276891     -1123.6527019177  1.46E+02
     5 Broy./Diag. 0.40E+00    9.7     1.31006768     -1092.1462264365  3.15E+01
     6 Broy./Diag. 0.40E+00    9.3     1.69176335     -1097.1576269401 -5.01E+00
     7 Broy./Diag. 0.40E+00    9.1     1.75709407     -1099.4955305662 -2.34E+00
     8 Broy./Diag. 0.40E+00    9.0     1.73164582     -1087.0448069004  1.25E+01
     9 Broy./Diag. 0.40E+00    8.8     1.67902436     -1075.3180722441  1.17E+01
    10 Broy./Diag. 0.40E+00    9.2     1.73484776     -1072.9844181810  2.33E+00
    11 Broy./Diag. 0.40E+00    8.8     0.36742126     -1070.9717516745  2.01E+00
    12 Broy./Diag. 0.40E+00    9.5     0.11479949     -1072.0249813379 -1.05E+00
    13 Broy./Diag. 0.40E+00    9.3     0.16589289     -1071.6162060911  4.09E-01
    14 Broy./Diag. 0.40E+00    9.1     0.29516247     -1076.4717147381 -4.86E+00
    15 Broy./Diag. 0.40E+00    9.8     0.18276676     -1074.4598999056  2.01E+00
    16 Broy./Diag. 0.40E+00    9.3     0.14161516     -1074.6023782116 -1.42E-01
    17 Broy./Diag. 0.40E+00    9.5     1.44664666     -1077.6326379351 -3.03E+00
    18 Broy./Diag. 0.40E+00    9.5     1.45442558     -1077.8842051303 -2.52E-01
    19 Broy./Diag. 0.40E+00    9.6     0.19523516     -1075.8783176648  2.01E+00
    20 Broy./Diag. 0.40E+00    9.6     0.09595860     -1075.1004097660  7.78E-01
    21 Broy./Diag. 0.40E+00    9.4     0.03666048     -1076.0408538927 -9.40E-01
    22 Broy./Diag. 0.40E+00    9.2     0.04217695     -1075.8051622156  2.36E-01
    23 Broy./Diag. 0.40E+00    9.2     0.03114799     -1075.8311666746 -2.60E-02
    24 Broy./Diag. 0.40E+00    9.5     0.02146431     -1075.9990573006 -1.68E-01
    25 Broy./Diag. 0.40E+00    9.6     0.01218566     -1075.9204938636  7.86E-02
    26 Broy./Diag. 0.40E+00    9.2     0.00991092     -1075.8337266463  8.68E-02
    27 Broy./Diag. 0.40E+00    9.2     0.04962911     -1075.9510552747 -1.17E-01
    28 Broy./Diag. 0.40E+00    9.6     0.03512282     -1076.0286858146 -7.76E-02
    29 Broy./Diag. 0.40E+00    9.4     0.00690040     -1075.9433755965  8.53E-02
    30 Broy./Diag. 0.40E+00    9.5     0.00595052     -1075.9222295753  2.11E-02
    31 Broy./Diag. 0.40E+00    9.3     0.00449558     -1075.9494321701 -2.72E-02
    32 Broy./Diag. 0.40E+00    9.4     0.00425535     -1075.9175982521  3.18E-02
    33 Broy./Diag. 0.40E+00    9.3     0.00305477     -1075.8999169488  1.77E-02
    34 Broy./Diag. 0.40E+00    9.4     0.00270752     -1075.9262204405 -2.63E-02
    35 Broy./Diag. 0.40E+00    9.2     0.00489214     -1075.9094645585  1.68E-02
    36 Broy./Diag. 0.40E+00    9.4     0.00363620     -1075.9212573230 -1.18E-02
    37 Broy./Diag. 0.40E+00    9.2     1.11310790     -1075.9026931147  1.86E-02
    38 Broy./Diag. 0.40E+00    9.5     1.12759797     -1077.3628264126 -1.46E+00
    39 Broy./Diag. 0.40E+00    9.3     0.04120626     -1075.8420436504  1.52E+00
    40 Broy./Diag. 0.40E+00    9.0     0.02627062     -1076.0700922151 -2.28E-01
    41 Broy./Diag. 0.40E+00    8.7     0.00674331     -1075.9040794088  1.66E-01
    42 Broy./Diag. 0.40E+00    8.9     0.00834239     -1075.9016902443  2.39E-03
    43 Broy./Diag. 0.40E+00    9.1     0.00388027     -1075.8991048957  2.59E-03
    44 Broy./Diag. 0.40E+00    9.1     0.00089089     -1075.9123165689 -1.32E-02
    45 Broy./Diag. 0.40E+00    8.8     0.00175332     -1075.9055398366  6.78E-03
    46 Broy./Diag. 0.40E+00    8.9     0.00130053     -1075.9035760692  1.96E-03
    47 Broy./Diag. 0.40E+00    9.3     0.00990301     -1075.9126785858 -9.10E-03
    48 Broy./Diag. 0.40E+00    9.2     0.00484369     -1075.9310055380 -1.83E-02
    49 Broy./Diag. 0.40E+00    9.4     0.00333499     -1075.9392440995 -8.24E-03
    50 Broy./Diag. 0.40E+00    9.4     0.00170252     -1075.9060583831  3.32E-02
    51 Broy./Diag. 0.40E+00    9.6     0.00107753     -1075.9194334747 -1.34E-02
    52 Broy./Diag. 0.40E+00    9.7     0.00080523     -1075.9244247086 -4.99E-03
    53 Broy./Diag. 0.40E+00    9.3     0.00060361     -1075.9148877313  9.54E-03
    54 Broy./Diag. 0.40E+00    9.4     0.00105366     -1075.9188644267 -3.98E-03
    55 Broy./Diag. 0.40E+00    9.6     0.00094073     -1075.9143417145  4.52E-03
    56 Broy./Diag. 0.40E+00    9.8     0.00088938     -1075.9188417439 -4.50E-03
    57 Broy./Diag. 0.40E+00    9.4     1.11330355     -1075.9124888905  6.35E-03
    58 Broy./Diag. 0.40E+00    9.5     1.13681943     -1077.3917347088 -1.48E+00
    59 Broy./Diag. 0.40E+00    9.6     0.05354845     -1075.9965384390  1.40E+00
    60 Broy./Diag. 0.40E+00    9.5     0.03474554     -1075.7752233680  2.21E-01
    61 Broy./Diag. 0.40E+00    9.5     0.01316743     -1075.9292094814 -1.54E-01
    62 Broy./Diag. 0.40E+00    9.3     0.00899361     -1075.9042880165  2.49E-02
    63 Broy./Diag. 0.40E+00    9.0     0.00552967     -1075.8401276033  6.42E-02
    64 Broy./Diag. 0.40E+00    9.5     0.00445251     -1075.8988037384 -5.87E-02
    65 Broy./Diag. 0.40E+00    9.4     0.00380024     -1075.8952388493  3.56E-03
    66 Broy./Diag. 0.40E+00    9.6     0.00350215     -1075.9049240567 -9.69E-03
    67 Broy./Diag. 0.40E+00    9.7     0.02059209     -1075.8893840182  1.55E-02
    68 Broy./Diag. 0.40E+00    9.3     0.00948384     -1075.9364377853 -4.71E-02
    69 Broy./Diag. 0.40E+00    9.5     0.01339272     -1075.9418584635 -5.42E-03
    70 Broy./Diag. 0.40E+00    9.6     0.00985635     -1075.9396704318  2.19E-03
    71 Broy./Diag. 0.40E+00    9.7     0.00283657     -1075.9219539245  1.77E-02
    72 Broy./Diag. 0.40E+00    9.5     0.00265555     -1075.9095941987  1.24E-02
    73 Broy./Diag. 0.40E+00    9.7     0.00255499     -1075.9139971064 -4.40E-03
    74 Broy./Diag. 0.40E+00    9.8     0.00242876     -1075.9281701925 -1.42E-02
    75 Broy./Diag. 0.40E+00    9.3     0.00332308     -1075.9185536273  9.62E-03
    76 Broy./Diag. 0.40E+00    9.5     0.00277940     -1075.9209764309 -2.42E-03
    77 Broy./Diag. 0.40E+00    9.4     0.00160453     -1075.9142913226  6.69E-03
    78 Broy./Diag. 0.40E+00    9.7     0.00185911     -1075.9205466947 -6.26E-03
    79 Broy./Diag. 0.40E+00    9.4     0.00151334     -1075.9155197397  5.03E-03
    80 Broy./Diag. 0.40E+00    9.5     1.11248655     -1075.9160083733 -4.89E-04
    81 Broy./Diag. 0.40E+00    9.6     1.12574459     -1077.3764434645 -1.46E+00
    82 Broy./Diag. 0.40E+00    9.6     0.03941185     -1075.8728685920  1.50E+00
    83 Broy./Diag. 0.40E+00    9.3     0.03420941     -1075.8866674789 -1.38E-02
    84 Broy./Diag. 0.40E+00    9.3     0.01136140     -1075.9466878869 -6.00E-02
    85 Broy./Diag. 0.40E+00    8.9     0.00625979     -1075.8834105099  6.33E-02
    86 Broy./Diag. 0.40E+00    9.0     0.00418871     -1075.8942455071 -1.08E-02
    87 Broy./Diag. 0.40E+00    8.8     0.00202512     -1075.9088278156 -1.46E-02
    88 Broy./Diag. 0.40E+00    9.4     0.00084372     -1075.9049671877  3.86E-03
    89 Broy./Diag. 0.40E+00    9.4     0.00061531     -1075.9035126643  1.45E-03
    90 Broy./Diag. 0.40E+00    9.4     0.01430811     -1075.9094471554 -5.93E-03
    91 Broy./Diag. 0.40E+00    9.4     0.00882420     -1075.9480394451 -3.86E-02
    92 Broy./Diag. 0.40E+00    9.5     0.00587892     -1075.9140121038  3.40E-02
    93 Broy./Diag. 0.40E+00    9.3     0.00462772     -1075.9225683036 -8.56E-03
    94 Broy./Diag. 0.40E+00    9.0     0.00325715     -1075.9209144812  1.65E-03
    95 Broy./Diag. 0.40E+00    8.7     0.00344352     -1075.9034094177  1.75E-02
    96 Broy./Diag. 0.40E+00    9.0     0.00158114     -1075.9212400647 -1.78E-02
    97 Broy./Diag. 0.40E+00    9.3     0.00191952     -1075.9136888249  7.55E-03
    98 Broy./Diag. 0.40E+00    9.6     0.00137406     -1075.9183338651 -4.65E-03
    99 Broy./Diag. 0.40E+00    9.4     0.00086891     -1075.9168355508  1.50E-03
   100 Broy./Diag. 0.40E+00    9.3     0.00169111     -1075.9177480751 -9.13E-04
   101 Broy./Diag. 0.40E+00    9.7     1.11216499     -1075.9159307594  1.82E-03
   102 Broy./Diag. 0.40E+00    9.4     1.12510547     -1077.3755555385 -1.46E+00
   103 Broy./Diag. 0.40E+00    9.3     0.02375518     -1075.8631741432  1.51E+00
   104 Broy./Diag. 0.40E+00    9.3     0.01749284     -1076.0182052752 -1.55E-01
   105 Broy./Diag. 0.40E+00    9.7     0.00880176     -1075.8970792103  1.21E-01
   106 Broy./Diag. 0.40E+00    9.4     0.00744564     -1075.9275734862 -3.05E-02
   107 Broy./Diag. 0.40E+00    9.2     0.00497478     -1075.8868280551  4.07E-02
   108 Broy./Diag. 0.40E+00    9.5     0.00276590     -1075.9117608989 -2.49E-02
   109 Broy./Diag. 0.40E+00    9.7     0.00135042     -1075.9058953063  5.87E-03
   110 Broy./Diag. 0.40E+00    9.6     0.00106782     -1075.9061206421 -2.25E-04
   111 Broy./Diag. 0.40E+00    9.5     0.00957728     -1075.9089885299 -2.87E-03
   112 Broy./Diag. 0.40E+00    9.4     0.00833717     -1075.9361014488 -2.71E-02
   113 Broy./Diag. 0.40E+00    9.6     0.00738760     -1075.9326087656  3.49E-03
   114 Broy./Diag. 0.40E+00    9.3     0.00521593     -1075.9041198403  2.85E-02
   115 Broy./Diag. 0.40E+00    9.4     0.00229266     -1075.9275802771 -2.35E-02
   116 Broy./Diag. 0.40E+00    9.7     0.00105480     -1075.9164497659  1.11E-02
   117 Broy./Diag. 0.40E+00    9.8     0.00067236     -1075.9177545261 -1.30E-03
   118 Broy./Diag. 0.40E+00    9.4     0.00037795     -1075.9172957531  4.59E-04
   119 Broy./Diag. 0.40E+00    9.5     0.00091081     -1075.9174759981 -1.80E-04
   120 Broy./Diag. 0.40E+00    9.4     0.00160114     -1075.9165062929  9.70E-04
   121 Broy./Diag. 0.40E+00    9.5     0.00059081     -1075.9140044337  2.50E-03
   122 Broy./Diag. 0.40E+00    9.3     0.00094966     -1075.9172493155 -3.24E-03
   123 Broy./Diag. 0.40E+00    9.0     0.00069466     -1075.9178449913 -5.96E-04
   124 Broy./Diag. 0.40E+00    8.7     0.04394123     -1075.9146645005  3.18E-03
   125 Broy./Diag. 0.40E+00    9.2     0.04477983     -1075.9746913636 -6.00E-02
   126 Broy./Diag. 0.40E+00    9.6     0.00382667     -1075.9132802669  6.14E-02
   127 Broy./Diag. 0.40E+00    9.4     0.00147547     -1075.9027104610  1.06E-02
   128 Broy./Diag. 0.40E+00    9.0     0.00080499     -1075.9117411392 -9.03E-03
   129 Broy./Diag. 0.40E+00    8.8     0.00049148     -1075.9141824780 -2.44E-03
   130 Broy./Diag. 0.40E+00    8.9     0.00026891     -1075.9098678969  4.31E-03
   131 Broy./Diag. 0.40E+00    8.9     0.00019421     -1075.9113859587 -1.52E-03
   132 Broy./Diag. 0.40E+00    8.9     0.00015020     -1075.9121449740 -7.59E-04
   133 Broy./Diag. 0.40E+00    8.8     0.00067983     -1075.9119689576  1.76E-04
   134 Broy./Diag. 0.40E+00    8.7     1.11489951     -1075.9121281223 -1.59E-04
   135 Broy./Diag. 0.40E+00    9.1     1.35885916     -1077.4060654357 -1.49E+00
   136 Broy./Diag. 0.40E+00    9.4     1.42598309     -1078.5943777816 -1.19E+00
   137 Broy./Diag. 0.40E+00    9.5     1.45761654     -1078.3083706155  2.86E-01
   138 Broy./Diag. 0.40E+00    9.3     0.95661385     -1076.8520049900  1.46E+00
   139 Broy./Diag. 0.40E+00    9.5     1.45402076     -1076.9052868206 -5.33E-02
   140 Broy./Diag. 0.40E+00    9.6     1.50247551     -1080.4559813491 -3.55E+00
   141 Broy./Diag. 0.40E+00    9.3     0.93149508     -1078.6944626223  1.76E+00
   142 Broy./Diag. 0.40E+00    9.1     1.42310500     -1076.9987192574  1.70E+00
   143 Broy./Diag. 0.40E+00    9.8     1.48473343     -1077.7581468560 -7.59E-01
   144 Broy./Diag. 0.40E+00    9.7     0.20023913     -1074.4777917214  3.28E+00
   145 Broy./Diag. 0.40E+00    9.5     0.20451158     -1076.9604347128 -2.48E+00
   146 Broy./Diag. 0.40E+00    9.5     0.10522849     -1075.5473628323  1.41E+00
   147 Broy./Diag. 0.40E+00    9.4     0.06311890     -1076.0268935063 -4.80E-01
   148 Broy./Diag. 0.40E+00    9.7     0.06057161     -1075.9992292399  2.77E-02
   149 Broy./Diag. 0.40E+00    9.6     0.09851647     -1076.0187396691 -1.95E-02
   150 Broy./Diag. 0.40E+00    9.3     0.08152028     -1075.7238362653  2.95E-01
   151 Broy./Diag. 0.40E+00    8.9     0.09103884     -1075.8608559248 -1.37E-01
   152 Broy./Diag. 0.40E+00    8.9     0.05834732     -1076.0110502242 -1.50E-01
   153 Broy./Diag. 0.40E+00    8.8     0.05076252     -1076.1226559498 -1.12E-01
   154 Broy./Diag. 0.40E+00    9.4     0.02457646     -1075.8231523155  3.00E-01
   155 Broy./Diag. 0.40E+00    9.6     0.02339399     -1075.9556799914 -1.33E-01
   156 Broy./Diag. 0.40E+00    9.7     0.02461295     -1075.9630134862 -7.33E-03
   157 Broy./Diag. 0.40E+00    9.5     0.01588778     -1075.9576910597  5.32E-03
   158 Broy./Diag. 0.40E+00    9.8     0.00647444     -1075.9004496021  5.72E-02
   159 Broy./Diag. 0.40E+00    9.8     0.00262585     -1075.9222440873 -2.18E-02
   160 Broy./Diag. 0.40E+00    9.6     0.00243643     -1075.9196462847  2.60E-03
   161 Broy./Diag. 0.40E+00    9.3     0.00206455     -1075.9155407284  4.11E-03
   162 Broy./Diag. 0.40E+00    8.9     0.00250627     -1075.9146290693  9.12E-04
   163 Broy./Diag. 0.40E+00    9.0     0.00196524     -1075.9175667525 -2.94E-03
   164 Broy./Diag. 0.40E+00    8.7     0.00205859     -1075.9111597176  6.41E-03
   165 Broy./Diag. 0.40E+00    9.2     0.00160579     -1075.9159292379 -4.77E-03
   166 Broy./Diag. 0.40E+00    9.7     0.00257758     -1075.9197669856 -3.84E-03
   167 Broy./Diag. 0.40E+00    9.5     0.00212254     -1075.9144355826  5.33E-03
   168 Broy./Diag. 0.40E+00    9.6     1.11339893     -1075.9150272153 -5.92E-04
   169 Broy./Diag. 0.40E+00    9.4     1.12652850     -1077.3809209908 -1.47E+00
   170 Broy./Diag. 0.40E+00    9.3     0.03032551     -1075.8656739984  1.52E+00
   171 Broy./Diag. 0.40E+00    9.3     0.01944210     -1076.0079105135 -1.42E-01
   172 Broy./Diag. 0.40E+00    9.4     0.00849374     -1075.8771998252  1.31E-01
   173 Broy./Diag. 0.40E+00    9.3     0.00533730     -1075.9319472910 -5.47E-02
   174 Broy./Diag. 0.40E+00    9.2     0.00193774     -1075.9111478992  2.08E-02
   175 Broy./Diag. 0.40E+00    9.8     0.00229317     -1075.9036649890  7.48E-03
   176 Broy./Diag. 0.40E+00    9.4     0.00131378     -1075.9090536116 -5.39E-03
   177 Broy./Diag. 0.40E+00    9.3     0.00048113     -1075.9060437268  3.01E-03
   178 Broy./Diag. 0.40E+00    9.3     0.01128021     -1075.9106419496 -4.60E-03
   179 Broy./Diag. 0.40E+00    9.5     0.00618816     -1075.9458163578 -3.52E-02
   180 Broy./Diag. 0.40E+00    9.3     0.00622983     -1075.9161775354  2.96E-02
   181 Broy./Diag. 0.40E+00    9.5     0.00425887     -1075.9159637712  2.14E-04
   182 Broy./Diag. 0.40E+00    9.3     0.00205010     -1075.9205930412 -4.63E-03
   183 Broy./Diag. 0.40E+00    9.2     0.00145722     -1075.9189113310  1.68E-03
   184 Broy./Diag. 0.40E+00    9.3     0.00147046     -1075.9117539278  7.16E-03
   185 Broy./Diag. 0.40E+00    9.1     0.00050599     -1075.9175511012 -5.80E-03
   186 Broy./Diag. 0.40E+00    9.3     0.00055742     -1075.9159365806  1.61E-03
   187 Broy./Diag. 0.40E+00    9.4     0.00060415     -1075.9174435348 -1.51E-03
   188 Broy./Diag. 0.40E+00    9.5     1.10881898     -1075.9157635580  1.68E-03
   189 Broy./Diag. 0.40E+00    9.3     1.12106005     -1077.3773862986 -1.46E+00
   190 Broy./Diag. 0.40E+00    9.1     0.02206216     -1075.8976906804  1.48E+00
   191 Broy./Diag. 0.40E+00    9.3     0.02962551     -1075.9302570351 -3.26E-02
   192 Broy./Diag. 0.40E+00    9.3     0.01037474     -1075.9135367334  1.67E-02
   193 Broy./Diag. 0.40E+00    9.4     0.00597182     -1075.8943690811  1.92E-02
   194 Broy./Diag. 0.40E+00    9.5     0.00266140     -1075.9086698633 -1.43E-02
   195 Broy./Diag. 0.40E+00    9.5     0.00206324     -1075.8966732418  1.20E-02
   196 Broy./Diag. 0.40E+00    9.3     0.00118340     -1075.9045950779 -7.92E-03
   197 Broy./Diag. 0.40E+00    9.2     0.00047191     -1075.9054087661 -8.14E-04
   198 Broy./Diag. 0.40E+00    9.4     0.01510541     -1075.9057081502 -2.99E-04
   199 Broy./Diag. 0.40E+00    9.8     0.00792764     -1075.9547629129 -4.91E-02
   200 Broy./Diag. 0.40E+00    9.3     0.01069577     -1075.9212393324  3.35E-02
   201 Broy./Diag. 0.40E+00    9.1     0.00690841     -1075.9052345715  1.60E-02
   202 Broy./Diag. 0.40E+00    8.9     0.00292816     -1075.9432349623 -3.80E-02
   203 Broy./Diag. 0.40E+00    9.5     0.00182396     -1075.9227713721  2.05E-02
   204 Broy./Diag. 0.40E+00    9.3     0.00113973     -1075.9181544640  4.62E-03
   205 Broy./Diag. 0.40E+00    9.0     0.00136079     -1075.9181211036  3.34E-05
   206 Broy./Diag. 0.40E+00    8.9     1.11267423     -1075.9188914855 -7.70E-04
   207 Broy./Diag. 0.40E+00    8.7     1.12952765     -1077.3770751166 -1.46E+00
   208 Broy./Diag. 0.40E+00    9.2     0.86286567     -1075.8475984728  1.53E+00
   209 Broy./Diag. 0.40E+00    9.5     0.84891573     -1077.4178885672 -1.57E+00
   210 Broy./Diag. 0.40E+00    9.6     0.10711816     -1075.9177090786  1.50E+00
   211 Broy./Diag. 0.40E+00    9.4     0.07764333     -1075.7075646788  2.10E-01
   212 Broy./Diag. 0.40E+00    9.2     0.02420069     -1075.9373643309 -2.30E-01
   213 Broy./Diag. 0.40E+00    9.6     0.01611186     -1075.8036498504  1.34E-01
   214 Broy./Diag. 0.40E+00    9.3     0.00467724     -1075.8712462226 -6.76E-02
   215 Broy./Diag. 0.40E+00    9.5     0.00240488     -1075.8903385604 -1.91E-02
   216 Broy./Diag. 0.40E+00    9.3     0.03554713     -1075.8937491514 -3.41E-03
   217 Broy./Diag. 0.40E+00    9.5     0.01895742     -1076.0077847339 -1.14E-01
   218 Broy./Diag. 0.40E+00    9.5     0.02317758     -1075.8698245562  1.38E-01
   219 Broy./Diag. 0.40E+00    9.3     0.02070028     -1075.9338117407 -6.40E-02
   220 Broy./Diag. 0.40E+00    9.0     0.00915797     -1075.9524129689 -1.86E-02
   221 Broy./Diag. 0.40E+00    9.3     0.00491412     -1075.9355731191  1.68E-02
   222 Broy./Diag. 0.40E+00    9.3     0.00188815     -1075.9268165852  8.76E-03
   223 Broy./Diag. 0.40E+00    9.5     0.00419386     -1075.9003000206  2.65E-02
   224 Broy./Diag. 0.40E+00    9.3     0.00305979     -1075.9244719326 -2.42E-02
   225 Broy./Diag. 0.40E+00    9.1     0.03151258     -1075.9223477458  2.12E-03
   226 Broy./Diag. 0.40E+00    8.9     0.03179636     -1075.9548021347 -3.25E-02
   227 Broy./Diag. 0.40E+00    9.1     1.11175065     -1075.9127044542  4.21E-02
   228 Broy./Diag. 0.40E+00    9.3     1.12493362     -1077.3792000789 -1.47E+00
   229 Broy./Diag. 0.40E+00    9.5     0.86414280     -1075.8140019434  1.57E+00
   230 Broy./Diag. 0.40E+00    9.6     0.84209539     -1077.4639647469 -1.65E+00
   231 Broy./Diag. 0.40E+00    9.3     0.06603829     -1075.9917386065  1.47E+00
   232 Broy./Diag. 0.40E+00    9.0     0.04942417     -1075.8504425604  1.41E-01
   233 Broy./Diag. 0.40E+00    9.0     0.02720911     -1075.8068286448  4.36E-02
   234 Broy./Diag. 0.40E+00    8.8     0.01146680     -1075.9226873264 -1.16E-01
   235 Broy./Diag. 0.40E+00    8.8     0.01019320     -1075.9132007805  9.49E-03
   236 Broy./Diag. 0.40E+00    9.4     0.00199638     -1075.8959401965  1.73E-02
   237 Broy./Diag. 0.40E+00    9.3     0.00236950     -1075.9065259790 -1.06E-02
   238 Broy./Diag. 0.40E+00    9.1     0.00219162     -1075.9095957841 -3.07E-03
   239 Broy./Diag. 0.40E+00    9.5     0.01938896     -1075.9045201507  5.08E-03
   240 Broy./Diag. 0.40E+00    9.6     0.01192410     -1075.9330539345 -2.85E-02
   241 Broy./Diag. 0.40E+00    9.4     0.00823392     -1075.9470691581 -1.40E-02
   242 Broy./Diag. 0.40E+00    9.2     1.11474146     -1075.9038558390  4.32E-02
   243 Broy./Diag. 0.40E+00    9.5     1.12666075     -1077.3927914031 -1.49E+00
   244 Broy./Diag. 0.40E+00    9.6     0.01768889     -1075.9211248525  1.47E+00
   245 Broy./Diag. 0.40E+00    9.3     0.01602481     -1075.8411599869  8.00E-02
   246 Broy./Diag. 0.40E+00    8.9     0.00568309     -1075.8842976225 -4.31E-02
   247 Broy./Diag. 0.40E+00    9.1     0.00343755     -1075.9062172930 -2.19E-02
   248 Broy./Diag. 0.40E+00    9.5     0.00190050     -1075.9069911518 -7.74E-04
   249 Broy./Diag. 0.40E+00    9.5     0.00195236     -1075.8968148432  1.02E-02
   250 Broy./Diag. 0.40E+00    9.1     0.00176479     -1075.8982222903 -1.41E-03
   251 Broy./Diag. 0.40E+00    9.7     0.00169193     -1075.8978462576  3.76E-04
   252 Broy./Diag. 0.40E+00    9.4     0.02540058     -1075.9077144044 -9.87E-03
   253 Broy./Diag. 0.40E+00    9.4     0.01353498     -1075.9574476687 -4.97E-02
   254 Broy./Diag. 0.40E+00    9.4     0.00852084     -1075.8906317699  6.68E-02
   255 Broy./Diag. 0.40E+00    9.1     0.00506257     -1075.9459639040 -5.53E-02
   256 Broy./Diag. 0.40E+00    9.2     0.00257231     -1075.9211549811  2.48E-02
   257 Broy./Diag. 0.40E+00    9.5     0.00155219     -1075.9166362134  4.52E-03
   258 Broy./Diag. 0.40E+00    9.5     0.00077072     -1075.9190484059 -2.41E-03
   259 Broy./Diag. 0.40E+00    9.6     0.00100740     -1075.9208620905 -1.81E-03
   260 Broy./Diag. 0.40E+00    9.6     0.00062924     -1075.9165324191  4.33E-03
   261 Broy./Diag. 0.40E+00    9.3     0.00062103     -1075.9145559285  1.98E-03
   262 Broy./Diag. 0.40E+00    9.4     1.11277770     -1075.9180316643 -3.48E-03
   263 Broy./Diag. 0.40E+00    9.6     1.13259888     -1077.3728211757 -1.45E+00
   264 Broy./Diag. 0.40E+00    9.5     0.87335345     -1075.8132377430  1.56E+00
   265 Broy./Diag. 0.40E+00    9.4     0.86581658     -1077.5573010243 -1.74E+00
   266 Broy./Diag. 0.40E+00    9.0     0.03999485     -1075.9192507744  1.64E+00
   267 Broy./Diag. 0.40E+00    9.2     0.03097632     -1075.8563889179  6.29E-02
   268 Broy./Diag. 0.40E+00    9.0     0.01484710     -1075.8200178696  3.64E-02
   269 Broy./Diag. 0.40E+00    9.4     0.00728140     -1075.8855419099 -6.55E-02
   270 Broy./Diag. 0.40E+00    9.4     0.00405886     -1075.9007978935 -1.53E-02
   271 Broy./Diag. 0.40E+00    9.6     0.00362436     -1075.8929139834  7.88E-03
   272 Broy./Diag. 0.40E+00    9.4     0.02395052     -1075.8840032609  8.91E-03
   273 Broy./Diag. 0.40E+00    9.0     0.01073723     -1075.9570679751 -7.31E-02
   274 Broy./Diag. 0.40E+00    9.3     1.11408993     -1075.9643391982 -7.27E-03
   275 Broy./Diag. 0.40E+00    9.1     1.14506710     -1077.3967485595 -1.43E+00
   276 Broy./Diag. 0.40E+00    9.5     0.04539206     -1075.8500908137  1.55E+00
   277 Broy./Diag. 0.40E+00    9.6     0.03471535     -1075.9626296947 -1.13E-01
   278 Broy./Diag. 0.40E+00    9.4     0.01221831     -1075.8429504525  1.20E-01
   279 Broy./Diag. 0.40E+00    9.3     0.00600565     -1075.8702408553 -2.73E-02
   280 Broy./Diag. 0.40E+00    9.4     0.00282449     -1075.8705675618 -3.27E-04
   281 Broy./Diag. 0.40E+00    9.5     0.00374826     -1075.8682558382  2.31E-03
   282 Broy./Diag. 0.40E+00    9.6     0.00239716     -1075.8802597891 -1.20E-02
   283 Broy./Diag. 0.40E+00    9.4     0.00205848     -1075.8666910316  1.36E-02
   284 Broy./Diag. 0.40E+00    8.9     0.02941349     -1075.8799625536 -1.33E-02
   285 Broy./Diag. 0.40E+00    9.1     0.01256418     -1075.9442903966 -6.43E-02
   286 Broy./Diag. 0.40E+00    8.8     0.01333383     -1075.9244723486  1.98E-02
   287 Broy./Diag. 0.40E+00    9.1     0.00790142     -1075.8932007723  3.13E-02
   288 Broy./Diag. 0.40E+00    9.3     0.00243049     -1075.9227931660 -2.96E-02
   289 Broy./Diag. 0.40E+00    9.5     0.00390971     -1075.9224370477  3.56E-04
   290 Broy./Diag. 0.40E+00    9.6     0.00364395     -1075.9111356098  1.13E-02
   291 Broy./Diag. 0.40E+00    9.5     0.00140934     -1075.9148749795 -3.74E-03
   292 Broy./Diag. 0.40E+00    9.3     0.00218085     -1075.9134109756  1.46E-03
   293 Broy./Diag. 0.40E+00    9.4     0.00201461     -1075.9276744173 -1.43E-02
   294 Broy./Diag. 0.40E+00    9.4     0.00127106     -1075.9114470191  1.62E-02
   295 Broy./Diag. 0.40E+00    9.4     0.00066506     -1075.9097591286  1.69E-03
   296 Broy./Diag. 0.40E+00    9.7     1.11190909     -1075.9183216168 -8.56E-03
   297 Broy./Diag. 0.40E+00    9.5     1.12653859     -1077.3767195992 -1.46E+00
   298 Broy./Diag. 0.40E+00    9.3     0.04029549     -1075.8911766309  1.49E+00
   299 Broy./Diag. 0.40E+00    9.2     0.02582903     -1075.8982134582 -7.04E-03
   300 Broy./Diag. 0.40E+00    9.6     0.00509532     -1075.8889890824  9.22E-03

  Leaving inner SCF loop after reaching   300 steps.


  Electronic density on regular grids:       -511.9997165948        0.0002834052
  Core density on regular grids:              511.9999822840       -0.0000177160
  Total charge density on r-space grids:        0.0002656892
  Total charge density g-space grids:           0.0002656892

  Overlap energy of the core charge distribution:               0.00000000000000
  Self energy of the core charge distribution:              -2838.21791979120962
  Core Hamiltonian energy:                                    759.57588351989182
  Hartree energy:                                            1241.19825318619314
  Exchange-correlation energy:                               -238.44520599727329

  Total energy:                                             -1075.88898908239798

 *** WARNING in qs_scf.F:542 :: SCF run NOT converged ***


 ENERGY| Total FORCE_EVAL ( QS ) energy (a.u.):            -1075.916397359371558


 ATOMIC FORCES in [a.u.]

 # Atom   Kind   Element          X              Y              Z
      1      1      O          -0.09447212    -0.10502418    -0.04231694
      2      2      H           0.10816916    -0.00493099     0.04476549
      3      2      H          -0.02131443     0.08635549    -0.04160042
      4      1      O           0.05953598    -0.01009265    -0.02593056
      5      2      H          -0.07384280    -0.00634553    -0.03748710
      6      2      H          -0.01495587     0.03906744     0.05342017
      7      1      O           0.03478673    -0.01287506     0.07436551
      8      2      H          -0.04739296    -0.08213611    -0.00916996
      9      2      H          -0.00378512     0.06456557    -0.02636699
     10      1      O           0.03487940     0.05031920    -0.01044331
     11      2      H          -0.02554840     0.00355526     0.05920879
     12      2      H           0.00529322    -0.06882084    -0.04073662
     13      1      O           0.10938741     0.03742161     0.01305659
     14      2      H           0.01209265    -0.06440533    -0.05226655
     15      2      H          -0.08367683    -0.01717876     0.07629280
     16      1      O          -0.02267207    -0.01835739    -0.09374275
     17      2      H          -0.00238060     0.04792989    -0.00957721
     18      2      H          -0.04212870    -0.02267813     0.07392306
     19      1      O           0.03157778    -0.07083083    -0.08174707
     20      2      H          -0.06648021     0.02854397     0.01050130
     21      2      H           0.03512311     0.00825403     0.06498732
     22      1      O          -0.06287593    -0.00975581    -0.06874104
     23      2      H           0.00344647     0.06473402    -0.01173932
     24      2      H           0.03844581    -0.00718508     0.03328601
     25      1      O           0.02912471    -0.03425281    -0.08616974
     26      2      H          -0.06333250    -0.02743632     0.01644912
     27      2      H          -0.01239798     0.04208655     0.07344004
     28      1      O          -0.00305279     0.06599201     0.01873804
     29      2      H          -0.05113365    -0.02264340     0.04165338
     30      2      H           0.03899727    -0.00375510    -0.06941626
     31      1      O          -0.02394599     0.05404935     0.02196246
     32      2      H           0.03771124    -0.06171093    -0.04975468
     33      2      H          -0.01387794     0.00829854     0.08546832
     34      1      O          -0.05999795     0.07959566    -0.05051992
     35      2      H           0.05398349    -0.05933143     0.01326017
     36      2      H          -0.04618628    -0.02060908     0.07293133
     37      1      O          -0.05079445    -0.04195563    -0.00820719
     38      2      H          -0.01049920     0.03887214     0.04608619
     39      2      H           0.04677636    -0.04498548    -0.00569895
     40      1      O           0.03458100    -0.01190824    -0.01326285
     41      2      H          -0.01860260     0.06828558     0.05778803
     42      2      H           0.00716946     0.01770245     0.01335565
     43      1      O           0.05104158    -0.07385527    -0.01687538
     44      2      H           0.01184708     0.07108022    -0.04733367
     45      2      H          -0.07134663    -0.03729056     0.05199937
     46      1      O          -0.05170308     0.04345461     0.00947145
     47      2      H          -0.01930353    -0.04047412     0.07370094
     48      2      H           0.07142837    -0.02175256    -0.05479345
     49      1      O           0.00888092    -0.01329214    -0.05125262
     50      2      H           0.02724677     0.03803200     0.07985596
     51      2      H          -0.04118767    -0.04104122     0.02409831
     52      1      O          -0.07152724    -0.08753527     0.03203985
     53      2      H           0.03234854     0.02142316    -0.07476212
     54      2      H           0.00474143     0.02031942     0.05673729
     55      1      O          -0.00568181     0.00131252    -0.07055994
     56      2      H          -0.02775942    -0.06291553     0.04252574
     57      2      H           0.03939895     0.00454981     0.02797073
     58      1      O          -0.09070024    -0.01711007    -0.04074968
     59      2      H           0.01849055     0.02435660    -0.03970999
     60      2      H           0.01919650     0.02563487     0.06040707
     61      1      O          -0.06381622    -0.04104913     0.05409007
     62      2      H          -0.01882803     0.06056050    -0.02757364
     63      2      H           0.08712440    -0.00883892     0.00263716
     64      1      O          -0.01478270    -0.00630394    -0.08663524
     65      2      H           0.05400835    -0.02491382     0.02159135
     66      2      H          -0.07937252    -0.00232852     0.04130961
     67      1      O           0.02706101     0.00664938    -0.03530281
     68      2      H          -0.02274035     0.08374765     0.05235629
     69      2      H           0.00709964    -0.04744143     0.04526191
     70      1      O          -0.00035026     0.05258255     0.03770685
     71      2      H           0.01567231    -0.04797233    -0.04405621
     72      2      H          -0.03078292     0.02714264    -0.03776850
     73      1      O           0.06147500     0.08710795    -0.06302658
     74      2      H           0.01358255    -0.05292581     0.05015889
     75      2      H          -0.07806743    -0.06314433     0.00832527
     76      1      O           0.00378852    -0.06792036    -0.08072549
     77      2      H           0.04485747     0.05598823     0.08062437
     78      2      H          -0.05439918    -0.03597429    -0.02761487
     79      1      O          -0.03366285    -0.00382992     0.05409211
     80      2      H           0.07132722     0.00958446     0.01627610
     81      2      H          -0.03929323     0.06288105    -0.06574988
     82      1      O          -0.06518622    -0.04777922     0.01549455
     83      2      H           0.01095762     0.08941296    -0.01740105
     84      2      H           0.05570566    -0.02469163    -0.00247786
     85      1      O           0.03670411     0.00550609    -0.04361357
     86      2      H          -0.05253317    -0.05539623     0.03640901
     87      2      H           0.02503442     0.03598221     0.04629265
     88      1      O           0.08755907    -0.10939243    -0.03861086
     89      2      H           0.04253597     0.06619456     0.01384599
     90      2      H          -0.10000769     0.03113685     0.03312691
     91      1      O          -0.00882685     0.07958667    -0.03473948
     92      2      H          -0.01028592    -0.03645318     0.09594493
     93      2      H           0.03841371    -0.05711795    -0.01878953
     94      1      O           0.00969246     0.02932510     0.04665484
     95      2      H           0.00794351     0.04992208    -0.04285865
     96      2      H           0.00704743    -0.06092733    -0.01370668
     97      1      O           0.07717690    -0.07900200    -0.06370671
     98      2      H          -0.04428171     0.01920174     0.05929028
     99      2      H           0.01280545     0.08270016    -0.01942779
    100      1      O          -0.00381519    -0.00185217     0.14121526
    101      2      H           0.02439588    -0.05433443    -0.06571821
    102      2      H          -0.04587230     0.02540471    -0.05005305
    103      1      O          -0.02474001     0.00562240     0.04504068
    104      2      H          -0.01227413     0.01462050     0.03111480
    105      2      H           0.07050944    -0.02314751    -0.00035382
    106      1      O           0.00825340     0.09851545    -0.00350512
    107      2      H          -0.06161877    -0.01737615    -0.00695433
    108      2      H           0.00303194    -0.04720927     0.05441510
    109      1      O          -0.03295244    -0.09294266    -0.08570622
    110      2      H          -0.02475965     0.01503378     0.03268540
    111      2      H           0.07198404     0.03450585     0.01916260
    112      1      O           0.07558163    -0.07565678     0.06709813
    113      2      H          -0.01230851     0.05994796    -0.04394020
    114      2      H          -0.07108844     0.00398761     0.03960955
    115      1      O          -0.04709596    -0.05476117    -0.05553026
    116      2      H          -0.04122458     0.05734548    -0.03367447
    117      2      H           0.08216984     0.03084783     0.03785979
    118      1      O           0.06617870    -0.04315413    -0.05118270
    119      2      H          -0.04140859     0.03266971    -0.01545929
    120      2      H           0.02397204     0.01787677     0.06569686
    121      1      O          -0.08323595    -0.03013373    -0.05581091
    122      2      H           0.06152911     0.02151430    -0.03380823
    123      2      H           0.00898516     0.05386233     0.07495705
    124      1      O           0.07858930    -0.02667387    -0.03234941
    125      2      H          -0.01316686     0.00633905     0.05126548
    126      2      H          -0.02631113     0.03524915    -0.03054086
    127      1      O          -0.06041469    -0.08137607    -0.09759873
    128      2      H          -0.03236783     0.05248399     0.02843724
    129      2      H           0.09060309     0.00857800     0.03199671
    130      1      O           0.06027696    -0.08085549     0.08502773
    131      2      H          -0.05797752    -0.01194758     0.00845361
    132      2      H           0.05074985     0.05294062    -0.01638234
    133      1      O          -0.04457306     0.04321619     0.02474554
    134      2      H           0.06451099    -0.04587331     0.03508221
    135      2      H           0.04268928     0.03945484    -0.06134570
    136      1      O          -0.02567272    -0.06947910     0.05563333
    137      2      H          -0.02018787     0.03788662     0.01734931
    138      2      H           0.02758958    -0.01460543    -0.05441770
    139      1      O           0.03737192    -0.09261751     0.01897936
    140      2      H           0.03611836     0.02150402    -0.07765875
    141      2      H          -0.07169310     0.02566529    -0.01434886
    142      1      O          -0.04889295     0.07226383    -0.09312549
    143      2      H           0.01306620    -0.08320624    -0.00701906
    144      2      H          -0.04339735     0.05264254     0.05227438
    145      1      O          -0.02655972    -0.00722039     0.04227644
    146      2      H           0.01317829     0.01499140    -0.07378567
    147      2      H           0.04626218     0.04609491     0.02841995
    148      1      O          -0.09389456    -0.05265532    -0.03163654
    149      2      H           0.06178308    -0.05664716    -0.01193537
    150      2      H           0.04841513     0.06028271     0.00945506
    151      1      O          -0.05309053    -0.01556393     0.00100043
    152      2      H           0.06360866    -0.04575521     0.04670090
    153      2      H           0.03006313     0.06025616    -0.00272559
    154      1      O          -0.02818697    -0.08886165    -0.09294375
    155      2      H           0.02614842    -0.01888945     0.07970796
    156      2      H           0.00939561     0.06819966    -0.01614312
    157      1      O           0.02962530     0.00894579    -0.11195540
    158      2      H          -0.07400935     0.01102291     0.02983855
    159      2      H           0.02988323     0.02797894     0.05278157
    160      1      O          -0.03542421     0.06195173     0.01176067
    161      2      H           0.00110755    -0.07465575    -0.01708173
    162      2      H           0.07158642     0.03787723    -0.02905915
    163      1      O           0.00947989    -0.05366572    -0.10079046
    164      2      H           0.04896545     0.05841151     0.05664069
    165      2      H          -0.00120187    -0.03242194     0.08147632
    166      1      O           0.06055970    -0.02174720     0.10877308
    167      2      H          -0.01601676     0.06020813    -0.00629632
    168      2      H          -0.04995333    -0.04068503    -0.06121064
    169      1      O           0.09095301    -0.05587228     0.09149758
    170      2      H           0.03589613     0.08357480    -0.04048197
    171      2      H          -0.06468469    -0.02889152     0.00850371
    172      1      O          -0.08651296    -0.04431244    -0.06165782
    173      2      H           0.06120727     0.00350339    -0.02759771
    174      2      H           0.00739962    -0.01830082     0.05905376
    175      1      O           0.03691140    -0.01391995    -0.03885043
    176      2      H          -0.04058450     0.05415471     0.01466402
    177      2      H           0.01469955    -0.02671670     0.04220462
    178      1      O           0.03527723    -0.04137210     0.02257822
    179      2      H          -0.05375978    -0.06795839     0.00290677
    180      2      H          -0.00965126     0.06867400     0.02237434
    181      1      O          -0.12107616     0.02528345    -0.05249442
    182      2      H           0.08260729    -0.04999796    -0.01021730
    183      2      H           0.00943582     0.05619902     0.01069257
    184      1      O          -0.02395231    -0.09323855     0.04088051
    185      2      H           0.04890465     0.05065878    -0.03220050
    186      2      H          -0.05841631     0.04296454     0.03782761
    187      1      O           0.01636960    -0.06501022    -0.03959373
    188      2      H          -0.01761914    -0.01816004    -0.02459025
    189      2      H          -0.03237486     0.07028195     0.02981816
    190      1      O           0.06266106    -0.01266219     0.05684080
    191      2      H          -0.07394599     0.01668993     0.02713083
    192      2      H           0.03018369     0.01086967    -0.07735874
 SUM OF ATOMIC FORCES          -0.03573940    -0.18020021     0.32733281     0.37536141

 -------------------------------------------------------------------------------
 -                                                                             -
 -                                DBCSR STATISTICS                             -
 -                                                                             -
 -------------------------------------------------------------------------------
 COUNTER                                    TOTAL       BLAS       SMM       ACC
 flops     5 x     5 x   256           5470976000       0.0%    100.0%      0.0%
 flops     5 x    13 x   256           6501214720       0.0%    100.0%      0.0%
 flops    13 x     5 x   256           6881871360       0.0%    100.0%      0.0%
 flops    13 x    13 x   256           8568781312       0.0%    100.0%      0.0%
 flops inhomo. stacks                           0       0.0%      0.0%      0.0%
 flops total                        27.422843E+09       0.0%    100.0%      0.0%
 flops max/rank                     27.422843E+09       0.0%    100.0%      0.0%
 matmuls inhomo. stacks                         0       0.0%      0.0%      0.0%
 matmuls total                             928585       0.0%    100.0%      0.0%
 number of processed stacks                 42140       0.0%    100.0%      0.0%
 average stack size                                     0.0      22.0       0.0
 marketing flops                   333.927416E+09
 -------------------------------------------------------------------------------
 # multiplications                            301
 max memory usage/rank               4.993925E+09
 # max total images/rank                        1
 # max 3D layers                                1
 # MPI messages exchanged                       0
 MPI messages size (bytes):
  total size                         0.000000E+00
  min size                           0.000000E+00
  max size                           0.000000E+00
  average size                       0.000000E+00
 MPI breakdown and total messages size (bytes):
             size <=      128                   0                        0
       128 < size <=     8192                   0                        0
      8192 < size <=    32768                   0                        0
     32768 < size <=   131072                   0                        0
    131072 < size <=  4194304                   0                        0
   4194304 < size <= 16777216                   0                        0
  16777216 < size                               0                        0
 -------------------------------------------------------------------------------

 MEMORY| Estimated peak process memory [MiB]                                4757

 -------------------------------------------------------------------------------
 -                                                                             -
 -                           R E F E R E N C E S                               -
 -                                                                             -
 -------------------------------------------------------------------------------
 
 CP2K version 7.1, the CP2K developers group (2019).
 CP2K is freely available from https://www.cp2k.org/ .

 Schuett, Ole; Messmer, Peter; Hutter, Juerg; VandeVondele, Joost. 
 Electronic Structure Calculations on Graphics Processing Units, John
 Wiley & Sons, Ltd, 173-190 (2016). 
 GPU-Accelerated Sparse Matrix-Matrix Multiplication for
 Linear Scaling Density Functional Theory.
 https://dx.doi.org/10.1002/9781118670712.ch8

 Borstnik, U; VandeVondele, J; Weber, V; Hutter, J. 
 PARALLEL COMPUTING, 40 (5-6), 47-58 (2014). 
 Sparse matrix multiplication: The distributed block-compressed sparse
 row library.
 https://dx.doi.org/10.1016/j.parco.2014.03.012

 Hutter, J; Iannuzzi, M; Schiffmann, F; VandeVondele, J. 
 WIREs Comput Mol Sci., 4 (1), 15-25 (2014). 
 CP2K: atomistic simulations of condensed matter systems.
 https://dx.doi.org/10.1002/wcms.1159

 Krack, M. 
 THEORETICAL CHEMISTRY ACCOUNTS, 114 (1-3), 145-152 (2005). 
 Pseudopotentials for H to Kr optimized for gradient-corrected
 exchange-correlation functionals.
 https://dx.doi.org/10.1007/s00214-005-0655-y

 VandeVondele, J; Krack, M; Mohamed, F; Parrinello, M; Chassaing, T;
 Hutter, J. COMPUTER PHYSICS COMMUNICATIONS, 167 (2), 103-128 (2005). 
 QUICKSTEP: Fast and accurate density functional calculations using a
 mixed Gaussian and plane waves approach.
 https://dx.doi.org/10.1016/j.cpc.2004.12.014

 Frigo, M; Johnson, SG. 
 PROCEEDINGS OF THE IEEE, 93 (2), 216-231 (2005). 
 The design and implementation of FFTW3.
 https://dx.doi.org/10.1109/JPROC.2004.840301

 Hartwigsen, C; Goedecker, S; Hutter, J. 
 PHYSICAL REVIEW B, 58 (7), 3641-3662 (1998). 
 Relativistic separable dual-space Gaussian pseudopotentials from H to Rn.
 https://dx.doi.org/10.1103/PhysRevB.58.3641

 Lippert, G; Hutter, J; Parrinello, M. 
 MOLECULAR PHYSICS, 92 (3), 477-487 (1997). 
 A hybrid Gaussian and plane wave density functional scheme.
 https://dx.doi.org/10.1080/002689797170220

 Goedecker, S; Teter, M; Hutter, J. 
 PHYSICAL REVIEW B, 54 (3), 1703-1710 (1996). 
 Separable dual-space Gaussian pseudopotentials.
 https://dx.doi.org/10.1103/PhysRevB.54.1703


 -------------------------------------------------------------------------------
 -                                                                             -
 -                                T I M I N G                                  -
 -                                                                             -
 -------------------------------------------------------------------------------
 SUBROUTINE                       CALLS  ASD         SELF TIME        TOTAL TIME
                                MAXIMUM       AVERAGE  MAXIMUM  AVERAGE  MAXIMUM
 CP2K                                 1  1.0    0.185    0.185 2801.695 2801.695
 qs_forces                            1  2.0    0.000    0.000 2799.705 2799.705
 qs_energies                          1  3.0    0.000    0.000 2798.905 2798.905
 scf_env_do_scf                       1  4.0    0.001    0.001 2796.447 2796.447
 scf_env_do_scf_inner_loop          300  5.0    0.059    0.059 2796.446 2796.446
 qs_scf_new_mos                     300  6.0    0.010    0.010 1981.110 1981.110
 eigensolver                        300  7.0    0.048    0.048 1948.990 1948.990
 cp_fm_syevd                        300  8.0 1263.584 1263.584 1265.180 1265.180
 cp_fm_cholesky_restore             900  8.0  682.713  682.713  682.713  682.713
 gspace_mixing                      299  6.0    6.773    6.773  452.728  452.728
 broyden_mixing                     299  7.0  409.188  409.188  409.190  409.190
 rebuild_ks_matrix                  301  7.0    0.001    0.001  183.635  183.635
 qs_ks_build_kohn_sham_matrix       301  8.0    0.067    0.067  183.634  183.634
 qs_ks_update_qs_env                300  6.0    0.003    0.003  183.349  183.349
 qs_rho_update_rho                  301  6.0    0.004    0.004  178.330  178.330
 calculate_rho_elec                 301  7.0   89.457   89.457  178.326  178.326
 pw_transfer                       3912  9.9    0.325    0.325  175.898  175.898
 fft_wrap_pw1pw2                   3310 10.9    0.033    0.033  170.843  170.843
 fft_wrap_pw1pw2_70                1504 11.2   17.821   17.821  159.467  159.467
 density_rs2pw                      301  8.0    0.024    0.024   86.545   86.545
 fft3d_s                           3311 12.9   78.757   78.757   78.780   78.780
 pw_scatter_s                      1804 13.2   59.552   59.552   59.552   59.552
 pw_poisson_solve                   301  9.0   53.683   53.683   58.519   58.519
 -------------------------------------------------------------------------------

 The number of warnings for this run is : 1
 
 -------------------------------------------------------------------------------
  **** **** ******  **  PROGRAM ENDED AT                 2021-02-20 21:10:23.187
 ***** ** ***  *** **   PROGRAM RAN ON                                   gnode68
 **    ****   ******    PROGRAM RAN BY                               mayank.modi
 ***** **    ** ** **   PROGRAM PROCESS ID                                 36783
  **** **  *******  **  PROGRAM STOPPED IN /home/mayank.modi/ab-initio-thermodyn
                                           amics-of-water/mayank/cp2k_energy_cal
                                           culations
