 DBCSR| CPU Multiplication driver                                           XSMM
 DBCSR| Multrec recursion limit                                              512
 DBCSR| Multiplication stack size                                           1000
 DBCSR| Maximum elements for images                                    UNLIMITED
 DBCSR| Multiplicative factor virtual images                                   1
 DBCSR| Use multiplication densification                                       T
 DBCSR| Multiplication size stacks                                             3


  **** **** ******  **  PROGRAM STARTED AT               2021-02-25 23:21:21.280
 ***** ** ***  *** **   PROGRAM STARTED ON                               gnode75
 **    ****   ******    PROGRAM STARTED BY                           mayank.modi
 ***** **    ** ** **   PROGRAM PROCESS ID                                 30948
  **** **  *******  **  PROGRAM STARTED IN /home/mayank.modi/ab-initio-thermodyn
                                           amics-of-water/mayank/cp2k_energy_cal
                                           culations

 CP2K| version string:                                          CP2K version 7.1
 CP2K| source code revision number:                                  git:e635599
 CP2K| cp2kflags: omp libint fftw3 libxc xsmm spglib                            
 CP2K| is freely available from                            https://www.cp2k.org/
 CP2K| Program compiled at                          Mon Dec 23 19:23:12 CET 2019
 CP2K| Program compiled on                                                pc9404
 CP2K| Program compiled for                                Linux-x86-64-gfortran
 CP2K| Data directory path                                        /opt/cp2k/data
 CP2K| Input file name                   input_training_correct_cell/input269.in

 GLOBAL| Force Environment number                                              1
 GLOBAL| Basis set file name                                           BASIS_SET
 GLOBAL| Potential file name                                      GTH_POTENTIALS
 GLOBAL| MM Potential file name                                     MM_POTENTIAL
 GLOBAL| Coordinate file name                                      __STD_INPUT__
 GLOBAL| Method name                                                        CP2K
 GLOBAL| Project name                                                   H2O_bulk
 GLOBAL| Preferred FFT library                                             FFTW3
 GLOBAL| Preferred diagonalization lib.                                       SL
 GLOBAL| Run type                                                   ENERGY_FORCE
 GLOBAL| All-to-all communication in single precision                          F
 GLOBAL| FFTs using library dependent lengths                                  F
 GLOBAL| Global print level                                                  LOW
 GLOBAL| MPI I/O enabled                                                       T
 GLOBAL| Total number of message passing processes                             1
 GLOBAL| Number of threads for this process                                   36
 GLOBAL| This output is from process                                           0
 GLOBAL| CPU model name                Intel(R) Xeon(R) CPU E5-2640 v4 @ 2.40GHz
 GLOBAL| CPUID                                                              1002
 GLOBAL| Compiled for CPUID                                                    0

 MEMORY| system memory details [Kb]
 MEMORY|                        rank 0           min           max       average
 MEMORY| MemTotal            131893432     131893432     131893432     131893432
 MEMORY| MemFree             123194964     123194964     123194964     123194964
 MEMORY| Buffers               1045124       1045124       1045124       1045124
 MEMORY| Cached                6254368       6254368       6254368       6254368
 MEMORY| Slab                   959208        959208        959208        959208
 MEMORY| SReclaimable           704692        704692        704692        704692
 MEMORY| MemLikelyFree       131199148     131199148     131199148     131199148


 GENERATE|  Preliminary Number of Bonds generated:                             0
 GENERATE|  Achieved consistency in connectivity generation.

 *******************************************************************************
 *******************************************************************************
 **                                                                           **
 **     #####                         ##              ##                      **
 **    ##   ##            ##          ##              ##                      **
 **   ##     ##                       ##            ######                    **
 **   ##     ##  ##   ##  ##   #####  ##  ##   ####   ##    #####    #####    **
 **   ##     ##  ##   ##  ##  ##      ## ##   ##      ##   ##   ##  ##   ##   **
 **   ##  ## ##  ##   ##  ##  ##      ####     ###    ##   ######   ######    **
 **    ##  ###   ##   ##  ##  ##      ## ##      ##   ##   ##       ##        **
 **     #######   #####   ##   #####  ##  ##  ####    ##    #####   ##        **
 **           ##                                                    ##        **
 **                                                                           **
 **                                                ... make the atoms dance   **
 **                                                                           **
 **            Copyright (C) by CP2K developers group (2000 - 2019)           **
 **                                                                           **
 *******************************************************************************


 TOTAL NUMBERS AND MAXIMUM NUMBERS

  Total number of            - Atomic kinds:                                   2
                             - Atoms:                                        192
                             - Shell sets:                                   384
                             - Shells:                                       704
                             - Primitive Cartesian functions:                960
                             - Cartesian basis functions:                   1536
                             - Spherical basis functions:                   1472

  Maximum angular momentum of- Orbital basis functions:                        2
                             - Local part of the GTH pseudopotential:          2
                             - Non-local part of the GTH pseudopotential:      0


 SCF PARAMETERS         Density guess:                                    ATOMIC
                        --------------------------------------------------------
                        max_scf:                                             300
                        max_scf_history:                                       0
                        max_diis:                                              4
                        --------------------------------------------------------
                        eps_scf:                                        1.00E-07
                        eps_scf_history:                                0.00E+00
                        eps_diis:                                       1.00E-01
                        eps_eigval:                                     1.00E-05
                        --------------------------------------------------------
                        level_shift [a.u.]:                                 0.00
                        --------------------------------------------------------
                        Mixing method:                            BROYDEN_MIXING
                                                charge density mixing in g-space
                        --------------------------------------------------------
                        No outer SCF

 Number of electrons:                                                        512
 Number of occupied orbitals:                                                256
 Number of molecular orbitals:                                               256

 Number of orbital functions:                                               1472
 Number of independent orbital functions:                                   1472

 Extrapolation method: initial_guess


 SCF WAVEFUNCTION OPTIMIZATION

  Step     Update method      Time    Convergence         Total energy    Change
  ------------------------------------------------------------------------------
     1 NoMix/Diag. 0.40E+00    7.1     0.66999141     -1064.6199332582 -1.06E+03
     2 Broy./Diag. 0.40E+00    7.8     1.95165578      -997.2857753092  6.73E+01
     3 Broy./Diag. 0.40E+00    8.0     1.95658955     -1258.1239554790 -2.61E+02
     4 Broy./Diag. 0.40E+00    8.1     1.77531702     -1130.6709403265  1.27E+02
     5 Broy./Diag. 0.40E+00    8.5     1.82938820     -1092.0151256583  3.87E+01
     6 Broy./Diag. 0.40E+00    8.8     1.98790869     -1099.2699636802 -7.25E+00
     7 Broy./Diag. 0.40E+00    8.9     1.80985413     -1100.2487455834 -9.79E-01
     8 Broy./Diag. 0.40E+00    9.0     1.85474050     -1090.2605620927  9.99E+00
     9 Broy./Diag. 0.40E+00    9.2     1.22911071     -1076.3921207936  1.39E+01
    10 Broy./Diag. 0.40E+00    9.4     1.44803780     -1073.3576029187  3.03E+00
    11 Broy./Diag. 0.40E+00    9.4     1.60053304     -1074.8657093633 -1.51E+00
    12 Broy./Diag. 0.40E+00    9.3     1.77291922     -1072.5946239830  2.27E+00
    13 Broy./Diag. 0.40E+00    9.4     1.81357790     -1073.2172816940 -6.23E-01
    14 Broy./Diag. 0.40E+00    9.7     1.81042903     -1081.3552279865 -8.14E+00
    15 Broy./Diag. 0.40E+00    9.5     1.62736209     -1080.1994959491  1.16E+00
    16 Broy./Diag. 0.40E+00    9.2     1.81102076     -1076.9567199783  3.24E+00
    17 Broy./Diag. 0.40E+00    9.5     1.80153278     -1081.5525052169 -4.60E+00
    18 Broy./Diag. 0.40E+00    9.5     1.62920266     -1076.2741335265  5.28E+00
    19 Broy./Diag. 0.40E+00    9.5     1.18590063     -1074.0256335496  2.25E+00
    20 Broy./Diag. 0.40E+00    9.5     1.58834409     -1076.1364251419 -2.11E+00
    21 Broy./Diag. 0.40E+00    9.5     1.76870020     -1077.2916823001 -1.16E+00
    22 Broy./Diag. 0.40E+00    9.4     1.79626231     -1078.5686731337 -1.28E+00
    23 Broy./Diag. 0.40E+00    9.2     1.23082560     -1075.0200052522  3.55E+00
    24 Broy./Diag. 0.40E+00    9.3     1.81933073     -1073.1499927915  1.87E+00
    25 Broy./Diag. 0.40E+00    9.5     1.81759944     -1082.0515911848 -8.90E+00
    26 Broy./Diag. 0.40E+00    9.4     1.59469480     -1077.7343682009  4.32E+00
    27 Broy./Diag. 0.40E+00    9.4     1.75006187     -1075.6947263181  2.04E+00
    28 Broy./Diag. 0.40E+00    9.3     1.61325537     -1076.3513739828 -6.57E-01
    29 Broy./Diag. 0.40E+00    9.4     1.83526273     -1075.6296849212  7.22E-01
    30 Broy./Diag. 0.40E+00    9.4     1.83076671     -1078.5417296184 -2.91E+00
    31 Broy./Diag. 0.40E+00    9.4     1.79270082     -1078.8158747484 -2.74E-01
    32 Broy./Diag. 0.40E+00    9.2     1.79595482     -1073.3869437485  5.43E+00
    33 Broy./Diag. 0.40E+00    9.3     1.82840415     -1078.6568350235 -5.27E+00
    34 Broy./Diag. 0.40E+00    9.6     1.69537658     -1079.6722061406 -1.02E+00
    35 Broy./Diag. 0.40E+00    9.3     1.74371484     -1075.0514877875  4.62E+00
    36 Broy./Diag. 0.40E+00    9.4     1.49617695     -1077.9894693574 -2.94E+00
    37 Broy./Diag. 0.40E+00    9.3     0.88782408     -1075.0233242716  2.97E+00
    38 Broy./Diag. 0.40E+00    9.0     1.76985862     -1074.7666324872  2.57E-01
    39 Broy./Diag. 0.40E+00    9.0     1.78844287     -1082.1948017297 -7.43E+00
    40 Broy./Diag. 0.40E+00    9.6     1.84270630     -1075.6753199889  6.52E+00
    41 Broy./Diag. 0.40E+00    9.5     1.57200597     -1077.0676606260 -1.39E+00
    42 Broy./Diag. 0.40E+00    9.2     1.69823329     -1074.5684877590  2.50E+00
    43 Broy./Diag. 0.40E+00    9.3     1.72729090     -1076.3348797072 -1.77E+00
    44 Broy./Diag. 0.40E+00    9.6     1.67554308     -1076.7505468870 -4.16E-01
    45 Broy./Diag. 0.40E+00    9.5     1.61512046     -1076.9087756635 -1.58E-01
    46 Broy./Diag. 0.40E+00    9.5     1.81613445     -1076.9927742101 -8.40E-02
    47 Broy./Diag. 0.40E+00    9.3     1.83135315     -1075.7963033744  1.20E+00
    48 Broy./Diag. 0.40E+00    9.5     1.77931640     -1075.5240964803  2.72E-01
    49 Broy./Diag. 0.40E+00    9.3     1.78724316     -1081.0982528622 -5.57E+00
    50 Broy./Diag. 0.40E+00    9.4     1.48031859     -1075.0581904197  6.04E+00
    51 Broy./Diag. 0.40E+00    9.4     1.77299117     -1077.1734180798 -2.12E+00
    52 Broy./Diag. 0.40E+00    9.5     1.80029517     -1075.6940217906  1.48E+00
    53 Broy./Diag. 0.40E+00    9.5     1.80445604     -1077.9763786759 -2.28E+00
    54 Broy./Diag. 0.40E+00    9.6     1.58945329     -1076.9373964181  1.04E+00
    55 Broy./Diag. 0.40E+00    9.3     1.62802592     -1077.1631791347 -2.26E-01
    56 Broy./Diag. 0.40E+00    9.5     1.78836213     -1078.3377676957 -1.17E+00
    57 Broy./Diag. 0.40E+00    9.5     1.87902679     -1076.3552248592  1.98E+00
    58 Broy./Diag. 0.40E+00    9.3     1.79104079     -1073.6382484966  2.72E+00
    59 Broy./Diag. 0.40E+00    9.4     1.68593297     -1074.4019905719 -7.64E-01
    60 Broy./Diag. 0.40E+00    9.4     1.74794839     -1077.1272931923 -2.73E+00
    61 Broy./Diag. 0.40E+00    9.5     1.74013467     -1079.1844754500 -2.06E+00
    62 Broy./Diag. 0.40E+00    9.3     1.76905483     -1076.0741522502  3.11E+00
    63 Broy./Diag. 0.40E+00    9.4     1.81975798     -1077.2570911731 -1.18E+00
    64 Broy./Diag. 0.40E+00    9.4     1.62764508     -1076.3343874866  9.23E-01
    65 Broy./Diag. 0.40E+00    9.2     1.65335988     -1075.4180917858  9.16E-01
    66 Broy./Diag. 0.40E+00    9.0     1.71001826     -1077.2826126413 -1.86E+00
    67 Broy./Diag. 0.40E+00    8.8     1.86460554     -1075.9091827546  1.37E+00
    68 Broy./Diag. 0.40E+00    9.0     1.76000743     -1075.1995537390  7.10E-01
    69 Broy./Diag. 0.40E+00    9.4     1.76826627     -1076.2883215603 -1.09E+00
    70 Broy./Diag. 0.40E+00    9.2     1.68619575     -1078.3057301722 -2.02E+00
    71 Broy./Diag. 0.40E+00    9.4     1.83619860     -1078.4757834133 -1.70E-01
    72 Broy./Diag. 0.40E+00    9.6     1.40730620     -1075.3561059664  3.12E+00
    73 Broy./Diag. 0.40E+00    9.4     1.75519551     -1073.6754707204  1.68E+00
    74 Broy./Diag. 0.40E+00    9.4     1.79488216     -1081.2889405858 -7.61E+00
    75 Broy./Diag. 0.40E+00    9.4     1.64914140     -1077.5283572282  3.76E+00
    76 Broy./Diag. 0.40E+00    9.2     1.69971072     -1076.7220305742  8.06E-01
    77 Broy./Diag. 0.40E+00    9.2     1.70807009     -1075.5860349002  1.14E+00
    78 Broy./Diag. 0.40E+00    9.2     1.64761459     -1077.7585664149 -2.17E+00
    79 Broy./Diag. 0.40E+00    9.5     1.76693803     -1074.2585762752  3.50E+00
    80 Broy./Diag. 0.40E+00    9.3     1.80509820     -1077.7172326981 -3.46E+00
    81 Broy./Diag. 0.40E+00    9.4     1.83635405     -1080.7688409721 -3.05E+00
    82 Broy./Diag. 0.40E+00    9.4     1.53966514     -1078.8522445734  1.92E+00
    83 Broy./Diag. 0.40E+00    9.3     1.81508752     -1073.5300022339  5.32E+00
    84 Broy./Diag. 0.40E+00    9.5     1.82441904     -1082.6336243736 -9.10E+00
    85 Broy./Diag. 0.40E+00    9.4     1.63450032     -1078.9883642477  3.65E+00
    86 Broy./Diag. 0.40E+00    9.3     1.80980352     -1076.2388167201  2.75E+00
    87 Broy./Diag. 0.40E+00    9.4     1.70137398     -1079.7215183672 -3.48E+00
    88 Broy./Diag. 0.40E+00    9.3     1.85077558     -1076.7985173204  2.92E+00
    89 Broy./Diag. 0.40E+00    9.3     1.75482134     -1076.3241984098  4.74E-01
    90 Broy./Diag. 0.40E+00    9.1     1.77686128     -1077.6664098816 -1.34E+00
    91 Broy./Diag. 0.40E+00    9.2     1.74028963     -1075.4214207734  2.24E+00
    92 Broy./Diag. 0.40E+00    9.5     1.74225926     -1074.9037962348  5.18E-01
    93 Broy./Diag. 0.40E+00    9.3     1.78297271     -1077.9439953845 -3.04E+00
    94 Broy./Diag. 0.40E+00    9.3     1.81398012     -1077.6999623821  2.44E-01
    95 Broy./Diag. 0.40E+00    9.5     1.67559287     -1077.1805928661  5.19E-01
    96 Broy./Diag. 0.40E+00    9.5     1.75606158     -1076.2510736456  9.30E-01
    97 Broy./Diag. 0.40E+00    9.3     1.74733510     -1075.6309104192  6.20E-01
    98 Broy./Diag. 0.40E+00    9.7     1.34527239     -1075.6541742265 -2.33E-02
    99 Broy./Diag. 0.40E+00    9.2     1.55328892     -1075.9710938945 -3.17E-01
   100 Broy./Diag. 0.40E+00    9.4     1.81393198     -1075.5232930823  4.48E-01
   101 Broy./Diag. 0.40E+00    9.5     1.84306492     -1077.6375297309 -2.11E+00
   102 Broy./Diag. 0.40E+00    9.4     1.59507100     -1078.0307525534 -3.93E-01
   103 Broy./Diag. 0.40E+00    9.5     1.77278154     -1077.5988373492  4.32E-01
   104 Broy./Diag. 0.40E+00    9.5     1.80155048     -1076.3500466028  1.25E+00
   105 Broy./Diag. 0.40E+00    9.3     1.67572982     -1073.9088503270  2.44E+00
   106 Broy./Diag. 0.40E+00    9.6     1.73537148     -1075.1615350153 -1.25E+00
   107 Broy./Diag. 0.40E+00    9.5     1.15807739     -1076.1693742081 -1.01E+00
   108 Broy./Diag. 0.40E+00    9.4     1.75169410     -1076.8124571857 -6.43E-01
   109 Broy./Diag. 0.40E+00    9.7     1.80074651     -1078.4299010173 -1.62E+00
   110 Broy./Diag. 0.40E+00    9.5     1.64197211     -1076.1565460768  2.27E+00
   111 Broy./Diag. 0.40E+00    9.3     1.81429383     -1074.2904372232  1.87E+00
   112 Broy./Diag. 0.40E+00    9.6     1.71647060     -1083.6982283357 -9.41E+00
   113 Broy./Diag. 0.40E+00    9.6     1.45726466     -1079.0856954885  4.61E+00
   114 Broy./Diag. 0.40E+00    9.5     1.72994596     -1075.5356779045  3.55E+00
   115 Broy./Diag. 0.40E+00    9.4     1.72925440     -1078.6367231709 -3.10E+00
   116 Broy./Diag. 0.40E+00    9.2     1.72598059     -1077.9919891431  6.45E-01
   117 Broy./Diag. 0.40E+00    9.3     1.72716269     -1075.6572096551  2.33E+00
   118 Broy./Diag. 0.40E+00    9.5     1.77762170     -1079.2186882914 -3.56E+00
   119 Broy./Diag. 0.40E+00    9.7     1.83088245     -1078.1393153982  1.08E+00
   120 Broy./Diag. 0.40E+00    9.3     1.62921380     -1079.3986019189 -1.26E+00
   121 Broy./Diag. 0.40E+00    9.1     1.53296131     -1075.5115494262  3.89E+00
   122 Broy./Diag. 0.40E+00    9.2     1.82840315     -1075.0277838096  4.84E-01
   123 Broy./Diag. 0.40E+00    9.4     1.87147310     -1077.0714164852 -2.04E+00
   124 Broy./Diag. 0.40E+00    9.3     1.45011272     -1075.7933768410  1.28E+00
   125 Broy./Diag. 0.40E+00    9.5     1.76409531     -1074.9366446970  8.57E-01
   126 Broy./Diag. 0.40E+00    9.5     1.67432602     -1082.5932823092 -7.66E+00
   127 Broy./Diag. 0.40E+00    9.4     1.72770672     -1076.1625935563  6.43E+00
   128 Broy./Diag. 0.40E+00    9.3     1.81800734     -1077.2840354107 -1.12E+00
   129 Broy./Diag. 0.40E+00    9.3     1.83531592     -1080.6500775317 -3.37E+00
   130 Broy./Diag. 0.40E+00    9.0     1.36073824     -1075.9429380642  4.71E+00
   131 Broy./Diag. 0.40E+00    9.3     1.42892822     -1074.6436431633  1.30E+00
   132 Broy./Diag. 0.40E+00    9.2     1.82229682     -1077.1586124185 -2.51E+00
   133 Broy./Diag. 0.40E+00    9.4     1.84072773     -1077.3315231052 -1.73E-01
   134 Broy./Diag. 0.40E+00    9.2     1.51681601     -1079.0859981167 -1.75E+00
   135 Broy./Diag. 0.40E+00    9.4     1.78166002     -1075.8540274769  3.23E+00
   136 Broy./Diag. 0.40E+00    9.3     1.80718049     -1077.5542937612 -1.70E+00
   137 Broy./Diag. 0.40E+00    9.1     1.59195592     -1075.9198516345  1.63E+00
   138 Broy./Diag. 0.40E+00    8.7     1.71982980     -1075.8070746449  1.13E-01
   139 Broy./Diag. 0.40E+00    9.5     1.78496579     -1073.6839803548  2.12E+00
   140 Broy./Diag. 0.40E+00    9.4     1.77377906     -1077.2292897376 -3.55E+00
   141 Broy./Diag. 0.40E+00    9.3     1.40605816     -1077.5766225456 -3.47E-01
   142 Broy./Diag. 0.40E+00    9.4     1.80057225     -1077.4739403400  1.03E-01
   143 Broy./Diag. 0.40E+00    9.7     1.82798763     -1079.7889178477 -2.31E+00
   144 Broy./Diag. 0.40E+00    9.3     1.60450833     -1077.3335584517  2.46E+00
   145 Broy./Diag. 0.40E+00    9.5     1.77295681     -1073.2736465997  4.06E+00
   146 Broy./Diag. 0.40E+00    9.6     1.81922975     -1080.0560088221 -6.78E+00
   147 Broy./Diag. 0.40E+00    9.5     1.83249167     -1080.3745534799 -3.19E-01
   148 Broy./Diag. 0.40E+00    9.5     1.67266521     -1079.2923411502  1.08E+00
   149 Broy./Diag. 0.40E+00    9.4     1.55524892     -1075.3237223581  3.97E+00
   150 Broy./Diag. 0.40E+00    9.3     1.76869131     -1077.1237100563 -1.80E+00
   151 Broy./Diag. 0.40E+00    9.5     1.58920835     -1080.2608769566 -3.14E+00
   152 Broy./Diag. 0.40E+00    9.4     1.75678908     -1074.5395158256  5.72E+00
   153 Broy./Diag. 0.40E+00    9.4     1.50601288     -1078.2314906710 -3.69E+00
   154 Broy./Diag. 0.40E+00    9.2     1.57182465     -1075.7755077926  2.46E+00
   155 Broy./Diag. 0.40E+00    9.3     1.16818441     -1074.2754682103  1.50E+00
   156 Broy./Diag. 0.40E+00    9.3     1.66028079     -1075.7385181566 -1.46E+00
   157 Broy./Diag. 0.40E+00    9.3     1.62272986     -1074.8355511269  9.03E-01
   158 Broy./Diag. 0.40E+00    9.5     1.77823084     -1081.1222826758 -6.29E+00
   159 Broy./Diag. 0.40E+00    9.3     1.76365687     -1076.6556905418  4.47E+00
   160 Broy./Diag. 0.40E+00    9.4     1.80289899     -1077.3605693471 -7.05E-01
   161 Broy./Diag. 0.40E+00    9.6     1.62942369     -1075.5665191208  1.79E+00
   162 Broy./Diag. 0.40E+00    9.3     1.27836311     -1077.2511668635 -1.68E+00
   163 Broy./Diag. 0.40E+00    9.5     1.51433841     -1077.4501192612 -1.99E-01
   164 Broy./Diag. 0.40E+00    9.7     1.82921057     -1073.9487240281  3.50E+00
   165 Broy./Diag. 0.40E+00    9.3     1.80526546     -1077.8013290031 -3.85E+00
   166 Broy./Diag. 0.40E+00    9.4     1.71565633     -1076.5869034741  1.21E+00
   167 Broy./Diag. 0.40E+00    9.3     1.25794486     -1075.9757395259  6.11E-01
   168 Broy./Diag. 0.40E+00    9.0     1.78866336     -1078.3424292544 -2.37E+00
   169 Broy./Diag. 0.40E+00    9.2     1.53375409     -1077.9928038942  3.50E-01
   170 Broy./Diag. 0.40E+00    9.1     1.79718470     -1073.3546028917  4.64E+00
   171 Broy./Diag. 0.40E+00    9.6     1.77665690     -1081.1802944100 -7.83E+00
   172 Broy./Diag. 0.40E+00    9.5     1.71412791     -1076.0110586761  5.17E+00
   173 Broy./Diag. 0.40E+00    9.5     1.38279696     -1078.2962708794 -2.29E+00
   174 Broy./Diag. 0.40E+00    9.6     1.79222082     -1077.7601552361  5.36E-01
   175 Broy./Diag. 0.40E+00    9.4     1.84413614     -1075.5260142292  2.23E+00
   176 Broy./Diag. 0.40E+00    9.5     1.85631524     -1077.1108387915 -1.58E+00
   177 Broy./Diag. 0.40E+00    9.5     1.83488497     -1079.6742344033 -2.56E+00
   178 Broy./Diag. 0.40E+00    9.3     1.73612383     -1075.7946585024  3.88E+00
   179 Broy./Diag. 0.40E+00    9.5     1.54504667     -1078.5896050299 -2.79E+00
   180 Broy./Diag. 0.40E+00    9.4     1.40083742     -1076.0389713178  2.55E+00
   181 Broy./Diag. 0.40E+00    9.3     1.70207268     -1072.7904610822  3.25E+00
   182 Broy./Diag. 0.40E+00    9.4     1.68785570     -1080.0096887516 -7.22E+00
   183 Broy./Diag. 0.40E+00    9.3     1.78064303     -1079.3540241048  6.56E-01
   184 Broy./Diag. 0.40E+00    9.4     1.80652287     -1077.2621317852  2.09E+00
   185 Broy./Diag. 0.40E+00    9.5     1.80174925     -1074.4660461517  2.80E+00
   186 Broy./Diag. 0.40E+00    9.5     1.84284812     -1077.3512351885 -2.89E+00
   187 Broy./Diag. 0.40E+00    9.3     1.71906263     -1075.0573187228  2.29E+00
   188 Broy./Diag. 0.40E+00    9.2     1.72707829     -1077.0984134698 -2.04E+00
   189 Broy./Diag. 0.40E+00    9.1     1.48455187     -1078.6495288706 -1.55E+00
   190 Broy./Diag. 0.40E+00    9.5     1.70922215     -1074.6567848297  3.99E+00
   191 Broy./Diag. 0.40E+00    9.3     1.67176506     -1077.0757190209 -2.42E+00
   192 Broy./Diag. 0.40E+00    9.4     1.68720281     -1080.9891891471 -3.91E+00
   193 Broy./Diag. 0.40E+00    9.3     1.81498641     -1076.4573029220  4.53E+00
   194 Broy./Diag. 0.40E+00    9.4     1.82867150     -1078.7499939225 -2.29E+00
   195 Broy./Diag. 0.40E+00    9.5     1.12299016     -1076.2070636130  2.54E+00
   196 Broy./Diag. 0.40E+00    9.5     1.83177303     -1074.1900848165  2.02E+00
   197 Broy./Diag. 0.40E+00    9.3     1.79546618     -1080.3357642257 -6.15E+00
   198 Broy./Diag. 0.40E+00    9.2     1.57771819     -1077.9681530798  2.37E+00
   199 Broy./Diag. 0.40E+00    9.5     1.78825021     -1078.0797558758 -1.12E-01
   200 Broy./Diag. 0.40E+00    9.5     1.83276772     -1076.0375762178  2.04E+00
   201 Broy./Diag. 0.40E+00    9.4     1.84590811     -1077.3159469917 -1.28E+00
   202 Broy./Diag. 0.40E+00    9.3     1.70337381     -1080.6965825453 -3.38E+00
   203 Broy./Diag. 0.40E+00    9.5     1.61065011     -1075.4450687452  5.25E+00
   204 Broy./Diag. 0.40E+00    9.5     1.74508271     -1078.2882452313 -2.84E+00
   205 Broy./Diag. 0.40E+00    9.3     1.63101501     -1077.5265609779  7.62E-01
   206 Broy./Diag. 0.40E+00    9.2     1.82488280     -1073.1938133361  4.33E+00
   207 Broy./Diag. 0.40E+00    9.1     1.83669867     -1082.0126954758 -8.82E+00
   208 Broy./Diag. 0.40E+00    9.2     1.61434802     -1078.4801922723  3.53E+00
   209 Broy./Diag. 0.40E+00    9.4     1.78319745     -1076.2149953006  2.27E+00
   210 Broy./Diag. 0.40E+00    9.3     1.84017366     -1075.0827765446  1.13E+00
   211 Broy./Diag. 0.40E+00    9.2     1.84810537     -1077.4688895522 -2.39E+00
   212 Broy./Diag. 0.40E+00    9.0     1.56577886     -1077.1812066571  2.88E-01
   213 Broy./Diag. 0.40E+00    8.8     1.64566047     -1076.6845360277  4.97E-01
   214 Broy./Diag. 0.40E+00    9.0     1.41497887     -1075.7894327817  8.95E-01
   215 Broy./Diag. 0.40E+00    9.3     1.50953325     -1075.2901585727  4.99E-01
   216 Broy./Diag. 0.40E+00    9.3     1.82764448     -1074.1735991240  1.12E+00
   217 Broy./Diag. 0.40E+00    9.2     1.83683393     -1082.2815998559 -8.11E+00
   218 Broy./Diag. 0.40E+00    9.2     1.69028894     -1079.3494784161  2.93E+00
   219 Broy./Diag. 0.40E+00    9.0     1.75905820     -1075.7786949983  3.57E+00
   220 Broy./Diag. 0.40E+00    8.9     1.83673513     -1076.2566961971 -4.78E-01
   221 Broy./Diag. 0.40E+00    9.4     1.84438912     -1076.7158645903 -4.59E-01
   222 Broy./Diag. 0.40E+00    9.3     1.71599563     -1078.0440141333 -1.33E+00
   223 Broy./Diag. 0.40E+00    9.2     1.72844157     -1075.0616017565  2.98E+00
   224 Broy./Diag. 0.40E+00    9.1     0.88482756     -1074.4770053369  5.85E-01
   225 Broy./Diag. 0.40E+00    9.5     1.69376788     -1076.5473071860 -2.07E+00
   226 Broy./Diag. 0.40E+00    9.3     1.70550543     -1079.5198222815 -2.97E+00
   227 Broy./Diag. 0.40E+00    9.5     1.61926304     -1076.1399600130  3.38E+00
   228 Broy./Diag. 0.40E+00    9.3     1.71748979     -1077.4164419753 -1.28E+00
   229 Broy./Diag. 0.40E+00    9.3     1.17282359     -1076.4942638135  9.22E-01
   230 Broy./Diag. 0.40E+00    9.5     1.82661496     -1073.3997987269  3.09E+00
   231 Broy./Diag. 0.40E+00    9.3     1.81592774     -1080.4721049604 -7.07E+00
   232 Broy./Diag. 0.40E+00    9.5     1.78395787     -1078.6263464073  1.85E+00
   233 Broy./Diag. 0.40E+00    9.4     1.83033454     -1077.3632342299  1.26E+00
   234 Broy./Diag. 0.40E+00    9.3     1.69698203     -1077.7082786678 -3.45E-01
   235 Broy./Diag. 0.40E+00    9.5     1.76329358     -1076.0996477395  1.61E+00
   236 Broy./Diag. 0.40E+00    9.5     1.72029919     -1075.6298762587  4.70E-01
   237 Broy./Diag. 0.40E+00    9.5     1.74105917     -1076.4212718934 -7.91E-01
   238 Broy./Diag. 0.40E+00    9.5     1.69878874     -1076.8952848906 -4.74E-01
   239 Broy./Diag. 0.40E+00    9.5     1.82162429     -1074.0804736454  2.81E+00
   240 Broy./Diag. 0.40E+00    9.3     1.83355261     -1080.9670592861 -6.89E+00
   241 Broy./Diag. 0.40E+00    9.4     1.56982031     -1077.0315423636  3.94E+00
   242 Broy./Diag. 0.40E+00    9.4     1.76822933     -1077.3050336032 -2.73E-01
   243 Broy./Diag. 0.40E+00    9.2     1.82387862     -1076.9027771845  4.02E-01
   244 Broy./Diag. 0.40E+00    9.5     1.78599151     -1077.5012471938 -5.98E-01
   245 Broy./Diag. 0.40E+00    9.3     1.82275242     -1075.4524739148  2.05E+00
   246 Broy./Diag. 0.40E+00    8.9     1.11768342     -1074.9305169012  5.22E-01
   247 Broy./Diag. 0.40E+00    8.9     1.62494836     -1073.0231470025  1.91E+00
   248 Broy./Diag. 0.40E+00    8.8     1.72695652     -1078.1913742719 -5.17E+00
   249 Broy./Diag. 0.40E+00    9.3     1.81690557     -1079.4363272068 -1.24E+00
   250 Broy./Diag. 0.40E+00    9.4     1.84625399     -1077.4479439034  1.99E+00
   251 Broy./Diag. 0.40E+00    9.3     1.72524086     -1076.7099379196  7.38E-01
   252 Broy./Diag. 0.40E+00    9.4     1.66511395     -1078.3116167768 -1.60E+00
   253 Broy./Diag. 0.40E+00    9.3     1.82529033     -1076.9344095791  1.38E+00
   254 Broy./Diag. 0.40E+00    9.3     1.53981294     -1075.0225533909  1.91E+00
   255 Broy./Diag. 0.40E+00    9.5     1.14996851     -1075.0816170137 -5.91E-02
   256 Broy./Diag. 0.40E+00    9.4     1.81163832     -1075.3082407882 -2.27E-01
   257 Broy./Diag. 0.40E+00    9.3     1.85366740     -1077.8632708385 -2.56E+00
   258 Broy./Diag. 0.40E+00    9.5     1.74462701     -1075.9447209491  1.92E+00
   259 Broy./Diag. 0.40E+00    9.4     1.76311672     -1073.8850563867  2.06E+00
   260 Broy./Diag. 0.40E+00    9.5     1.78985162     -1081.2390564619 -7.35E+00
   261 Broy./Diag. 0.40E+00    9.3     1.42712242     -1077.2464147087  3.99E+00
   262 Broy./Diag. 0.40E+00    9.4     1.73513240     -1077.4761974348 -2.30E-01
   263 Broy./Diag. 0.40E+00    9.8     1.77721347     -1075.5820240517  1.89E+00
   264 Broy./Diag. 0.40E+00    9.5     1.70528422     -1078.0179701906 -2.44E+00
   265 Broy./Diag. 0.40E+00    9.6     1.81784014     -1074.3891989512  3.63E+00
   266 Broy./Diag. 0.40E+00    9.5     1.86548068     -1078.6970307321 -4.31E+00
   267 Broy./Diag. 0.40E+00    9.5     1.59977925     -1076.2760435894  2.42E+00
   268 Broy./Diag. 0.40E+00    9.3     1.67687415     -1079.1198888512 -2.84E+00
   269 Broy./Diag. 0.40E+00    9.1     1.78982021     -1074.5524805846  4.57E+00
   270 Broy./Diag. 0.40E+00    9.7     1.78914240     -1081.0508772756 -6.50E+00
   271 Broy./Diag. 0.40E+00    9.6     1.36173822     -1075.9408144871  5.11E+00
   272 Broy./Diag. 0.40E+00    9.5     1.54846284     -1075.9932513673 -5.24E-02
   273 Broy./Diag. 0.40E+00    9.3     1.75426002     -1073.1900295720  2.80E+00
   274 Broy./Diag. 0.40E+00    9.5     1.76557445     -1080.9510054809 -7.76E+00
   275 Broy./Diag. 0.40E+00    9.4     1.59761274     -1076.5294596410  4.42E+00
   276 Broy./Diag. 0.40E+00    9.5     1.82765035     -1074.4791578829  2.05E+00
   277 Broy./Diag. 0.40E+00    9.4     1.82348976     -1077.7064962619 -3.23E+00
   278 Broy./Diag. 0.40E+00    9.4     1.71997454     -1078.9595156275 -1.25E+00
   279 Broy./Diag. 0.40E+00    9.5     1.79352091     -1076.0414425119  2.92E+00
   280 Broy./Diag. 0.40E+00    9.3     1.80244320     -1078.9044173476 -2.86E+00
   281 Broy./Diag. 0.40E+00    9.3     1.66207956     -1075.7279157855  3.18E+00
   282 Broy./Diag. 0.40E+00    9.5     1.64399205     -1079.7852611273 -4.06E+00
   283 Broy./Diag. 0.40E+00    9.5     1.75856970     -1076.2875757951  3.50E+00
   284 Broy./Diag. 0.40E+00    9.4     1.82075235     -1077.0127538196 -7.25E-01
   285 Broy./Diag. 0.40E+00    9.3     1.53476017     -1075.0559485984  1.96E+00
   286 Broy./Diag. 0.40E+00    9.0     1.81824940     -1073.4961303511  1.56E+00
   287 Broy./Diag. 0.40E+00    9.0     1.83611492     -1080.4539694388 -6.96E+00
   288 Broy./Diag. 0.40E+00    9.5     1.74157829     -1078.5009845288  1.95E+00
   289 Broy./Diag. 0.40E+00    9.3     1.74902263     -1075.6488630752  2.85E+00
   290 Broy./Diag. 0.40E+00    9.3     1.75717759     -1075.5458078984  1.03E-01
   291 Broy./Diag. 0.40E+00    9.5     1.75592172     -1076.8742408972 -1.33E+00
   292 Broy./Diag. 0.40E+00    9.4     1.82820927     -1079.2405943755 -2.37E+00
   293 Broy./Diag. 0.40E+00    9.5     1.86690043     -1076.9294243163  2.31E+00
   294 Broy./Diag. 0.40E+00    9.3     1.82530720     -1078.8627559423 -1.93E+00
   295 Broy./Diag. 0.40E+00    9.4     1.65076616     -1074.7774997391  4.09E+00
   296 Broy./Diag. 0.40E+00    9.6     1.63634361     -1075.8772495153 -1.10E+00
   297 Broy./Diag. 0.40E+00    9.5     1.54603981     -1076.2713029346 -3.94E-01
   298 Broy./Diag. 0.40E+00    9.4     1.59018982     -1074.0025554694  2.27E+00
   299 Broy./Diag. 0.40E+00    9.5     1.59826071     -1082.1485585593 -8.15E+00
   300 Broy./Diag. 0.40E+00   10.0     1.76973290     -1078.5329346634  3.62E+00

  Leaving inner SCF loop after reaching   300 steps.


  Electronic density on regular grids:       -511.9991818625        0.0008181375
  Core density on regular grids:              511.9995390632       -0.0004609368
  Total charge density on r-space grids:        0.0003572007
  Total charge density g-space grids:           0.0003572007

  Overlap energy of the core charge distribution:               0.00000000000000
  Self energy of the core charge distribution:              -2838.21791979120962
  Core Hamiltonian energy:                                    759.03309520607388
  Hartree energy:                                            1239.72183368710512
  Exchange-correlation energy:                               -239.06994376538998

  Total energy:                                             -1078.53293466342052

 *** WARNING in qs_scf.F:542 :: SCF run NOT converged ***


 ENERGY| Total FORCE_EVAL ( QS ) energy (a.u.):            -1071.573175231418418


 ATOMIC FORCES in [a.u.]

 # Atom   Kind   Element          X              Y              Z
      1      1      O           0.03892358     0.06049785    -0.14129607
      2      2      H          -0.04739974     0.04074750     0.00202556
      3      2      H          -0.07429047    -0.02252368    -0.00730849
      4      1      O           0.07745164     0.00344295    -0.00796809
      5      2      H          -0.02488324     0.03690218    -0.00279915
      6      2      H          -0.02428116     0.00871625     0.03047402
      7      1      O          -0.18347597     0.05739804     0.05598205
      8      2      H           0.03032608    -0.00328792     0.04366182
      9      2      H           0.04252349    -0.04694566     0.00380812
     10      1      O          -0.01009340    -0.00528431     0.02854330
     11      2      H          -0.10072227     0.08712371     0.06462247
     12      2      H          -0.04223688    -0.08803489     0.07924356
     13      1      O          -0.06046369    -0.06296736    -0.02265347
     14      2      H           0.00746301     0.08249733     0.01158855
     15      2      H          -0.02267284    -0.03345893     0.05193694
     16      1      O          -0.06490377     0.16278170    -0.04662114
     17      2      H          -0.05957753    -0.05982047     0.11196165
     18      2      H           0.02475977    -0.04387128    -0.05442048
     19      1      O          -0.01482203     0.05222172     0.12215260
     20      2      H           0.02186246    -0.05174541    -0.03893136
     21      2      H          -0.06307983     0.00347436    -0.00049634
     22      1      O          -0.15744151    -0.11160901     0.08378165
     23      2      H          -0.03089396     0.05560026    -0.06325314
     24      2      H           0.05823003    -0.00634669     0.03171377
     25      1      O          -0.01915870    -0.11256224     0.06120346
     26      2      H          -0.04636798     0.08688674    -0.04692565
     27      2      H          -0.05118140     0.04032644     0.04098650
     28      1      O          -0.03009533    -0.19781853     0.13306656
     29      2      H           0.00921611     0.02260708    -0.08426913
     30      2      H           0.09103664     0.02654019     0.03934391
     31      1      O          -0.01727274    -0.02538949    -0.10843407
     32      2      H          -0.04631072     0.02510910     0.06350116
     33      2      H           0.10066416     0.03743916     0.00287621
     34      1      O           0.09348280     0.14141069     0.03743256
     35      2      H          -0.05609941    -0.03569122    -0.10880797
     36      2      H           0.05998767    -0.05944556    -0.04078121
     37      1      O           0.10197911     0.02943246     0.08324833
     38      2      H           0.00330803    -0.06620468    -0.06228466
     39      2      H          -0.09207713     0.06773273    -0.00249394
     40      1      O          -0.11723862    -0.04764063     0.02474947
     41      2      H           0.05297385     0.03811465    -0.03251716
     42      2      H           0.03687751    -0.01802786    -0.07650157
     43      1      O          -0.01092064    -0.12732144     0.11378019
     44      2      H          -0.05068527     0.04690165     0.01387535
     45      2      H          -0.01857763     0.08266906    -0.01970010
     46      1      O           0.10999117    -0.13803697    -0.03635765
     47      2      H          -0.11487645     0.06760845     0.06914566
     48      2      H           0.02095624     0.01392749     0.08535791
     49      1      O          -0.02258708     0.09302319     0.09572544
     50      2      H          -0.11084645    -0.06512867     0.01399033
     51      2      H           0.03914704     0.07466099    -0.08322124
     52      1      O          -0.02424032    -0.10145330     0.03964403
     53      2      H           0.09211598    -0.07368344    -0.02216393
     54      2      H          -0.09002957     0.04180424     0.06224342
     55      1      O          -0.02797349    -0.12272137    -0.03671694
     56      2      H           0.01141237     0.01567251    -0.10634186
     57      2      H          -0.01281833     0.06421700     0.03265671
     58      1      O           0.04175024     0.13357771    -0.00417689
     59      2      H          -0.08375860    -0.04135713    -0.06427620
     60      2      H           0.07263650    -0.09396459     0.01478641
     61      1      O          -0.15855853    -0.01526876    -0.14489222
     62      2      H           0.05212914     0.02948061     0.05099563
     63      2      H           0.05021212    -0.11831999     0.03835395
     64      1      O          -0.02792882     0.06523806     0.10549764
     65      2      H          -0.03787349     0.04395191     0.01563290
     66      2      H           0.02411853     0.01454137    -0.06910994
     67      1      O           0.16167914     0.10709289     0.00326834
     68      2      H          -0.06669113     0.07429118     0.04355885
     69      2      H          -0.05058214    -0.00546788     0.01073410
     70      1      O           0.06797550     0.09769844     0.14360240
     71      2      H           0.09707994     0.04189855    -0.04860924
     72      2      H          -0.03183651    -0.08987595    -0.01292158
     73      1      O          -0.11627549     0.09430362    -0.00828499
     74      2      H           0.05374887    -0.03009946    -0.05951092
     75      2      H           0.00938200    -0.08628962     0.04364071
     76      1      O          -0.07474699    -0.09900439    -0.12904522
     77      2      H           0.07044065    -0.05658692     0.05212742
     78      2      H          -0.00057045     0.14558222     0.00325470
     79      1      O           0.03380991     0.13760275    -0.13988229
     80      2      H           0.08586657     0.00137999     0.06869793
     81      2      H          -0.06944788    -0.08807816     0.00529437
     82      1      O           0.13963765     0.00411664     0.02803523
     83      2      H          -0.04875600     0.05595193    -0.02684194
     84      2      H           0.00885743    -0.08249853    -0.00188276
     85      1      O          -0.07064476    -0.10377756     0.14729277
     86      2      H          -0.06222844     0.04345952    -0.09687376
     87      2      H           0.06735934     0.03779508    -0.04528180
     88      1      O           0.04737911    -0.08309566     0.02493189
     89      2      H          -0.01222796     0.03833376    -0.03460822
     90      2      H          -0.06023941     0.01407382     0.04593507
     91      1      O           0.04028972    -0.01946299     0.00372219
     92      2      H           0.06068677    -0.11942900     0.03939701
     93      2      H          -0.02459748     0.04229019     0.06970575
     94      1      O          -0.06823420    -0.08162475     0.04540114
     95      2      H           0.00850274     0.01340874    -0.02385144
     96      2      H          -0.02593527     0.05545808    -0.08166273
     97      1      O           0.06865420     0.09852462     0.01863013
     98      2      H          -0.06064583     0.01417245    -0.01167675
     99      2      H          -0.01140192    -0.07456872     0.02315453
    100      1      O          -0.17783041     0.12920536    -0.14439222
    101      2      H           0.03332387    -0.05572547    -0.03100198
    102      2      H           0.13744060     0.00128484     0.04875072
    103      1      O          -0.10748843    -0.08198921    -0.00440445
    104      2      H           0.03244935     0.00714993     0.00032743
    105      2      H           0.02725506     0.04143840    -0.02209538
    106      1      O          -0.15838678     0.09349333    -0.09398786
    107      2      H           0.02279829     0.01865570     0.08672374
    108      2      H           0.07801750    -0.06597823     0.00695165
    109      1      O          -0.01837717    -0.03810343    -0.04640453
    110      2      H          -0.00502140    -0.00136654     0.04653301
    111      2      H          -0.04423192     0.02815634     0.04996677
    112      1      O           0.10326583    -0.07356620     0.12426974
    113      2      H          -0.02477055     0.02051550    -0.02789147
    114      2      H          -0.00551366     0.02226916    -0.00940938
    115      1      O          -0.04076000     0.00871951     0.00387772
    116      2      H           0.00973014    -0.02259062     0.08979370
    117      2      H          -0.09399418    -0.04206005    -0.02854477
    118      1      O          -0.00440417    -0.02458295    -0.12356796
    119      2      H           0.10741051    -0.01385329     0.04930110
    120      2      H          -0.04107378     0.08088406     0.05926980
    121      1      O           0.03934630     0.08712983    -0.14775303
    122      2      H           0.05104646    -0.02252736     0.06414193
    123      2      H          -0.04646578     0.02263828     0.01786876
    124      1      O           0.08014750    -0.07562049     0.00140045
    125      2      H           0.03077062    -0.03509646     0.05709987
    126      2      H           0.00670530     0.08150954     0.00278992
    127      1      O           0.09511308    -0.05920426     0.02402540
    128      2      H          -0.03588750    -0.05517474    -0.02347563
    129      2      H           0.00637034     0.06458715    -0.05635227
    130      1      O           0.09557195     0.03908731    -0.10623064
    131      2      H          -0.04618406     0.03081545    -0.05520784
    132      2      H          -0.08274216     0.02771494     0.10491254
    133      1      O           0.09394077    -0.17004046    -0.13813421
    134      2      H           0.00922609     0.06520346     0.00267247
    135      2      H          -0.02945104     0.02368739     0.06314407
    136      1      O           0.29941151    -0.16082194     0.01686155
    137      2      H          -0.05341117     0.01186763     0.03326269
    138      2      H          -0.28205596     0.15282313    -0.03751973
    139      1      O          -0.07118188    -0.03792322     0.02682690
    140      2      H           0.00310038     0.03978863     0.03939847
    141      2      H          -0.02599203    -0.06752464    -0.07019419
    142      1      O           0.08730133     0.02585179     0.02674006
    143      2      H          -0.00839591    -0.09120941    -0.02583938
    144      2      H          -0.16974056    -0.05442042    -0.04411533
    145      1      O           0.06495232     0.00712622    -0.04735169
    146      2      H          -0.01921927    -0.03546528    -0.08440047
    147      2      H           0.00954234    -0.04870840     0.09635075
    148      1      O          -0.09011186     0.02377665     0.02375687
    149      2      H          -0.00175734     0.09580473    -0.00165270
    150      2      H           0.07483133     0.02779079     0.03464275
    151      1      O          -0.00056178     0.04754734     0.06033448
    152      2      H           0.07886046    -0.06030485     0.02867646
    153      2      H           0.01610088    -0.06517520    -0.03673596
    154      1      O           0.02761274    -0.06697176    -0.03907735
    155      2      H          -0.07918012    -0.02978676    -0.04415176
    156      2      H           0.04855541     0.05368776     0.00473362
    157      1      O           0.16203162     0.08599298    -0.05233419
    158      2      H          -0.07226554     0.03785090     0.04541964
    159      2      H          -0.01519578    -0.02521107    -0.09159609
    160      1      O          -0.18302282    -0.05681537    -0.11433771
    161      2      H           0.01738866    -0.05220609     0.06791678
    162      2      H           0.09526780     0.02615769    -0.02325022
    163      1      O           0.10142313    -0.05259893    -0.00743735
    164      2      H           0.02099890     0.06324010    -0.05470683
    165      2      H          -0.02411604    -0.09174316     0.02887910
    166      1      O          -0.04999061     0.07182407     0.05291467
    167      2      H          -0.07514902     0.02469428     0.02184024
    168      2      H           0.03057631     0.00711013     0.03641049
    169      1      O          -0.15804406     0.09192020    -0.14210207
    170      2      H           0.05153721    -0.08930659    -0.03827256
    171      2      H           0.00643978     0.06604416     0.05074551
    172      1      O           0.01361362     0.02923509    -0.04824442
    173      2      H          -0.05533451    -0.03034860    -0.10221836
    174      2      H          -0.07109439     0.00384740     0.02922717
    175      1      O           0.16614094     0.00408951     0.13907094
    176      2      H          -0.04314135     0.02324836    -0.02039973
    177      2      H          -0.05460098    -0.09555991    -0.03197353
    178      1      O          -0.05887397    -0.07837339     0.04922501
    179      2      H           0.09017765    -0.08751899     0.03728249
    180      2      H          -0.09770599    -0.01743184     0.01734646
    181      1      O          -0.14157328     0.07209948     0.04986369
    182      2      H          -0.03957650     0.08672648    -0.01772784
    183      2      H           0.00302157     0.00212771     0.00206859
    184      1      O           0.05731808     0.10052462     0.12390705
    185      2      H          -0.02729791    -0.02866760    -0.01048874
    186      2      H           0.04571840    -0.06652144    -0.02205373
    187      1      O           0.06285704    -0.13557651     0.09103826
    188      2      H          -0.03637647     0.03702810     0.04319942
    189      2      H          -0.05903326    -0.02526927    -0.04912567
    190      1      O          -0.09222544    -0.00447697    -0.04666610
    191      2      H           0.03478740     0.07196869    -0.09343896
    192      2      H          -0.00603540     0.01055593     0.01471946
 SUM OF ATOMIC FORCES          -1.11223977    -0.14100061     0.26353465     1.15169830

 -------------------------------------------------------------------------------
 -                                                                             -
 -                                DBCSR STATISTICS                             -
 -                                                                             -
 -------------------------------------------------------------------------------
 COUNTER                                    TOTAL       BLAS       SMM       ACC
 flops     5 x     5 x   256           4573273600       0.0%    100.0%      0.0%
 flops     5 x    13 x   256           5369262080       0.0%    100.0%      0.0%
 flops    13 x     5 x   256           5679797760       0.0%    100.0%      0.0%
 flops    13 x    13 x   256           7526984192       0.0%    100.0%      0.0%
 flops inhomo. stacks                           0       0.0%      0.0%      0.0%
 flops total                        23.149318E+09       0.0%    100.0%      0.0%
 flops max/rank                     23.149318E+09       0.0%    100.0%      0.0%
 matmuls inhomo. stacks                         0       0.0%      0.0%      0.0%
 matmuls total                             776279       0.0%    100.0%      0.0%
 number of processed stacks                 42140       0.0%    100.0%      0.0%
 average stack size                                     0.0      18.4       0.0
 marketing flops                   333.927416E+09
 -------------------------------------------------------------------------------
 # multiplications                            301
 max memory usage/rank               5.025370E+09
 # max total images/rank                        1
 # max 3D layers                                1
 # MPI messages exchanged                       0
 MPI messages size (bytes):
  total size                         0.000000E+00
  min size                           0.000000E+00
  max size                           0.000000E+00
  average size                       0.000000E+00
 MPI breakdown and total messages size (bytes):
             size <=      128                   0                        0
       128 < size <=     8192                   0                        0
      8192 < size <=    32768                   0                        0
     32768 < size <=   131072                   0                        0
    131072 < size <=  4194304                   0                        0
   4194304 < size <= 16777216                   0                        0
  16777216 < size                               0                        0
 -------------------------------------------------------------------------------

 MEMORY| Estimated peak process memory [MiB]                                4787

 -------------------------------------------------------------------------------
 -                                                                             -
 -                           R E F E R E N C E S                               -
 -                                                                             -
 -------------------------------------------------------------------------------
 
 CP2K version 7.1, the CP2K developers group (2019).
 CP2K is freely available from https://www.cp2k.org/ .

 Schuett, Ole; Messmer, Peter; Hutter, Juerg; VandeVondele, Joost. 
 Electronic Structure Calculations on Graphics Processing Units, John
 Wiley & Sons, Ltd, 173-190 (2016). 
 GPU-Accelerated Sparse Matrix-Matrix Multiplication for
 Linear Scaling Density Functional Theory.
 https://dx.doi.org/10.1002/9781118670712.ch8

 Borstnik, U; VandeVondele, J; Weber, V; Hutter, J. 
 PARALLEL COMPUTING, 40 (5-6), 47-58 (2014). 
 Sparse matrix multiplication: The distributed block-compressed sparse
 row library.
 https://dx.doi.org/10.1016/j.parco.2014.03.012

 Hutter, J; Iannuzzi, M; Schiffmann, F; VandeVondele, J. 
 WIREs Comput Mol Sci., 4 (1), 15-25 (2014). 
 CP2K: atomistic simulations of condensed matter systems.
 https://dx.doi.org/10.1002/wcms.1159

 Krack, M. 
 THEORETICAL CHEMISTRY ACCOUNTS, 114 (1-3), 145-152 (2005). 
 Pseudopotentials for H to Kr optimized for gradient-corrected
 exchange-correlation functionals.
 https://dx.doi.org/10.1007/s00214-005-0655-y

 VandeVondele, J; Krack, M; Mohamed, F; Parrinello, M; Chassaing, T;
 Hutter, J. COMPUTER PHYSICS COMMUNICATIONS, 167 (2), 103-128 (2005). 
 QUICKSTEP: Fast and accurate density functional calculations using a
 mixed Gaussian and plane waves approach.
 https://dx.doi.org/10.1016/j.cpc.2004.12.014

 Frigo, M; Johnson, SG. 
 PROCEEDINGS OF THE IEEE, 93 (2), 216-231 (2005). 
 The design and implementation of FFTW3.
 https://dx.doi.org/10.1109/JPROC.2004.840301

 Hartwigsen, C; Goedecker, S; Hutter, J. 
 PHYSICAL REVIEW B, 58 (7), 3641-3662 (1998). 
 Relativistic separable dual-space Gaussian pseudopotentials from H to Rn.
 https://dx.doi.org/10.1103/PhysRevB.58.3641

 Lippert, G; Hutter, J; Parrinello, M. 
 MOLECULAR PHYSICS, 92 (3), 477-487 (1997). 
 A hybrid Gaussian and plane wave density functional scheme.
 https://dx.doi.org/10.1080/002689797170220

 Goedecker, S; Teter, M; Hutter, J. 
 PHYSICAL REVIEW B, 54 (3), 1703-1710 (1996). 
 Separable dual-space Gaussian pseudopotentials.
 https://dx.doi.org/10.1103/PhysRevB.54.1703


 -------------------------------------------------------------------------------
 -                                                                             -
 -                                T I M I N G                                  -
 -                                                                             -
 -------------------------------------------------------------------------------
 SUBROUTINE                       CALLS  ASD         SELF TIME        TOTAL TIME
                                MAXIMUM       AVERAGE  MAXIMUM  AVERAGE  MAXIMUM
 CP2K                                 1  1.0    0.166    0.166 2807.360 2807.360
 qs_forces                            1  2.0    0.000    0.000 2805.181 2805.181
 qs_energies                          1  3.0    0.000    0.000 2804.476 2804.476
 scf_env_do_scf                       1  4.0    0.001    0.001 2802.078 2802.078
 scf_env_do_scf_inner_loop          300  5.0    0.060    0.060 2802.078 2802.078
 qs_scf_new_mos                     300  6.0    0.009    0.009 1965.607 1965.607
 eigensolver                        300  7.0    0.049    0.049 1934.699 1934.699
 cp_fm_syevd                        300  8.0 1259.075 1259.075 1260.812 1260.812
 cp_fm_cholesky_restore             900  8.0  672.780  672.780  672.780  672.780
 gspace_mixing                      299  6.0    6.772    6.772  466.369  466.369
 broyden_mixing                     299  7.0  422.000  422.000  422.003  422.003
 rebuild_ks_matrix                  301  7.0    0.001    0.001  189.915  189.915
 qs_ks_build_kohn_sham_matrix       301  8.0    0.070    0.070  189.914  189.914
 qs_ks_update_qs_env                300  6.0    0.003    0.003  189.645  189.645
 pw_transfer                       3912  9.9    0.333    0.333  183.908  183.908
 qs_rho_update_rho                  301  6.0    0.004    0.004  179.512  179.512
 calculate_rho_elec                 301  7.0   85.939   85.939  179.508  179.508
 fft_wrap_pw1pw2                   3310 10.9    0.033    0.033  178.501  178.501
 fft_wrap_pw1pw2_70                1504 11.2   18.793   18.793  162.821  162.821
 density_rs2pw                      301  8.0    0.030    0.030   90.874   90.874
 fft3d_s                           3311 12.9   82.282   82.282   82.308   82.308
 pw_scatter_s                      1804 13.2   61.057   61.057   61.057   61.057
 pw_poisson_solve                   301  9.0   53.794   53.794   58.974   58.974
 -------------------------------------------------------------------------------

 The number of warnings for this run is : 1
 
 -------------------------------------------------------------------------------
  **** **** ******  **  PROGRAM ENDED AT                 2021-02-26 00:08:08.865
 ***** ** ***  *** **   PROGRAM RAN ON                                   gnode75
 **    ****   ******    PROGRAM RAN BY                               mayank.modi
 ***** **    ** ** **   PROGRAM PROCESS ID                                 30948
  **** **  *******  **  PROGRAM STOPPED IN /home/mayank.modi/ab-initio-thermodyn
                                           amics-of-water/mayank/cp2k_energy_cal
                                           culations
