 DBCSR| CPU Multiplication driver                                           XSMM
 DBCSR| Multrec recursion limit                                              512
 DBCSR| Multiplication stack size                                           1000
 DBCSR| Maximum elements for images                                    UNLIMITED
 DBCSR| Multiplicative factor virtual images                                   1
 DBCSR| Use multiplication densification                                       T
 DBCSR| Multiplication size stacks                                             3


  **** **** ******  **  PROGRAM STARTED AT               2021-01-12 07:02:09.054
 ***** ** ***  *** **   PROGRAM STARTED ON                               gnode23
 **    ****   ******    PROGRAM STARTED BY                           mayank.modi
 ***** **    ** ** **   PROGRAM PROCESS ID                                 26321
  **** **  *******  **  PROGRAM STARTED IN /home/mayank.modi/ab-initio-thermodyn
                                           amics-of-water/mayank/cp2k_energy_cal
                                           culations

 CP2K| version string:                                          CP2K version 7.1
 CP2K| source code revision number:                                  git:e635599
 CP2K| cp2kflags: omp libint fftw3 libxc xsmm spglib                            
 CP2K| is freely available from                            https://www.cp2k.org/
 CP2K| Program compiled at                          Mon Dec 23 19:23:12 CET 2019
 CP2K| Program compiled on                                                pc9404
 CP2K| Program compiled for                                Linux-x86-64-gfortran
 CP2K| Data directory path                                        /opt/cp2k/data
 CP2K| Input file name                   input_training_correct_cell/input280.in

 GLOBAL| Force Environment number                                              1
 GLOBAL| Basis set file name                                           BASIS_SET
 GLOBAL| Potential file name                                      GTH_POTENTIALS
 GLOBAL| MM Potential file name                                     MM_POTENTIAL
 GLOBAL| Coordinate file name                                      __STD_INPUT__
 GLOBAL| Method name                                                        CP2K
 GLOBAL| Project name                                                   H2O_bulk
 GLOBAL| Preferred FFT library                                             FFTW3
 GLOBAL| Preferred diagonalization lib.                                       SL
 GLOBAL| Run type                                                   ENERGY_FORCE
 GLOBAL| All-to-all communication in single precision                          F
 GLOBAL| FFTs using library dependent lengths                                  F
 GLOBAL| Global print level                                                  LOW
 GLOBAL| MPI I/O enabled                                                       T
 GLOBAL| Total number of message passing processes                             1
 GLOBAL| Number of threads for this process                                   36
 GLOBAL| This output is from process                                           0
 GLOBAL| CPU model name                Intel(R) Xeon(R) CPU E5-2640 v4 @ 2.40GHz
 GLOBAL| CPUID                                                              1002
 GLOBAL| Compiled for CPUID                                                    0

 MEMORY| system memory details [Kb]
 MEMORY|                        rank 0           min           max       average
 MEMORY| MemTotal            131897972     131897972     131897972     131897972
 MEMORY| MemFree             125521684     125521684     125521684     125521684
 MEMORY| Buffers               1897624       1897624       1897624       1897624
 MEMORY| Cached                1389012       1389012       1389012       1389012
 MEMORY| Slab                  2616496       2616496       2616496       2616496
 MEMORY| SReclaimable          1585008       1585008       1585008       1585008
 MEMORY| MemLikelyFree       130393328     130393328     130393328     130393328


 GENERATE|  Preliminary Number of Bonds generated:                             0
 GENERATE|  Achieved consistency in connectivity generation.

 *******************************************************************************
 *******************************************************************************
 **                                                                           **
 **     #####                         ##              ##                      **
 **    ##   ##            ##          ##              ##                      **
 **   ##     ##                       ##            ######                    **
 **   ##     ##  ##   ##  ##   #####  ##  ##   ####   ##    #####    #####    **
 **   ##     ##  ##   ##  ##  ##      ## ##   ##      ##   ##   ##  ##   ##   **
 **   ##  ## ##  ##   ##  ##  ##      ####     ###    ##   ######   ######    **
 **    ##  ###   ##   ##  ##  ##      ## ##      ##   ##   ##       ##        **
 **     #######   #####   ##   #####  ##  ##  ####    ##    #####   ##        **
 **           ##                                                    ##        **
 **                                                                           **
 **                                                ... make the atoms dance   **
 **                                                                           **
 **            Copyright (C) by CP2K developers group (2000 - 2019)           **
 **                                                                           **
 *******************************************************************************


 TOTAL NUMBERS AND MAXIMUM NUMBERS

  Total number of            - Atomic kinds:                                   2
                             - Atoms:                                        192
                             - Shell sets:                                   384
                             - Shells:                                       704
                             - Primitive Cartesian functions:                960
                             - Cartesian basis functions:                   1536
                             - Spherical basis functions:                   1472

  Maximum angular momentum of- Orbital basis functions:                        2
                             - Local part of the GTH pseudopotential:          2
                             - Non-local part of the GTH pseudopotential:      0


 SCF PARAMETERS         Density guess:                                    ATOMIC
                        --------------------------------------------------------
                        max_scf:                                             300
                        max_scf_history:                                       0
                        max_diis:                                              4
                        --------------------------------------------------------
                        eps_scf:                                        1.00E-07
                        eps_scf_history:                                0.00E+00
                        eps_diis:                                       1.00E-01
                        eps_eigval:                                     1.00E-05
                        --------------------------------------------------------
                        level_shift [a.u.]:                                 0.00
                        --------------------------------------------------------
                        Mixing method:                            BROYDEN_MIXING
                                                charge density mixing in g-space
                        --------------------------------------------------------
                        No outer SCF

 Number of electrons:                                                        512
 Number of occupied orbitals:                                                256
 Number of molecular orbitals:                                               256

 Number of orbital functions:                                               1472
 Number of independent orbital functions:                                   1472

 Extrapolation method: initial_guess


 SCF WAVEFUNCTION OPTIMIZATION

  Step     Update method      Time    Convergence         Total energy    Change
  ------------------------------------------------------------------------------
     1 NoMix/Diag. 0.40E+00    7.2     0.62536230     -1064.4018701132 -1.06E+03
     2 Broy./Diag. 0.40E+00    7.7     1.94733530      -998.4856314099  6.59E+01
     3 Broy./Diag. 0.40E+00    8.1     1.97699226     -1255.0797429875 -2.57E+02
     4 Broy./Diag. 0.40E+00    8.0     1.19437836     -1111.4462625192  1.44E+02
     5 Broy./Diag. 0.40E+00    8.1     1.70846543     -1094.4521619027  1.70E+01
     6 Broy./Diag. 0.40E+00    8.1     1.83839085     -1094.8128310328 -3.61E-01
     7 Broy./Diag. 0.40E+00    8.2     1.36724493     -1096.5187889349 -1.71E+00
     8 Broy./Diag. 0.40E+00    8.4     1.37673825     -1083.7100860637  1.28E+01
     9 Broy./Diag. 0.40E+00    9.0     1.76589346     -1078.8018585002  4.91E+00
    10 Broy./Diag. 0.40E+00    9.5     1.83219600     -1078.5135125577  2.88E-01
    11 Broy./Diag. 0.40E+00    9.2     0.19498973     -1074.1173208607  4.40E+00
    12 Broy./Diag. 0.40E+00    9.3     1.36660360     -1073.7941142912  3.23E-01
    13 Broy./Diag. 0.40E+00    9.5     1.60046075     -1076.1324432769 -2.34E+00
    14 Broy./Diag. 0.40E+00    9.4     1.77520225     -1075.5052137395  6.27E-01
    15 Broy./Diag. 0.40E+00    9.3     1.79555574     -1075.9604597791 -4.55E-01
    16 Broy./Diag. 0.40E+00    9.6     1.15550931     -1077.3321164912 -1.37E+00
    17 Broy./Diag. 0.40E+00    9.3     1.79867847     -1078.2370084051 -9.05E-01
    18 Broy./Diag. 0.40E+00    9.0     1.80113411     -1075.5252133265  2.71E+00
    19 Broy./Diag. 0.40E+00    9.2     1.20807644     -1078.2184955191 -2.69E+00
    20 Broy./Diag. 0.40E+00    9.0     1.58615517     -1075.1628894754  3.06E+00
    21 Broy./Diag. 0.40E+00    9.4     1.56851461     -1078.0989225772 -2.94E+00
    22 Broy./Diag. 0.40E+00    9.3     1.80198057     -1075.9572042021  2.14E+00
    23 Broy./Diag. 0.40E+00    9.6     1.81438608     -1078.2421658452 -2.28E+00
    24 Broy./Diag. 0.40E+00    9.5     1.26672724     -1077.7505254558  4.92E-01
    25 Broy./Diag. 0.40E+00    9.3     0.91404029     -1075.3789377174  2.37E+00
    26 Broy./Diag. 0.40E+00    9.0     0.90890776     -1077.1161387616 -1.74E+00
    27 Broy./Diag. 0.40E+00    9.5     1.32933949     -1075.3870415373  1.73E+00
    28 Broy./Diag. 0.40E+00    9.3     1.39206082     -1077.1838016588 -1.80E+00
    29 Broy./Diag. 0.40E+00    9.5     1.51325420     -1076.9042109745  2.80E-01
    30 Broy./Diag. 0.40E+00    9.5     1.32385466     -1076.2295174471  6.75E-01
    31 Broy./Diag. 0.40E+00    9.6     1.59831460     -1077.4595840713 -1.23E+00
    32 Broy./Diag. 0.40E+00    9.4     1.69280362     -1077.0857756482  3.74E-01
    33 Broy./Diag. 0.40E+00    9.3     1.71590609     -1076.8149928855  2.71E-01
    34 Broy./Diag. 0.40E+00    9.3     1.37273137     -1075.0786509310  1.74E+00
    35 Broy./Diag. 0.40E+00    9.3     1.38274717     -1078.7115364909 -3.63E+00
    36 Broy./Diag. 0.40E+00    9.5     1.56933308     -1074.9939455302  3.72E+00
    37 Broy./Diag. 0.40E+00    9.4     1.15087614     -1076.6790847594 -1.69E+00
    38 Broy./Diag. 0.40E+00    9.5     1.59521569     -1077.2602279109 -5.81E-01
    39 Broy./Diag. 0.40E+00    9.2     1.30402220     -1077.1003437076  1.60E-01
    40 Broy./Diag. 0.40E+00    9.2     1.19299478     -1076.6700978529  4.30E-01
    41 Broy./Diag. 0.40E+00    9.5     0.63618840     -1076.6315818505  3.85E-02
    42 Broy./Diag. 0.40E+00    9.4     1.13363194     -1076.9665539143 -3.35E-01
    43 Broy./Diag. 0.40E+00    9.3     1.80389888     -1075.1168327772  1.85E+00
    44 Broy./Diag. 0.40E+00    9.3     1.81309175     -1078.5885110974 -3.47E+00
    45 Broy./Diag. 0.40E+00    9.2     1.13304569     -1077.2834974550  1.31E+00
    46 Broy./Diag. 0.40E+00    9.6     1.20401708     -1076.6223512075  6.61E-01
    47 Broy./Diag. 0.40E+00    9.6     0.08755017     -1074.9346181213  1.69E+00
    48 Broy./Diag. 0.40E+00    9.2     1.31856377     -1075.2385233123 -3.04E-01
    49 Broy./Diag. 0.40E+00    9.4     1.80506509     -1078.5997591200 -3.36E+00
    50 Broy./Diag. 0.40E+00    9.5     1.81024982     -1078.7069445033 -1.07E-01
    51 Broy./Diag. 0.40E+00    9.4     0.15192099     -1074.9152241316  3.79E+00
    52 Broy./Diag. 0.40E+00    9.6     0.10456712     -1075.2899965688 -3.75E-01
    53 Broy./Diag. 0.40E+00    9.3     1.62132507     -1075.1427707626  1.47E-01
    54 Broy./Diag. 0.40E+00    9.5     1.79806973     -1076.5292859066 -1.39E+00
    55 Broy./Diag. 0.40E+00    9.5     1.80434605     -1077.0403442475 -5.11E-01
    56 Broy./Diag. 0.40E+00    9.3     1.19018925     -1076.9958055336  4.45E-02
    57 Broy./Diag. 0.40E+00    9.5     1.20578722     -1077.3292693797 -3.33E-01
    58 Broy./Diag. 0.40E+00    9.5     1.60249335     -1074.6571505753  2.67E+00
    59 Broy./Diag. 0.40E+00    9.3     1.59685821     -1077.4645659384 -2.81E+00
    60 Broy./Diag. 0.40E+00    9.5     1.11277276     -1076.8900457692  5.75E-01
    61 Broy./Diag. 0.40E+00    9.5     1.70086717     -1078.3827381361 -1.49E+00
    62 Broy./Diag. 0.40E+00    9.2     1.04488733     -1076.4096509575  1.97E+00
    63 Broy./Diag. 0.40E+00    9.0     1.05264681     -1077.3485992614 -9.39E-01
    64 Broy./Diag. 0.40E+00    9.2     0.07940096     -1075.7466313862  1.60E+00
    65 Broy./Diag. 0.40E+00    8.9     0.93241914     -1074.1702504826  1.58E+00
    66 Broy./Diag. 0.40E+00    9.0     1.21879083     -1076.7329861666 -2.56E+00
    67 Broy./Diag. 0.40E+00    9.5     1.16977804     -1077.1004216986 -3.67E-01
    68 Broy./Diag. 0.40E+00    9.4     1.80934387     -1075.3108786494  1.79E+00
    69 Broy./Diag. 0.40E+00    9.4     1.81826461     -1078.6390005376 -3.33E+00
    70 Broy./Diag. 0.40E+00    9.4     1.38786718     -1078.4842029637  1.55E-01
    71 Broy./Diag. 0.40E+00    9.4     1.01199947     -1075.1646675854  3.32E+00
    72 Broy./Diag. 0.40E+00    9.2     1.01012405     -1076.7809187742 -1.62E+00
    73 Broy./Diag. 0.40E+00    9.3     1.08214081     -1075.0524687704  1.73E+00
    74 Broy./Diag. 0.40E+00    9.5     1.61130045     -1077.1875471077 -2.14E+00
    75 Broy./Diag. 0.40E+00    9.4     1.71697990     -1076.5853885738  6.02E-01
    76 Broy./Diag. 0.40E+00    9.6     1.74138105     -1077.0404159172 -4.55E-01
    77 Broy./Diag. 0.40E+00    9.5     0.97251394     -1076.8150465367  2.25E-01
    78 Broy./Diag. 0.40E+00    9.2     1.28628601     -1077.1067680385 -2.92E-01
    79 Broy./Diag. 0.40E+00    9.0     1.04226753     -1076.7681969467  3.39E-01
    80 Broy./Diag. 0.40E+00    9.3     0.92133077     -1075.0444987067  1.72E+00
    81 Broy./Diag. 0.40E+00    9.2     1.05732065     -1076.5931499851 -1.55E+00
    82 Broy./Diag. 0.40E+00    9.6     1.58121797     -1076.7661326374 -1.73E-01
    83 Broy./Diag. 0.40E+00    9.5     1.63962691     -1077.2157085206 -4.50E-01
    84 Broy./Diag. 0.40E+00    9.5     1.68364349     -1076.4771443289  7.39E-01
    85 Broy./Diag. 0.40E+00    9.3     1.20633854     -1076.5651788069 -8.80E-02
    86 Broy./Diag. 0.40E+00    9.6     1.38661917     -1074.9387420385  1.63E+00
    87 Broy./Diag. 0.40E+00    9.4     1.78171879     -1077.0140618827 -2.08E+00
    88 Broy./Diag. 0.40E+00    9.4     1.36298432     -1077.5156272682 -5.02E-01
    89 Broy./Diag. 0.40E+00    9.4     1.30067219     -1076.5819047247  9.34E-01
    90 Broy./Diag. 0.40E+00    9.6     0.96403946     -1076.5326299273  4.93E-02
    91 Broy./Diag. 0.40E+00    9.3     1.08934445     -1075.4437907592  1.09E+00
    92 Broy./Diag. 0.40E+00    9.7     1.09141255     -1075.9222967470 -4.79E-01
    93 Broy./Diag. 0.40E+00    9.9     1.14243978     -1076.8173115047 -8.95E-01
    94 Broy./Diag. 0.40E+00    9.5     1.15423475     -1077.1193008784 -3.02E-01
    95 Broy./Diag. 0.40E+00    9.5     1.04548914     -1074.6485638444  2.47E+00
    96 Broy./Diag. 0.40E+00    9.2     1.22331168     -1077.0649658398 -2.42E+00
    97 Broy./Diag. 0.40E+00    9.5     1.34172823     -1077.1904299443 -1.25E-01
    98 Broy./Diag. 0.40E+00    9.3     1.04272046     -1076.5657917901  6.25E-01
    99 Broy./Diag. 0.40E+00    9.5     1.06496533     -1076.9926037865 -4.27E-01
   100 Broy./Diag. 0.40E+00    9.3     1.60593899     -1075.0186407644  1.97E+00
   101 Broy./Diag. 0.40E+00    9.4     1.68163790     -1076.1232092646 -1.10E+00
   102 Broy./Diag. 0.40E+00    9.6     1.73345510     -1076.5676983610 -4.44E-01
   103 Broy./Diag. 0.40E+00    9.4     1.40132191     -1078.9477606249 -2.38E+00
   104 Broy./Diag. 0.40E+00    9.4     1.02073489     -1075.5131697961  3.43E+00
   105 Broy./Diag. 0.40E+00    9.6     1.19987261     -1076.5806030636 -1.07E+00
   106 Broy./Diag. 0.40E+00    9.5     1.81336329     -1076.6363883558 -5.58E-02
   107 Broy./Diag. 0.40E+00    9.5     1.83255287     -1078.6613212547 -2.02E+00
   108 Broy./Diag. 0.40E+00    9.4     1.85307157     -1075.5860241135  3.08E+00
   109 Broy./Diag. 0.40E+00    9.4     1.37056879     -1074.0385469421  1.55E+00
   110 Broy./Diag. 0.40E+00    9.2     0.96203562     -1077.4800194780 -3.44E+00
   111 Broy./Diag. 0.40E+00    9.0     1.12604237     -1077.7777846166 -2.98E-01
   112 Broy./Diag. 0.40E+00    8.7     1.41781164     -1076.7870387691  9.91E-01
   113 Broy./Diag. 0.40E+00    9.0     1.53018910     -1077.3275619783 -5.41E-01
   114 Broy./Diag. 0.40E+00    9.3     1.36570313     -1074.5347134629  2.79E+00
   115 Broy./Diag. 0.40E+00    9.0     1.38379347     -1078.4499268826 -3.92E+00
   116 Broy./Diag. 0.40E+00    9.0     1.80522239     -1075.4757951590  2.97E+00
   117 Broy./Diag. 0.40E+00    9.4     1.81259547     -1078.0059710412 -2.53E+00
   118 Broy./Diag. 0.40E+00    9.4     1.44363887     -1075.1378960802  2.87E+00
   119 Broy./Diag. 0.40E+00    9.2     1.46311937     -1077.1054046737 -1.97E+00
   120 Broy./Diag. 0.40E+00    9.1     1.71930305     -1076.7154296128  3.90E-01
   121 Broy./Diag. 0.40E+00    9.2     1.14045116     -1077.1290296075 -4.14E-01
   122 Broy./Diag. 0.40E+00    9.0     1.56219117     -1077.3839722397 -2.55E-01
   123 Broy./Diag. 0.40E+00    9.0     1.57403973     -1076.7212257545  6.63E-01
   124 Broy./Diag. 0.40E+00    9.4     1.37843553     -1074.6695675578  2.05E+00
   125 Broy./Diag. 0.40E+00    9.4     1.38314607     -1079.0462098055 -4.38E+00
   126 Broy./Diag. 0.40E+00    9.5     0.88848366     -1077.8401054082  1.21E+00
   127 Broy./Diag. 0.40E+00    9.8     1.81357758     -1075.2960134522  2.54E+00
   128 Broy./Diag. 0.40E+00    9.2     1.81711421     -1078.1833729966 -2.89E+00
   129 Broy./Diag. 0.40E+00    9.7     1.28083093     -1076.4454174326  1.74E+00
   130 Broy./Diag. 0.40E+00    9.7     0.64700118     -1076.8955690502 -4.50E-01
   131 Broy./Diag. 0.40E+00    9.5     0.91518386     -1076.8505546043  4.50E-02
   132 Broy./Diag. 0.40E+00    9.4     1.18186844     -1077.4038673312 -5.53E-01
   133 Broy./Diag. 0.40E+00    9.3     1.04085382     -1075.3439431232  2.06E+00
   134 Broy./Diag. 0.40E+00    9.7     1.22642497     -1076.4708346714 -1.13E+00
   135 Broy./Diag. 0.40E+00    9.3     1.22679071     -1076.8437609202 -3.73E-01
   136 Broy./Diag. 0.40E+00    9.6     1.80764420     -1075.0233092125  1.82E+00
   137 Broy./Diag. 0.40E+00    9.2     1.81250285     -1079.1254967024 -4.10E+00
   138 Broy./Diag. 0.40E+00    9.4     1.37365706     -1077.1900468993  1.94E+00
   139 Broy./Diag. 0.40E+00    9.3     1.04863990     -1076.5409369286  6.49E-01
   140 Broy./Diag. 0.40E+00    9.6     1.80427935     -1077.4348372719 -8.94E-01
   141 Broy./Diag. 0.40E+00    9.5     1.22636149     -1077.0057302529  4.29E-01
   142 Broy./Diag. 0.40E+00    9.3     1.05881179     -1075.0746192354  1.93E+00
   143 Broy./Diag. 0.40E+00    9.3     1.04217045     -1076.2774942243 -1.20E+00
   144 Broy./Diag. 0.40E+00    9.7     0.10383168     -1074.9465058302  1.33E+00
   145 Broy./Diag. 0.40E+00    9.5     1.34530874     -1075.2476492300 -3.01E-01
   146 Broy./Diag. 0.40E+00    9.5     1.79788718     -1078.6960203037 -3.45E+00
   147 Broy./Diag. 0.40E+00    9.3     1.81723938     -1078.5762602314  1.20E-01
   148 Broy./Diag. 0.40E+00    9.3     1.81605762     -1075.2601411604  3.32E+00
   149 Broy./Diag. 0.40E+00    9.4     1.81940558     -1078.3381875537 -3.08E+00
   150 Broy./Diag. 0.40E+00    9.3     1.25392385     -1074.9594565982  3.38E+00
   151 Broy./Diag. 0.40E+00    9.6     1.16801544     -1077.5691788012 -2.61E+00
   152 Broy./Diag. 0.40E+00    9.4     1.10951001     -1076.8501495253  7.19E-01
   153 Broy./Diag. 0.40E+00    9.4     0.71223525     -1077.3070883757 -4.57E-01
   154 Broy./Diag. 0.40E+00    9.8     1.34807238     -1076.3153742583  9.92E-01
   155 Broy./Diag. 0.40E+00    9.4     0.10471908     -1074.8689447273  1.45E+00
   156 Broy./Diag. 0.40E+00    9.7     1.55986799     -1075.4512318227 -5.82E-01
   157 Broy./Diag. 0.40E+00    9.5     1.71772531     -1077.0224528702 -1.57E+00
   158 Broy./Diag. 0.40E+00    9.4     1.81512199     -1078.5880684236 -1.57E+00
   159 Broy./Diag. 0.40E+00    9.3     1.25214005     -1075.3726534581  3.22E+00
   160 Broy./Diag. 0.40E+00    9.3     1.38261077     -1078.6951631076 -3.32E+00
   161 Broy./Diag. 0.40E+00    9.1     1.06015583     -1075.1428545960  3.55E+00
   162 Broy./Diag. 0.40E+00    8.8     1.04801515     -1076.5601354577 -1.42E+00
   163 Broy./Diag. 0.40E+00    9.1     1.20044693     -1075.0777554381  1.48E+00
   164 Broy./Diag. 0.40E+00    9.4     1.18724908     -1077.2119182319 -2.13E+00
   165 Broy./Diag. 0.40E+00    9.7     1.80522854     -1075.2863224830  1.93E+00
   166 Broy./Diag. 0.40E+00    9.5     1.81214815     -1078.4214150881 -3.14E+00
   167 Broy./Diag. 0.40E+00    9.4     0.97318290     -1077.4458241793  9.76E-01
   168 Broy./Diag. 0.40E+00    9.3     0.94731901     -1077.2691095467  1.77E-01
   169 Broy./Diag. 0.40E+00    9.4     1.62359926     -1074.9871300145  2.28E+00
   170 Broy./Diag. 0.40E+00    9.5     1.80261506     -1076.9433806922 -1.96E+00
   171 Broy./Diag. 0.40E+00    9.4     1.81157562     -1077.2394596763 -2.96E-01
   172 Broy./Diag. 0.40E+00    9.5     1.62660954     -1076.2024655408  1.04E+00
   173 Broy./Diag. 0.40E+00    9.3     1.52796893     -1076.7695014571 -5.67E-01
   174 Broy./Diag. 0.40E+00    9.3     1.44815649     -1076.7881499087 -1.86E-02
   175 Broy./Diag. 0.40E+00    9.3     0.97364621     -1076.9663785444 -1.78E-01
   176 Broy./Diag. 0.40E+00    9.3     1.32246778     -1075.7002480086  1.27E+00
   177 Broy./Diag. 0.40E+00    9.6     1.40978258     -1078.1042395685 -2.40E+00
   178 Broy./Diag. 0.40E+00    9.5     1.38968247     -1074.9389447261  3.17E+00
   179 Broy./Diag. 0.40E+00    9.4     1.79333934     -1079.3338707625 -4.39E+00
   180 Broy./Diag. 0.40E+00    9.3     1.82108631     -1078.4426978818  8.91E-01
   181 Broy./Diag. 0.40E+00    9.3     1.14386506     -1076.4875000915  1.96E+00
   182 Broy./Diag. 0.40E+00    9.5     1.05132091     -1074.8412039704  1.65E+00
   183 Broy./Diag. 0.40E+00    9.4     1.05563523     -1077.2315967125 -2.39E+00
   184 Broy./Diag. 0.40E+00    9.5     1.61500900     -1075.1057404017  2.13E+00
   185 Broy./Diag. 0.40E+00    9.4     1.80282971     -1076.7855562452 -1.68E+00
   186 Broy./Diag. 0.40E+00    9.5     1.81247204     -1076.9859120453 -2.00E-01
   187 Broy./Diag. 0.40E+00    9.2     1.09504760     -1074.8156794284  2.17E+00
   188 Broy./Diag. 0.40E+00    9.1     1.58136465     -1076.9287349635 -2.11E+00
   189 Broy./Diag. 0.40E+00    9.3     1.58486947     -1077.3457240585 -4.17E-01
   190 Broy./Diag. 0.40E+00    9.2     1.08881726     -1076.7915359184  5.54E-01
   191 Broy./Diag. 0.40E+00    9.5     1.71270148     -1076.5381131378  2.53E-01
   192 Broy./Diag. 0.40E+00    9.7     1.39000763     -1076.5044310993  3.37E-02
   193 Broy./Diag. 0.40E+00    9.3     1.38799889     -1078.5358821919 -2.03E+00
   194 Broy./Diag. 0.40E+00    9.5     0.23982291     -1075.7436600299  2.79E+00
   195 Broy./Diag. 0.40E+00    9.4     1.81134237     -1074.3454304791  1.40E+00
   196 Broy./Diag. 0.40E+00    9.4     1.81582856     -1078.6851520639 -4.34E+00
   197 Broy./Diag. 0.40E+00    9.6     1.18055815     -1075.0890785709  3.60E+00
   198 Broy./Diag. 0.40E+00    9.3     0.95381421     -1077.3161883783 -2.23E+00
   199 Broy./Diag. 0.40E+00    9.5     1.11927016     -1077.1174378150  1.99E-01
   200 Broy./Diag. 0.40E+00    9.6     1.56171087     -1076.6738695035  4.44E-01
   201 Broy./Diag. 0.40E+00    9.4     1.72730160     -1077.0873711116 -4.14E-01
   202 Broy./Diag. 0.40E+00    9.3     1.77441053     -1076.9868536758  1.01E-01
   203 Broy./Diag. 0.40E+00    9.4     1.62321374     -1076.6362326014  3.51E-01
   204 Broy./Diag. 0.40E+00    9.4     0.59713335     -1075.1783363258  1.46E+00
   205 Broy./Diag. 0.40E+00    9.4     1.80788754     -1075.8235444972 -6.45E-01
   206 Broy./Diag. 0.40E+00    9.5     1.81205283     -1078.7602055943 -2.94E+00
   207 Broy./Diag. 0.40E+00    9.4     1.29280192     -1077.1184843042  1.64E+00
   208 Broy./Diag. 0.40E+00    9.6     1.00988228     -1076.2287193990  8.90E-01
   209 Broy./Diag. 0.40E+00    9.3     1.58051311     -1074.9348534293  1.29E+00
   210 Broy./Diag. 0.40E+00    9.3     1.57498591     -1076.8023066848 -1.87E+00
   211 Broy./Diag. 0.40E+00    9.2     0.94653160     -1075.2710760856  1.53E+00
   212 Broy./Diag. 0.40E+00    9.5     1.28768073     -1076.5467950400 -1.28E+00
   213 Broy./Diag. 0.40E+00    9.4     1.40704699     -1076.4880191186  5.88E-02
   214 Broy./Diag. 0.40E+00    9.5     1.36813085     -1077.0213751334 -5.33E-01
   215 Broy./Diag. 0.40E+00    9.4     1.37754070     -1077.0582499964 -3.69E-02
   216 Broy./Diag. 0.40E+00    9.3     1.40404634     -1075.0127700649  2.05E+00
   217 Broy./Diag. 0.40E+00    9.4     1.40254003     -1078.9161862851 -3.90E+00
   218 Broy./Diag. 0.40E+00    9.6     1.30716146     -1077.3596464800  1.56E+00
   219 Broy./Diag. 0.40E+00    9.2     1.16240774     -1076.7205815207  6.39E-01
   220 Broy./Diag. 0.40E+00    9.3     1.61158570     -1076.9622004035 -2.42E-01
   221 Broy./Diag. 0.40E+00    9.5     1.77948705     -1076.3847444972  5.77E-01
   222 Broy./Diag. 0.40E+00    9.7     1.80943443     -1076.6492841529 -2.65E-01
   223 Broy./Diag. 0.40E+00    9.6     1.05346860     -1075.0763901266  1.57E+00
   224 Broy./Diag. 0.40E+00    9.4     0.97151229     -1077.1719038413 -2.10E+00
   225 Broy./Diag. 0.40E+00    9.4     1.33933709     -1077.1558538629  1.60E-02
   226 Broy./Diag. 0.40E+00    9.3     1.11212209     -1075.2982315203  1.86E+00
   227 Broy./Diag. 0.40E+00    9.5     1.67572177     -1078.5439714201 -3.25E+00
   228 Broy./Diag. 0.40E+00    9.3     1.17043124     -1078.5187407663  2.52E-02
   229 Broy./Diag. 0.40E+00    9.3     0.87192709     -1077.0156236269  1.50E+00
   230 Broy./Diag. 0.40E+00    9.7     1.81056996     -1075.1036310270  1.91E+00
   231 Broy./Diag. 0.40E+00    9.5     1.81881019     -1078.7547290694 -3.65E+00
   232 Broy./Diag. 0.40E+00    9.5     1.16663513     -1076.7230314134  2.03E+00
   233 Broy./Diag. 0.40E+00    9.6     1.46000194     -1077.3025680599 -5.80E-01
   234 Broy./Diag. 0.40E+00    9.4     1.53999691     -1076.0922937833  1.21E+00
   235 Broy./Diag. 0.40E+00    9.6     1.76848245     -1076.4871278978 -3.95E-01
   236 Broy./Diag. 0.40E+00    9.6     0.87043027     -1075.3116639408  1.18E+00
   237 Broy./Diag. 0.40E+00    9.5     1.09635051     -1076.9208020832 -1.61E+00
   238 Broy./Diag. 0.40E+00    9.5     1.16942249     -1077.1016839224 -1.81E-01
   239 Broy./Diag. 0.40E+00    9.4     1.72030849     -1077.2965182537 -1.95E-01
   240 Broy./Diag. 0.40E+00    9.4     1.17952887     -1076.9211229649  3.75E-01
   241 Broy./Diag. 0.40E+00    9.3     1.38335082     -1077.0955504693 -1.74E-01
   242 Broy./Diag. 0.40E+00    9.5     1.40158135     -1078.2873618353 -1.19E+00
   243 Broy./Diag. 0.40E+00    9.3     1.63489301     -1074.7328695085  3.55E+00
   244 Broy./Diag. 0.40E+00    9.7     1.62320823     -1077.5166717356 -2.78E+00
   245 Broy./Diag. 0.40E+00    9.4     1.80495348     -1075.5520545979  1.96E+00
   246 Broy./Diag. 0.40E+00    9.4     1.81779485     -1078.1938644671 -2.64E+00
   247 Broy./Diag. 0.40E+00    9.6     1.18778617     -1076.5352876689  1.66E+00
   248 Broy./Diag. 0.40E+00    9.2     0.91941564     -1076.7237062922 -1.88E-01
   249 Broy./Diag. 0.40E+00    9.2     1.27161822     -1077.3267676207 -6.03E-01
   250 Broy./Diag. 0.40E+00    9.5     1.74907552     -1077.1756622601  1.51E-01
   251 Broy./Diag. 0.40E+00    9.5     1.75808830     -1076.9779653277  1.98E-01
   252 Broy./Diag. 0.40E+00    9.4     0.13233491     -1074.5303136815  2.45E+00
   253 Broy./Diag. 0.40E+00    9.6     1.10346327     -1075.6494763139 -1.12E+00
   254 Broy./Diag. 0.40E+00    9.5     1.35196283     -1077.0514854472 -1.40E+00
   255 Broy./Diag. 0.40E+00    9.2     1.16888955     -1076.7079006347  3.44E-01
   256 Broy./Diag. 0.40E+00    9.2     1.46462927     -1076.6727046354  3.52E-02
   257 Broy./Diag. 0.40E+00    9.5     1.40228705     -1078.4463808395 -1.77E+00
   258 Broy./Diag. 0.40E+00    9.2     0.19199223     -1075.2419022700  3.20E+00
   259 Broy./Diag. 0.40E+00    9.5     1.29652416     -1074.9211023751  3.21E-01
   260 Broy./Diag. 0.40E+00    9.2     1.80773173     -1077.1090538368 -2.19E+00
   261 Broy./Diag. 0.40E+00    9.5     1.81985424     -1078.7182572589 -1.61E+00
   262 Broy./Diag. 0.40E+00    9.6     1.36358175     -1075.0962765773  3.62E+00
   263 Broy./Diag. 0.40E+00    9.5     1.80715467     -1078.5807016418 -3.48E+00
   264 Broy./Diag. 0.40E+00    9.2     1.82247402     -1078.6046426367 -2.39E-02
   265 Broy./Diag. 0.40E+00    8.9     0.04259922     -1075.0533225955  3.55E+00
   266 Broy./Diag. 0.40E+00    9.5     0.03985483     -1075.2443977830 -1.91E-01
   267 Broy./Diag. 0.40E+00    9.4     1.13628726     -1075.0397639150  2.05E-01
   268 Broy./Diag. 0.40E+00    9.5     1.13648534     -1076.6800422176 -1.64E+00
   269 Broy./Diag. 0.40E+00    9.3     1.80760913     -1075.1355638525  1.54E+00
   270 Broy./Diag. 0.40E+00    9.4     1.81520850     -1078.6139355686 -3.48E+00
   271 Broy./Diag. 0.40E+00    9.5     1.38349556     -1078.5535400759  6.04E-02
   272 Broy./Diag. 0.40E+00    9.4     0.05849342     -1075.0278410679  3.53E+00
   273 Broy./Diag. 0.40E+00    9.4     0.04764815     -1075.1588916076 -1.31E-01
   274 Broy./Diag. 0.40E+00    9.5     0.04848194     -1075.1443398769  1.46E-02
   275 Broy./Diag. 0.40E+00    9.4     1.36258155     -1075.1447586876 -4.19E-04
   276 Broy./Diag. 0.40E+00    9.5     1.61797771     -1078.7217100169 -3.58E+00
   277 Broy./Diag. 0.40E+00    9.4     1.80313250     -1076.5256112523  2.20E+00
   278 Broy./Diag. 0.40E+00    9.6     1.81955644     -1078.6440593896 -2.12E+00
   279 Broy./Diag. 0.40E+00    9.4     1.25062806     -1075.0081576297  3.64E+00
   280 Broy./Diag. 0.40E+00    9.3     1.25018295     -1077.1074152955 -2.10E+00
   281 Broy./Diag. 0.40E+00    9.6     0.02068197     -1074.9902489064  2.12E+00
   282 Broy./Diag. 0.40E+00    9.4     0.01783681     -1075.1048953990 -1.15E-01
   283 Broy./Diag. 0.40E+00    9.8     1.80307674     -1075.1765853949 -7.17E-02
   284 Broy./Diag. 0.40E+00    9.4     1.62251842     -1077.0657507745 -1.89E+00
   285 Broy./Diag. 0.40E+00    9.4     1.81278784     -1078.6342020730 -1.57E+00
   286 Broy./Diag. 0.40E+00    9.5     1.63104167     -1078.2617241487  3.72E-01
   287 Broy./Diag. 0.40E+00    9.5     1.62725780     -1076.7954437483  1.47E+00
   288 Broy./Diag. 0.40E+00    9.2     1.23277446     -1078.3681056005 -1.57E+00
   289 Broy./Diag. 0.40E+00    9.1     0.09965147     -1074.9058613377  3.46E+00
   290 Broy./Diag. 0.40E+00    9.5     0.08115470     -1075.1701346174 -2.64E-01
   291 Broy./Diag. 0.40E+00    9.6     1.38008371     -1075.1110284020  5.91E-02
   292 Broy./Diag. 0.40E+00    9.5     1.39815045     -1078.5557328658 -3.44E+00
   293 Broy./Diag. 0.40E+00    9.3     1.22169253     -1074.9625245727  3.59E+00
   294 Broy./Diag. 0.40E+00    9.3     1.15374387     -1077.1084212648 -2.15E+00
   295 Broy./Diag. 0.40E+00    9.5     1.81121391     -1078.6816712962 -1.57E+00
   296 Broy./Diag. 0.40E+00    9.5     1.13073522     -1075.2084649093  3.47E+00
   297 Broy./Diag. 0.40E+00    9.4     0.63044600     -1076.7113428018 -1.50E+00
   298 Broy./Diag. 0.40E+00    9.5     1.42770843     -1076.3343603988  3.77E-01
   299 Broy./Diag. 0.40E+00    9.4     1.80570871     -1074.9734157679  1.36E+00
   300 Broy./Diag. 0.40E+00    9.5     1.81661954     -1078.9734816916 -4.00E+00

  Leaving inner SCF loop after reaching   300 steps.


  Electronic density on regular grids:       -512.0009337605       -0.0009337605
  Core density on regular grids:              512.0005771155        0.0005771155
  Total charge density on r-space grids:       -0.0003566450
  Total charge density g-space grids:          -0.0003566450

  Overlap energy of the core charge distribution:               0.00000000000000
  Self energy of the core charge distribution:              -2838.21791979120962
  Core Hamiltonian energy:                                    757.59637157942132
  Hartree energy:                                            1240.51906689068619
  Exchange-correlation energy:                               -238.87100037054628

  Total energy:                                             -1078.97348169164820

 *** WARNING in qs_scf.F:542 :: SCF run NOT converged ***


 ENERGY| Total FORCE_EVAL ( QS ) energy (a.u.):            -1075.985506537814672


 ATOMIC FORCES in [a.u.]

 # Atom   Kind   Element          X              Y              Z
      1      1      O          -0.14898910    -0.07550020     0.06704586
      2      2      H           0.10712146    -0.02884049     0.03758664
      3      2      H           0.03813149     0.04696016    -0.10345800
      4      1      O           0.15895980     0.03669609     0.06223999
      5      2      H          -0.02816436     0.00005455    -0.06934893
      6      2      H          -0.09504564    -0.00251186     0.00896964
      7      1      O          -0.13982411     0.07721418     0.01516464
      8      2      H           0.02174397     0.04356348     0.09789064
      9      2      H           0.02262170    -0.10153407    -0.00609938
     10      1      O          -0.03513466     0.07533950     0.12815026
     11      2      H           0.05508332     0.02054934    -0.06449866
     12      2      H          -0.01155878    -0.11164785    -0.01366359
     13      1      O           0.07014706     0.06943229     0.14034427
     14      2      H           0.06209122     0.07757466     0.01449545
     15      2      H          -0.01288482    -0.03829915    -0.10642757
     16      1      O          -0.03490399     0.15815981     0.08477628
     17      2      H           0.06546066    -0.06300357     0.01395953
     18      2      H          -0.10068892    -0.01772842     0.01440697
     19      1      O          -0.16744608     0.09187256    -0.12812015
     20      2      H          -0.03359736    -0.04339592    -0.03892818
     21      2      H           0.10910945     0.01914399     0.02330112
     22      1      O          -0.00381567     0.02454251     0.03658714
     23      2      H          -0.02804014    -0.05702505     0.06863944
     24      2      H          -0.04506656     0.06162036    -0.04024953
     25      1      O           0.04042760     0.16050097     0.07754809
     26      2      H           0.08636011     0.01918632    -0.02863254
     27      2      H          -0.00630006    -0.08913365     0.06850014
     28      1      O           0.07190865    -0.09774417     0.09704418
     29      2      H          -0.05980170    -0.01159931    -0.07455652
     30      2      H          -0.06737427     0.00812647     0.03710291
     31      1      O           0.01175191     0.03955373    -0.05557708
     32      2      H          -0.01496275     0.04379815     0.00382634
     33      2      H          -0.02773952    -0.04248556     0.08298989
     34      1      O          -0.02618195    -0.03318145    -0.11579327
     35      2      H          -0.11289430     0.02270012     0.06159157
     36      2      H           0.05509217     0.01201296     0.05341405
     37      1      O          -0.01734678    -0.10746280    -0.13245795
     38      2      H          -0.03234296     0.04263019     0.05696476
     39      2      H          -0.03500704    -0.06768290     0.01198284
     40      1      O           0.04895957    -0.01821901     0.02289781
     41      2      H           0.00737068    -0.11362959    -0.03047804
     42      2      H          -0.04905487     0.09778690     0.09570518
     43      1      O          -0.03830313     0.13676543    -0.12420380
     44      2      H           0.07955958    -0.03699951     0.01688039
     45      2      H           0.00352403     0.06049450     0.03883054
     46      1      O           0.07436233    -0.00016444    -0.00198352
     47      2      H          -0.03012147     0.09496868     0.00734020
     48      2      H           0.00324956    -0.05149169     0.01178737
     49      1      O          -0.16351162     0.08998329     0.12758481
     50      2      H           0.00546674    -0.08335358     0.01836324
     51      2      H           0.00249325    -0.02848044    -0.08961308
     52      1      O          -0.02325469     0.07486501    -0.07224199
     53      2      H          -0.06786797    -0.07948873     0.04190687
     54      2      H          -0.02413835     0.04395533     0.02312632
     55      1      O          -0.10168239     0.12228099    -0.09799573
     56      2      H           0.06758417    -0.00720359     0.07143224
     57      2      H          -0.04195762    -0.06789791     0.02552570
     58      1      O           0.04738433     0.01176662    -0.08434355
     59      2      H           0.00649208    -0.08023847    -0.00197106
     60      2      H          -0.03281456    -0.02194006     0.02016535
     61      1      O          -0.07218473     0.11697456     0.05822256
     62      2      H           0.02823246    -0.04307225    -0.04701748
     63      2      H           0.03660493     0.03490918     0.10183959
     64      1      O           0.12154695    -0.08338540     0.15071723
     65      2      H           0.01794532     0.04283336    -0.07370111
     66      2      H          -0.03301807    -0.08562316    -0.03188044
     67      1      O           0.07612695     0.00751966    -0.09159781
     68      2      H          -0.00827788    -0.04374739    -0.06853319
     69      2      H           0.01734576    -0.07531014     0.03921731
     70      1      O           0.06695223    -0.03930727     0.02799471
     71      2      H          -0.06877652    -0.03167336    -0.03981617
     72      2      H           0.07878585    -0.00938694     0.05003014
     73      1      O           0.02035888    -0.11086103    -0.13362750
     74      2      H           0.08881099     0.03618299     0.09362042
     75      2      H          -0.05132248    -0.03010620     0.04100598
     76      1      O           0.06441499    -0.00254393     0.04615950
     77      2      H           0.06018460    -0.06179316    -0.06662686
     78      2      H           0.02007831     0.10841709    -0.05005589
     79      1      O           0.10690795    -0.03124590    -0.10404694
     80      2      H          -0.06930117     0.02733123    -0.06174504
     81      2      H          -0.05907547    -0.04332335     0.00139396
     82      1      O          -0.11990440    -0.00005491     0.14498989
     83      2      H           0.04439146     0.02749408    -0.01889733
     84      2      H           0.01562908    -0.05911288    -0.10559618
     85      1      O           0.09613883    -0.00698821     0.04608934
     86      2      H          -0.02241783    -0.08424599     0.07287869
     87      2      H          -0.03294706     0.03456997    -0.03922376
     88      1      O           0.04910386     0.06660514     0.03334236
     89      2      H          -0.03279247     0.01208000     0.05679361
     90      2      H           0.06473642    -0.09085359    -0.08261210
     91      1      O           0.10173396    -0.02813314     0.04263853
     92      2      H           0.04384940     0.05560732    -0.10654154
     93      2      H          -0.05428229    -0.09529735     0.04592716
     94      1      O          -0.10305294    -0.12807297    -0.06158619
     95      2      H           0.03749615    -0.04419530    -0.06518421
     96      2      H          -0.05692810     0.11954840     0.03543089
     97      1      O           0.09315710    -0.00441788     0.03156128
     98      2      H           0.00731546    -0.03657205     0.02640183
     99      2      H          -0.10933492     0.01750420     0.01587606
    100      1      O           0.08983820     0.05882403    -0.09220199
    101      2      H          -0.08647038    -0.01135993    -0.01574889
    102      2      H           0.02739238    -0.05969339    -0.02645380
    103      1      O          -0.05004915     0.01368921    -0.01051563
    104      2      H           0.08337249    -0.03154085    -0.10517170
    105      2      H          -0.04650124     0.06294789     0.02890851
    106      1      O          -0.10850848    -0.07960020    -0.04276701
    107      2      H          -0.02851069     0.04443498     0.04158096
    108      2      H           0.03482518     0.03480303    -0.10075831
    109      1      O           0.08578286     0.07522518     0.05712110
    110      2      H          -0.08323895     0.05320397    -0.01340959
    111      2      H           0.02345767    -0.02690560    -0.07399310
    112      1      O          -0.14940954    -0.06293080     0.11811162
    113      2      H           0.03855513    -0.09629676     0.01185435
    114      2      H          -0.01355953     0.09447344    -0.02129076
    115      1      O           0.14307084     0.03716081     0.06923253
    116      2      H          -0.02986933     0.02953491    -0.05602431
    117      2      H          -0.01064909    -0.02938986    -0.07252209
    118      1      O          -0.15387878     0.02922101    -0.09770161
    119      2      H           0.00506482    -0.02900227    -0.05228983
    120      2      H          -0.00045654    -0.05771958     0.11217810
    121      1      O           0.13942310    -0.07351027    -0.12309988
    122      2      H           0.01034298     0.06648690     0.04771227
    123      2      H           0.02096260     0.00826979    -0.09137238
    124      1      O           0.04486550     0.10444364    -0.03119385
    125      2      H           0.06866675    -0.05593293    -0.01653361
    126      2      H          -0.00884338     0.05049754     0.09872273
    127      1      O          -0.09573482     0.03294411    -0.02462850
    128      2      H           0.06707368    -0.01048541     0.03282208
    129      2      H          -0.07823115     0.00489264     0.06102404
    130      1      O          -0.11738101     0.00944564    -0.00076569
    131      2      H          -0.04806479    -0.06607178    -0.04056052
    132      2      H           0.02301372    -0.06030420     0.09155925
    133      1      O           0.13688636    -0.13533141     0.11350242
    134      2      H           0.03136705     0.04924201    -0.03400680
    135      2      H           0.00851438    -0.01562644    -0.03212620
    136      1      O          -0.09987578     0.02475310    -0.01393200
    137      2      H           0.04394833    -0.09207961     0.01867198
    138      2      H          -0.00874565     0.06178331     0.06131818
    139      1      O          -0.04413635    -0.12054018     0.04594590
    140      2      H           0.10894794    -0.00724342    -0.05644288
    141      2      H          -0.03205823     0.04146775     0.00454630
    142      1      O          -0.07682276     0.07683315     0.00246632
    143      2      H          -0.07085685     0.08495086    -0.04762131
    144      2      H           0.01129478    -0.03973652    -0.04668113
    145      1      O           0.06306235     0.11087052     0.01968334
    146      2      H           0.02925065    -0.00792256    -0.01391751
    147      2      H          -0.06720134     0.01563585    -0.00484328
    148      1      O           0.11141749    -0.10249768    -0.02180819
    149      2      H          -0.03362046     0.08808946     0.11096372
    150      2      H          -0.07165264    -0.00314400    -0.06338853
    151      1      O          -0.08391640     0.16396703     0.03807001
    152      2      H          -0.04336463    -0.04383705     0.04175689
    153      2      H           0.02612626    -0.06271693    -0.06459778
    154      1      O          -0.03250344     0.01645180    -0.09181670
    155      2      H          -0.03068513     0.02571448    -0.02447096
    156      2      H          -0.04022947     0.10403841     0.07691658
    157      1      O          -0.12161122    -0.09938813    -0.04918742
    158      2      H           0.07137185     0.05195580     0.08961804
    159      2      H           0.01004427     0.05158653    -0.02440608
    160      1      O          -0.08515148     0.01667067     0.10969938
    161      2      H           0.04121101    -0.00956093     0.05875815
    162      2      H          -0.02253683    -0.01590804    -0.04696047
    163      1      O           0.14872493     0.15431860     0.11950925
    164      2      H           0.05324744    -0.03128054     0.04747902
    165      2      H          -0.09402267     0.01870081    -0.06294418
    166      1      O           0.03522981     0.15686720     0.01097145
    167      2      H           0.03974916    -0.05309984    -0.05601048
    168      2      H          -0.06871733    -0.03397507    -0.03654542
    169      1      O           0.11878589    -0.07208842    -0.13779286
    170      2      H          -0.01810580    -0.03357135     0.00042613
    171      2      H           0.04768142     0.08709911     0.02276482
    172      1      O           0.10785335    -0.10007140     0.07219508
    173      2      H          -0.08716450    -0.02231839    -0.06935670
    174      2      H           0.04159612     0.07591149    -0.05066326
    175      1      O           0.05630936     0.06746244    -0.00630085
    176      2      H          -0.08778484     0.02625209     0.00752186
    177      2      H          -0.01017575    -0.02994497     0.05278216
    178      1      O           0.03496493    -0.03882911    -0.16250432
    179      2      H          -0.03979294    -0.09038988     0.08155220
    180      2      H          -0.01995597     0.06243342     0.05241700
    181      1      O          -0.05774154    -0.00164098     0.14130202
    182      2      H          -0.10472207     0.07167591    -0.00806115
    183      2      H           0.07133973    -0.00258246    -0.10373369
    184      1      O           0.00749745     0.00157275     0.16517580
    185      2      H          -0.05026864     0.04558084    -0.09047573
    186      2      H           0.08798734    -0.09254236     0.00204879
    187      1      O          -0.14160240    -0.03803942     0.00408631
    188      2      H           0.04749485     0.05244913    -0.01545080
    189      2      H          -0.05329860    -0.03933417    -0.02698829
    190      1      O          -0.08924169     0.09092612    -0.00487415
    191      2      H           0.00235207    -0.03065238    -0.09965431
    192      2      H           0.05121918    -0.08967388     0.00592288
 SUM OF ATOMIC FORCES          -0.51686630     0.14391718    -0.00839912     0.53659433

 -------------------------------------------------------------------------------
 -                                                                             -
 -                                DBCSR STATISTICS                             -
 -                                                                             -
 -------------------------------------------------------------------------------
 COUNTER                                    TOTAL       BLAS       SMM       ACC
 flops     5 x     5 x   256           4480806400       0.0%    100.0%      0.0%
 flops     5 x    13 x   256           5379279360       0.0%    100.0%      0.0%
 flops    13 x     5 x   256           5409331200       0.0%    100.0%      0.0%
 flops    13 x    13 x   256           7422804480       0.0%    100.0%      0.0%
 flops inhomo. stacks                           0       0.0%      0.0%      0.0%
 flops total                        22.692221E+09       0.0%    100.0%      0.0%
 flops max/rank                     22.692221E+09       0.0%    100.0%      0.0%
 matmuls inhomo. stacks                         0       0.0%      0.0%      0.0%
 matmuls total                             760025       0.0%    100.0%      0.0%
 number of processed stacks                 42140       0.0%    100.0%      0.0%
 average stack size                                     0.0      18.0       0.0
 marketing flops                   333.927416E+09
 -------------------------------------------------------------------------------
 # multiplications                            301
 max memory usage/rank               5.025223E+09
 # max total images/rank                        1
 # max 3D layers                                1
 # MPI messages exchanged                       0
 MPI messages size (bytes):
  total size                         0.000000E+00
  min size                           0.000000E+00
  max size                           0.000000E+00
  average size                       0.000000E+00
 MPI breakdown and total messages size (bytes):
             size <=      128                   0                        0
       128 < size <=     8192                   0                        0
      8192 < size <=    32768                   0                        0
     32768 < size <=   131072                   0                        0
    131072 < size <=  4194304                   0                        0
   4194304 < size <= 16777216                   0                        0
  16777216 < size                               0                        0
 -------------------------------------------------------------------------------

 MEMORY| Estimated peak process memory [MiB]                                4787

 -------------------------------------------------------------------------------
 -                                                                             -
 -                           R E F E R E N C E S                               -
 -                                                                             -
 -------------------------------------------------------------------------------
 
 CP2K version 7.1, the CP2K developers group (2019).
 CP2K is freely available from https://www.cp2k.org/ .

 Schuett, Ole; Messmer, Peter; Hutter, Juerg; VandeVondele, Joost. 
 Electronic Structure Calculations on Graphics Processing Units, John
 Wiley & Sons, Ltd, 173-190 (2016). 
 GPU-Accelerated Sparse Matrix-Matrix Multiplication for
 Linear Scaling Density Functional Theory.
 https://dx.doi.org/10.1002/9781118670712.ch8

 Borstnik, U; VandeVondele, J; Weber, V; Hutter, J. 
 PARALLEL COMPUTING, 40 (5-6), 47-58 (2014). 
 Sparse matrix multiplication: The distributed block-compressed sparse
 row library.
 https://dx.doi.org/10.1016/j.parco.2014.03.012

 Hutter, J; Iannuzzi, M; Schiffmann, F; VandeVondele, J. 
 WIREs Comput Mol Sci., 4 (1), 15-25 (2014). 
 CP2K: atomistic simulations of condensed matter systems.
 https://dx.doi.org/10.1002/wcms.1159

 Krack, M. 
 THEORETICAL CHEMISTRY ACCOUNTS, 114 (1-3), 145-152 (2005). 
 Pseudopotentials for H to Kr optimized for gradient-corrected
 exchange-correlation functionals.
 https://dx.doi.org/10.1007/s00214-005-0655-y

 VandeVondele, J; Krack, M; Mohamed, F; Parrinello, M; Chassaing, T;
 Hutter, J. COMPUTER PHYSICS COMMUNICATIONS, 167 (2), 103-128 (2005). 
 QUICKSTEP: Fast and accurate density functional calculations using a
 mixed Gaussian and plane waves approach.
 https://dx.doi.org/10.1016/j.cpc.2004.12.014

 Frigo, M; Johnson, SG. 
 PROCEEDINGS OF THE IEEE, 93 (2), 216-231 (2005). 
 The design and implementation of FFTW3.
 https://dx.doi.org/10.1109/JPROC.2004.840301

 Hartwigsen, C; Goedecker, S; Hutter, J. 
 PHYSICAL REVIEW B, 58 (7), 3641-3662 (1998). 
 Relativistic separable dual-space Gaussian pseudopotentials from H to Rn.
 https://dx.doi.org/10.1103/PhysRevB.58.3641

 Lippert, G; Hutter, J; Parrinello, M. 
 MOLECULAR PHYSICS, 92 (3), 477-487 (1997). 
 A hybrid Gaussian and plane wave density functional scheme.
 https://dx.doi.org/10.1080/002689797170220

 Goedecker, S; Teter, M; Hutter, J. 
 PHYSICAL REVIEW B, 54 (3), 1703-1710 (1996). 
 Separable dual-space Gaussian pseudopotentials.
 https://dx.doi.org/10.1103/PhysRevB.54.1703


 -------------------------------------------------------------------------------
 -                                                                             -
 -                                T I M I N G                                  -
 -                                                                             -
 -------------------------------------------------------------------------------
 SUBROUTINE                       CALLS  ASD         SELF TIME        TOTAL TIME
                                MAXIMUM       AVERAGE  MAXIMUM  AVERAGE  MAXIMUM
 CP2K                                 1  1.0    0.199    0.199 2813.889 2813.889
 qs_forces                            1  2.0    0.000    0.000 2811.668 2811.668
 qs_energies                          1  3.0    0.000    0.000 2810.961 2810.961
 scf_env_do_scf                       1  4.0    0.001    0.001 2808.605 2808.605
 scf_env_do_scf_inner_loop          300  5.0    0.072    0.072 2808.604 2808.604
 qs_scf_new_mos                     300  6.0    0.011    0.011 1988.768 1988.768
 eigensolver                        300  7.0    0.054    0.054 1956.903 1956.903
 cp_fm_syevd                        300  8.0 1276.833 1276.833 1278.592 1278.592
 cp_fm_cholesky_restore             900  8.0  677.196  677.196  677.196  677.196
 gspace_mixing                      299  6.0    6.750    6.750  461.115  461.115
 broyden_mixing                     299  7.0  418.565  418.565  418.568  418.568
 rebuild_ks_matrix                  301  7.0    0.001    0.001  185.365  185.365
 qs_ks_build_kohn_sham_matrix       301  8.0    0.080    0.080  185.364  185.364
 qs_ks_update_qs_env                300  6.0    0.003    0.003  185.089  185.089
 pw_transfer                       3912  9.9    0.349    0.349  174.529  174.529
 qs_rho_update_rho                  301  6.0    0.002    0.002  172.631  172.631
 calculate_rho_elec                 301  7.0   82.177   82.177  172.629  172.629
 fft_wrap_pw1pw2                   3310 10.9    0.038    0.038  169.551  169.551
 fft_wrap_pw1pw2_70                1504 11.2   18.669   18.669  155.040  155.040
 density_rs2pw                      301  8.0    0.030    0.030   87.721   87.721
 fft3d_s                           3311 12.9   75.499   75.499   75.524   75.524
 pw_scatter_s                      1804 13.2   59.657   59.657   59.657   59.657
 pw_poisson_solve                   301  9.0   54.615   54.615   59.355   59.355
 -------------------------------------------------------------------------------

 The number of warnings for this run is : 1
 
 -------------------------------------------------------------------------------
  **** **** ******  **  PROGRAM ENDED AT                 2021-01-12 07:49:03.269
 ***** ** ***  *** **   PROGRAM RAN ON                                   gnode23
 **    ****   ******    PROGRAM RAN BY                               mayank.modi
 ***** **    ** ** **   PROGRAM PROCESS ID                                 26321
  **** **  *******  **  PROGRAM STOPPED IN /home/mayank.modi/ab-initio-thermodyn
                                           amics-of-water/mayank/cp2k_energy_cal
                                           culations
