 DBCSR| CPU Multiplication driver                                           XSMM
 DBCSR| Multrec recursion limit                                              512
 DBCSR| Multiplication stack size                                           1000
 DBCSR| Maximum elements for images                                    UNLIMITED
 DBCSR| Multiplicative factor virtual images                                   1
 DBCSR| Use multiplication densification                                       T
 DBCSR| Multiplication size stacks                                             3


  **** **** ******  **  PROGRAM STARTED AT               2021-01-10 10:41:03.408
 ***** ** ***  *** **   PROGRAM STARTED ON                               gnode23
 **    ****   ******    PROGRAM STARTED BY                           mayank.modi
 ***** **    ** ** **   PROGRAM PROCESS ID                                 28112
  **** **  *******  **  PROGRAM STARTED IN /home/mayank.modi/ab-initio-thermodyn
                                           amics-of-water/mayank/cp2k_energy_cal
                                           culations

 CP2K| version string:                                          CP2K version 7.1
 CP2K| source code revision number:                                  git:e635599
 CP2K| cp2kflags: omp libint fftw3 libxc xsmm spglib                            
 CP2K| is freely available from                            https://www.cp2k.org/
 CP2K| Program compiled at                          Mon Dec 23 19:23:12 CET 2019
 CP2K| Program compiled on                                                pc9404
 CP2K| Program compiled for                                Linux-x86-64-gfortran
 CP2K| Data directory path                                        /opt/cp2k/data
 CP2K| Input file name                    input_training_correct_cell/input40.in

 GLOBAL| Force Environment number                                              1
 GLOBAL| Basis set file name                                           BASIS_SET
 GLOBAL| Potential file name                                      GTH_POTENTIALS
 GLOBAL| MM Potential file name                                     MM_POTENTIAL
 GLOBAL| Coordinate file name                                      __STD_INPUT__
 GLOBAL| Method name                                                        CP2K
 GLOBAL| Project name                                                   H2O_bulk
 GLOBAL| Preferred FFT library                                             FFTW3
 GLOBAL| Preferred diagonalization lib.                                       SL
 GLOBAL| Run type                                                   ENERGY_FORCE
 GLOBAL| All-to-all communication in single precision                          F
 GLOBAL| FFTs using library dependent lengths                                  F
 GLOBAL| Global print level                                                  LOW
 GLOBAL| MPI I/O enabled                                                       T
 GLOBAL| Total number of message passing processes                             1
 GLOBAL| Number of threads for this process                                   36
 GLOBAL| This output is from process                                           0
 GLOBAL| CPU model name                Intel(R) Xeon(R) CPU E5-2640 v4 @ 2.40GHz
 GLOBAL| CPUID                                                              1002
 GLOBAL| Compiled for CPUID                                                    0

 MEMORY| system memory details [Kb]
 MEMORY|                        rank 0           min           max       average
 MEMORY| MemTotal            131897972     131897972     131897972     131897972
 MEMORY| MemFree             125573416     125573416     125573416     125573416
 MEMORY| Buffers               1890876       1890876       1890876       1890876
 MEMORY| Cached                1375040       1375040       1375040       1375040
 MEMORY| Slab                  2591628       2591628       2591628       2591628
 MEMORY| SReclaimable          1562916       1562916       1562916       1562916
 MEMORY| MemLikelyFree       130402248     130402248     130402248     130402248


 GENERATE|  Preliminary Number of Bonds generated:                             0
 GENERATE|  Achieved consistency in connectivity generation.

 *******************************************************************************
 *******************************************************************************
 **                                                                           **
 **     #####                         ##              ##                      **
 **    ##   ##            ##          ##              ##                      **
 **   ##     ##                       ##            ######                    **
 **   ##     ##  ##   ##  ##   #####  ##  ##   ####   ##    #####    #####    **
 **   ##     ##  ##   ##  ##  ##      ## ##   ##      ##   ##   ##  ##   ##   **
 **   ##  ## ##  ##   ##  ##  ##      ####     ###    ##   ######   ######    **
 **    ##  ###   ##   ##  ##  ##      ## ##      ##   ##   ##       ##        **
 **     #######   #####   ##   #####  ##  ##  ####    ##    #####   ##        **
 **           ##                                                    ##        **
 **                                                                           **
 **                                                ... make the atoms dance   **
 **                                                                           **
 **            Copyright (C) by CP2K developers group (2000 - 2019)           **
 **                                                                           **
 *******************************************************************************


 TOTAL NUMBERS AND MAXIMUM NUMBERS

  Total number of            - Atomic kinds:                                   2
                             - Atoms:                                        192
                             - Shell sets:                                   384
                             - Shells:                                       704
                             - Primitive Cartesian functions:                960
                             - Cartesian basis functions:                   1536
                             - Spherical basis functions:                   1472

  Maximum angular momentum of- Orbital basis functions:                        2
                             - Local part of the GTH pseudopotential:          2
                             - Non-local part of the GTH pseudopotential:      0


 SCF PARAMETERS         Density guess:                                    ATOMIC
                        --------------------------------------------------------
                        max_scf:                                             300
                        max_scf_history:                                       0
                        max_diis:                                              4
                        --------------------------------------------------------
                        eps_scf:                                        1.00E-07
                        eps_scf_history:                                0.00E+00
                        eps_diis:                                       1.00E-01
                        eps_eigval:                                     1.00E-05
                        --------------------------------------------------------
                        level_shift [a.u.]:                                 0.00
                        --------------------------------------------------------
                        Mixing method:                            BROYDEN_MIXING
                                                charge density mixing in g-space
                        --------------------------------------------------------
                        No outer SCF

 Number of electrons:                                                        512
 Number of occupied orbitals:                                                256
 Number of molecular orbitals:                                               256

 Number of orbital functions:                                               1472
 Number of independent orbital functions:                                   1472

 Extrapolation method: initial_guess


 SCF WAVEFUNCTION OPTIMIZATION

  Step     Update method      Time    Convergence         Total energy    Change
  ------------------------------------------------------------------------------
     1 NoMix/Diag. 0.40E+00    7.2     0.60196515     -1064.2541065336 -1.06E+03
     2 Broy./Diag. 0.40E+00    7.8     1.24894800      -997.4538115785  6.68E+01
     3 Broy./Diag. 0.40E+00    8.0     0.70637188     -1257.6694197438 -2.60E+02
     4 Broy./Diag. 0.40E+00    8.0     0.25681011     -1096.0005954991  1.62E+02
     5 Broy./Diag. 0.40E+00    8.1     0.51019793     -1102.0040218250 -6.00E+00
     6 Broy./Diag. 0.40E+00    8.3     0.25731048     -1077.8837205076  2.41E+01
     7 Broy./Diag. 0.40E+00    8.4     0.04755691     -1074.1669326222  3.72E+00
     8 Broy./Diag. 0.40E+00    8.8     0.04469288     -1078.2915479738 -4.12E+00
     9 Broy./Diag. 0.40E+00    9.1     0.02193596     -1077.4322771901  8.59E-01
    10 Broy./Diag. 0.40E+00    9.1     0.01120627     -1076.1681745344  1.26E+00
    11 Broy./Diag. 0.40E+00    9.4     0.01066834     -1076.5038955638 -3.36E-01
    12 Broy./Diag. 0.40E+00    9.4     0.00349041     -1076.5670801655 -6.32E-02
    13 Broy./Diag. 0.40E+00    9.3     0.00263362     -1076.3808517555  1.86E-01
    14 Broy./Diag. 0.40E+00    9.6     0.00224013     -1076.3384641966  4.24E-02
    15 Broy./Diag. 0.40E+00    9.4     0.00158412     -1076.3174027110  2.11E-02
    16 Broy./Diag. 0.40E+00    9.6     0.00208438     -1076.3448242260 -2.74E-02
    17 Broy./Diag. 0.40E+00    9.5     0.00105993     -1076.3743742589 -2.96E-02
    18 Broy./Diag. 0.40E+00    9.3     0.00144365     -1076.4170829575 -4.27E-02
    19 Broy./Diag. 0.40E+00    9.3     0.00127415     -1076.4135553645  3.53E-03
    20 Broy./Diag. 0.40E+00    9.7     0.00118019     -1076.3824197939  3.11E-02
    21 Broy./Diag. 0.40E+00    9.5     0.00100425     -1076.4187308297 -3.63E-02
    22 Broy./Diag. 0.40E+00    9.7     0.00059468     -1076.4120259056  6.70E-03
    23 Broy./Diag. 0.40E+00    9.4     0.00031479     -1076.3841032838  2.79E-02
    24 Broy./Diag. 0.40E+00    9.4     0.00020263     -1076.3875050708 -3.40E-03
    25 Broy./Diag. 0.40E+00    9.5     0.00016425     -1076.3970999174 -9.59E-03
    26 Broy./Diag. 0.40E+00    9.6     0.00014091     -1076.3982520593 -1.15E-03
    27 Broy./Diag. 0.40E+00    9.4     0.00010717     -1076.3993263158 -1.07E-03
    28 Broy./Diag. 0.40E+00    9.2     0.00015068     -1076.3993144767  1.18E-05
    29 Broy./Diag. 0.40E+00    9.5     0.00011691     -1076.3986285576  6.86E-04
    30 Broy./Diag. 0.40E+00    9.5     0.00010442     -1076.3969719216  1.66E-03
    31 Broy./Diag. 0.40E+00    9.3     0.00005497     -1076.3963098116  6.62E-04
    32 Broy./Diag. 0.40E+00    9.0     0.00004738     -1076.3978087267 -1.50E-03
    33 Broy./Diag. 0.40E+00    9.3     0.00005630     -1076.3961980107  1.61E-03
    34 Broy./Diag. 0.40E+00    9.4     0.00003410     -1076.3965109350 -3.13E-04
    35 Broy./Diag. 0.40E+00    9.5     0.00001591     -1076.3984595787 -1.95E-03
    36 Broy./Diag. 0.40E+00    9.4     0.00002487     -1076.3979203270  5.39E-04
    37 Broy./Diag. 0.40E+00    9.4     0.00001463     -1076.3975724186  3.48E-04
    38 Broy./Diag. 0.40E+00    9.4     0.00001271     -1076.3976022206 -2.98E-05
    39 Broy./Diag. 0.40E+00    9.5     0.00000914     -1076.3972679432  3.34E-04
    40 Broy./Diag. 0.40E+00    9.8     0.00000728     -1076.3970855536  1.82E-04
    41 Broy./Diag. 0.40E+00    9.5     0.00000542     -1076.3971036013 -1.80E-05
    42 Broy./Diag. 0.40E+00    9.3     0.00000528     -1076.3973334321 -2.30E-04
    43 Broy./Diag. 0.40E+00    9.2     0.00000769     -1076.3971441795  1.89E-04
    44 Broy./Diag. 0.40E+00    9.7     0.00000425     -1076.3971515510 -7.37E-06
    45 Broy./Diag. 0.40E+00    9.5     0.00000302     -1076.3973647459 -2.13E-04
    46 Broy./Diag. 0.40E+00    9.5     0.00000206     -1076.3972856921  7.91E-05
    47 Broy./Diag. 0.40E+00    9.6     0.00000118     -1076.3972294124  5.63E-05
    48 Broy./Diag. 0.40E+00    9.2     0.00000133     -1076.3972423407 -1.29E-05
    49 Broy./Diag. 0.40E+00    9.3     0.00000144     -1076.3972140511  2.83E-05
    50 Broy./Diag. 0.40E+00    9.3     0.00000135     -1076.3972119175  2.13E-06
    51 Broy./Diag. 0.40E+00    9.3     0.00000120     -1076.3972339276 -2.20E-05
    52 Broy./Diag. 0.40E+00    9.6     0.00000098     -1076.3972519927 -1.81E-05
    53 Broy./Diag. 0.40E+00    9.3     0.00000086     -1076.3972393903  1.26E-05
    54 Broy./Diag. 0.40E+00    9.1     0.00000059     -1076.3972376719  1.72E-06
    55 Broy./Diag. 0.40E+00    9.6     0.00000041     -1076.3972541025 -1.64E-05
    56 Broy./Diag. 0.40E+00    9.3     0.00000027     -1076.3972474514  6.65E-06
    57 Broy./Diag. 0.40E+00    9.1     0.00000012     -1076.3972326024  1.48E-05
    58 Broy./Diag. 0.40E+00    9.7     0.00000017     -1076.3972402178 -7.62E-06
    59 Broy./Diag. 0.40E+00    9.2     0.00000014     -1076.3972373644  2.85E-06
    60 Broy./Diag. 0.40E+00    9.1     0.00000012     -1076.3972398757 -2.51E-06
    61 Broy./Diag. 0.40E+00    8.8     0.00000009     -1076.3972434497 -3.57E-06

  *** SCF run converged in    61 steps ***


  Electronic density on regular grids:       -512.0003643544       -0.0003643544
  Core density on regular grids:              511.9998913401       -0.0001086599
  Total charge density on r-space grids:       -0.0004730143
  Total charge density g-space grids:          -0.0004730143

  Overlap energy of the core charge distribution:               0.00000000000000
  Self energy of the core charge distribution:              -2838.21791979120962
  Core Hamiltonian energy:                                    759.69671356327717
  Hartree energy:                                            1240.90049230663681
  Exchange-correlation energy:                               -238.77652952839327

  Total energy:                                             -1076.39724344968886

 ENERGY| Total FORCE_EVAL ( QS ) energy (a.u.):            -1076.397243106051519


 ATOMIC FORCES in [a.u.]

 # Atom   Kind   Element          X              Y              Z
      1      1      O          -0.08592582    -0.00448206    -0.03007216
      2      2      H           0.08016889    -0.01595398     0.02893813
      3      2      H           0.00648626     0.05186323    -0.05960859
      4      1      O          -0.02996081    -0.00449920     0.12554129
      5      2      H          -0.03805967     0.04799766    -0.01338596
      6      2      H           0.01804282    -0.06704334    -0.01429440
      7      1      O          -0.02128011    -0.03915310     0.10701903
      8      2      H           0.04335957     0.01614548    -0.06991192
      9      2      H          -0.04054648    -0.04413893     0.01761303
     10      1      O           0.11046268     0.00070256     0.09819455
     11      2      H          -0.09265964     0.04158441     0.00050046
     12      2      H          -0.03920079    -0.07567375    -0.04520714
     13      1      O           0.04587029     0.05647926    -0.09033160
     14      2      H          -0.04294913    -0.04268927    -0.00380573
     15      2      H           0.08044592    -0.01300220     0.03216040
     16      1      O          -0.09932211    -0.03440599     0.10484428
     17      2      H           0.09684366    -0.01677370     0.01522326
     18      2      H          -0.02246256     0.02090504    -0.05200697
     19      1      O           0.07142262    -0.03335626     0.05226141
     20      2      H           0.03304116     0.00363738    -0.06039276
     21      2      H          -0.09226917    -0.01957237    -0.02145557
     22      1      O           0.09179164    -0.02106464     0.04175122
     23      2      H          -0.03133737    -0.03839522    -0.03279844
     24      2      H          -0.08128432     0.04048639     0.03259123
     25      1      O          -0.00627256    -0.05307073     0.06217026
     26      2      H          -0.01263462     0.05751060     0.03265286
     27      2      H           0.01731911     0.00351335    -0.06670378
     28      1      O          -0.00806429    -0.02661228     0.03053999
     29      2      H           0.02829726     0.08980664    -0.00502126
     30      2      H          -0.03995150    -0.01225739    -0.05586962
     31      1      O           0.06144115    -0.09790096     0.08941834
     32      2      H          -0.04613964     0.06902507     0.03456553
     33      2      H           0.06776218     0.05669600    -0.04673126
     34      1      O           0.12145355    -0.05295545    -0.00478346
     35      2      H           0.00144702    -0.03785659     0.08219971
     36      2      H          -0.06291488     0.05874461    -0.00738852
     37      1      O           0.01020295    -0.05461163    -0.06752609
     38      2      H           0.04372283     0.08076617     0.00154019
     39      2      H          -0.05152802     0.03033249    -0.03042946
     40      1      O          -0.03562705     0.04406489     0.05167444
     41      2      H           0.06779104     0.00085487     0.08160168
     42      2      H           0.04363624     0.05084457    -0.03900041
     43      1      O           0.06540013    -0.10324935     0.10892807
     44      2      H          -0.05872696    -0.03611375    -0.03160244
     45      2      H           0.03229173     0.05535579     0.02593339
     46      1      O           0.04736452     0.00477899    -0.11736177
     47      2      H          -0.05093161     0.03529621     0.03284367
     48      2      H           0.02396430    -0.01604425     0.08321039
     49      1      O           0.07555047     0.02686044    -0.02047268
     50      2      H           0.01916033    -0.04019389    -0.04365999
     51      2      H          -0.09112068    -0.05670796     0.03051179
     52      1      O           0.00125153    -0.10906343    -0.04910573
     53      2      H           0.08136768    -0.01172348    -0.03883621
     54      2      H          -0.01945902     0.08269188     0.06492688
     55      1      O          -0.00687131    -0.00027254     0.06122502
     56      2      H           0.01819688     0.00188259    -0.08532007
     57      2      H          -0.03658770    -0.07816805     0.03307779
     58      1      O          -0.06672738     0.12551502     0.01513862
     59      2      H          -0.06702804    -0.02073248    -0.02640285
     60      2      H           0.04971269    -0.07258996    -0.00851060
     61      1      O           0.10487796     0.11228737    -0.05335988
     62      2      H           0.01247674    -0.01987710     0.07787051
     63      2      H          -0.05719113    -0.06581043    -0.03301927
     64      1      O           0.00504778    -0.12412118     0.10066511
     65      2      H          -0.04910730     0.04070562    -0.00398857
     66      2      H           0.00779786     0.05478321    -0.05174645
     67      1      O           0.09365540    -0.01680741    -0.08382545
     68      2      H          -0.09546318     0.01355432     0.02491321
     69      2      H           0.03525739     0.07259011     0.00429066
     70      1      O          -0.01034632    -0.06673833     0.10276523
     71      2      H           0.07363622     0.01437824     0.00827272
     72      2      H          -0.02116305    -0.01573744    -0.06893474
     73      1      O           0.10635376     0.00774758    -0.05199990
     74      2      H          -0.08736191     0.02938056    -0.00411838
     75      2      H          -0.03618367    -0.09508249     0.04831225
     76      1      O          -0.11658992     0.07763477    -0.07131953
     77      2      H           0.03619974    -0.04714764    -0.02827259
     78      2      H           0.01919189     0.01323820     0.05613601
     79      1      O           0.02916753     0.05799423    -0.02836014
     80      2      H          -0.03364919     0.06908986     0.05070044
     81      2      H           0.00541015    -0.04809125     0.02112431
     82      1      O           0.10648147    -0.00636996    -0.09652427
     83      2      H          -0.00956777     0.08956257     0.00061585
     84      2      H          -0.00840220    -0.00283115     0.06484993
     85      1      O           0.10700203     0.10050419    -0.04367076
     86      2      H           0.00701857    -0.08132461     0.02672671
     87      2      H          -0.06726253     0.04000126    -0.07970576
     88      1      O          -0.11270636    -0.09186369     0.03517309
     89      2      H           0.06386084     0.00915476     0.06699630
     90      2      H          -0.00800086     0.09076250    -0.01194236
     91      1      O           0.13697961    -0.01589035    -0.01631962
     92      2      H          -0.00852672    -0.05928372    -0.03622964
     93      2      H          -0.03994518     0.04648771     0.04232508
     94      1      O           0.04847584    -0.00568039    -0.07296986
     95      2      H          -0.07620096     0.00465464    -0.02974004
     96      2      H          -0.00861895    -0.00981430     0.06981011
     97      1      O           0.01848730    -0.12865940    -0.01533296
     98      2      H          -0.08422965     0.06096416     0.01466180
     99      2      H           0.06398023     0.00769025    -0.05686443
    100      1      O          -0.07076584     0.05788648    -0.13658401
    101      2      H          -0.00504383    -0.05032370     0.04984927
    102      2      H           0.00506247     0.04283914     0.07198890
    103      1      O           0.11676544     0.09669686    -0.03839735
    104      2      H          -0.06332941    -0.04976254    -0.05172298
    105      2      H          -0.01822973    -0.00579050     0.06701785
    106      1      O           0.06362323    -0.00180613    -0.03618579
    107      2      H           0.02998836    -0.06856353     0.01289372
    108      2      H          -0.06990320    -0.01858544     0.00038216
    109      1      O           0.12036970    -0.08411332     0.00324748
    110      2      H          -0.05142746     0.01168252    -0.08343845
    111      2      H          -0.08330348    -0.01271891     0.03446518
    112      1      O           0.12208467     0.08050593    -0.00558448
    113      2      H          -0.01469034    -0.04776182     0.02100049
    114      2      H          -0.02629985     0.04505277    -0.03286001
    115      1      O           0.09667760    -0.00336384    -0.01630398
    116      2      H           0.01617174    -0.08205700     0.01565011
    117      2      H          -0.07420422     0.02117178     0.06673759
    118      1      O           0.08211245     0.03563435     0.06736518
    119      2      H          -0.01090902     0.04418673    -0.06526715
    120      2      H          -0.08110426    -0.06202766     0.00513560
    121      1      O           0.01365378     0.01946088     0.03801743
    122      2      H           0.00620852    -0.01292208     0.05946637
    123      2      H           0.01582519    -0.05133949    -0.08524902
    124      1      O          -0.10100847     0.12154469    -0.00333006
    125      2      H           0.00010941    -0.07604479    -0.01764512
    126      2      H           0.00116516     0.01184235     0.07325526
    127      1      O           0.07249174    -0.02351013    -0.02202135
    128      2      H          -0.00468535     0.08051532     0.03877728
    129      2      H          -0.02243392    -0.06058387     0.05217846
    130      1      O          -0.07764581     0.07366873    -0.00778859
    131      2      H           0.00409286    -0.08580386    -0.03012226
    132      2      H           0.05323718    -0.03185810     0.04144977
    133      1      O           0.04616366    -0.07019366     0.04823231
    134      2      H           0.00871696     0.08096591    -0.06720244
    135      2      H          -0.07994286    -0.05614052    -0.02908193
    136      1      O           0.01003787     0.12415267    -0.02241614
    137      2      H          -0.04460773    -0.03726712    -0.01502005
    138      2      H           0.02735601    -0.00339362     0.07112055
    139      1      O          -0.05599928     0.09937380     0.06548738
    140      2      H          -0.06658272    -0.05929388     0.00706515
    141      2      H           0.07302520    -0.00788389    -0.06467601
    142      1      O           0.06850858    -0.05931393    -0.08299750
    143      2      H           0.05658739    -0.02572958     0.04507241
    144      2      H          -0.03259399     0.04573296     0.00531888
    145      1      O           0.11782949    -0.07343901     0.07602379
    146      2      H          -0.03688416     0.01102030    -0.09029723
    147      2      H          -0.07288629     0.00674662     0.05344712
    148      1      O           0.09830489    -0.01052350    -0.01390582
    149      2      H           0.04402577    -0.04329164     0.07048421
    150      2      H          -0.09047075     0.05093391     0.03410792
    151      1      O           0.13473555    -0.01972774     0.01388247
    152      2      H          -0.04273931     0.05659128     0.02902203
    153      2      H          -0.04394675     0.00585621    -0.07567131
    154      1      O           0.09425731    -0.14146708     0.07144129
    155      2      H          -0.03766063     0.01604643    -0.03311143
    156      2      H           0.00475938     0.08605333     0.00148848
    157      1      O           0.08813671     0.02668446     0.00759552
    158      2      H          -0.04654674     0.00947435     0.04331250
    159      2      H          -0.04168271     0.01510549    -0.08026000
    160      1      O           0.10886973    -0.11425037     0.03664027
    161      2      H           0.03667102     0.05928207    -0.04934129
    162      2      H          -0.06850344     0.03281934     0.01295386
    163      1      O           0.07775178     0.00537114     0.09777396
    164      2      H          -0.06947138    -0.00089811    -0.04965907
    165      2      H           0.04059769    -0.05497752    -0.00211689
    166      1      O           0.05155943    -0.11349170     0.04408755
    167      2      H           0.03604645     0.01660070    -0.03345501
    168      2      H          -0.08979368     0.03377798     0.03733516
    169      1      O          -0.01933727     0.11583766    -0.03394936
    170      2      H          -0.08210028    -0.01306237     0.03186021
    171      2      H           0.03854711    -0.05967539    -0.03443566
    172      1      O           0.08314628     0.02865160    -0.02500799
    173      2      H          -0.03253064    -0.00591576     0.07102760
    174      2      H          -0.06519495     0.01288522    -0.04646994
    175      1      O           0.09615616    -0.04650983     0.04281394
    176      2      H          -0.01793670     0.08618459    -0.01606575
    177      2      H          -0.05003704    -0.04062046     0.06690355
    178      1      O           0.06506881     0.00366847    -0.00424604
    179      2      H           0.00612517    -0.09001938     0.04412985
    180      2      H          -0.04933774     0.02248250     0.00062495
    181      1      O           0.04343518    -0.06649525     0.00410465
    182      2      H          -0.04517572     0.05329380     0.00438946
    183      2      H           0.03053860     0.03628731    -0.05548619
    184      1      O          -0.03926794    -0.04414420    -0.04827230
    185      2      H          -0.02571863    -0.05126587     0.08489039
    186      2      H           0.02842055     0.09470039     0.01611358
    187      1      O           0.01401787    -0.00114543    -0.04843695
    188      2      H          -0.00063499     0.01771854     0.04906011
    189      2      H          -0.02612270    -0.06761186     0.02048934
    190      1      O           0.11585230     0.01226127     0.08161478
    191      2      H          -0.04898122    -0.04607865    -0.03274557
    192      2      H          -0.01773057     0.07478313     0.03769654
 SUM OF ATOMIC FORCES           0.67775278    -0.25268339     0.67842559     0.99169502

 -------------------------------------------------------------------------------
 -                                                                             -
 -                                DBCSR STATISTICS                             -
 -                                                                             -
 -------------------------------------------------------------------------------
 COUNTER                                    TOTAL       BLAS       SMM       ACC
 flops     5 x     5 x   256           1039616000       0.0%    100.0%      0.0%
 flops    13 x     5 x   256           1291663360       0.0%    100.0%      0.0%
 flops     5 x    13 x   256           1293726720       0.0%    100.0%      0.0%
 flops    13 x    13 x   256           1781092352       0.0%    100.0%      0.0%
 flops inhomo. stacks                           0       0.0%      0.0%      0.0%
 flops total                         5.406098E+09       0.0%    100.0%      0.0%
 flops max/rank                      5.406098E+09       0.0%    100.0%      0.0%
 matmuls inhomo. stacks                         0       0.0%      0.0%      0.0%
 matmuls total                             179490       0.0%    100.0%      0.0%
 number of processed stacks                  8680       0.0%    100.0%      0.0%
 average stack size                                     0.0      20.7       0.0
 marketing flops                    68.782391E+09
 -------------------------------------------------------------------------------
 # multiplications                             62
 max memory usage/rank               4.990439E+09
 # max total images/rank                        1
 # max 3D layers                                1
 # MPI messages exchanged                       0
 MPI messages size (bytes):
  total size                         0.000000E+00
  min size                           0.000000E+00
  max size                           0.000000E+00
  average size                       0.000000E+00
 MPI breakdown and total messages size (bytes):
             size <=      128                   0                        0
       128 < size <=     8192                   0                        0
      8192 < size <=    32768                   0                        0
     32768 < size <=   131072                   0                        0
    131072 < size <=  4194304                   0                        0
   4194304 < size <= 16777216                   0                        0
  16777216 < size                               0                        0
 -------------------------------------------------------------------------------

 MEMORY| Estimated peak process memory [MiB]                                4757

 -------------------------------------------------------------------------------
 -                                                                             -
 -                           R E F E R E N C E S                               -
 -                                                                             -
 -------------------------------------------------------------------------------
 
 CP2K version 7.1, the CP2K developers group (2019).
 CP2K is freely available from https://www.cp2k.org/ .

 Schuett, Ole; Messmer, Peter; Hutter, Juerg; VandeVondele, Joost. 
 Electronic Structure Calculations on Graphics Processing Units, John
 Wiley & Sons, Ltd, 173-190 (2016). 
 GPU-Accelerated Sparse Matrix-Matrix Multiplication for
 Linear Scaling Density Functional Theory.
 https://dx.doi.org/10.1002/9781118670712.ch8

 Borstnik, U; VandeVondele, J; Weber, V; Hutter, J. 
 PARALLEL COMPUTING, 40 (5-6), 47-58 (2014). 
 Sparse matrix multiplication: The distributed block-compressed sparse
 row library.
 https://dx.doi.org/10.1016/j.parco.2014.03.012

 Hutter, J; Iannuzzi, M; Schiffmann, F; VandeVondele, J. 
 WIREs Comput Mol Sci., 4 (1), 15-25 (2014). 
 CP2K: atomistic simulations of condensed matter systems.
 https://dx.doi.org/10.1002/wcms.1159

 Krack, M. 
 THEORETICAL CHEMISTRY ACCOUNTS, 114 (1-3), 145-152 (2005). 
 Pseudopotentials for H to Kr optimized for gradient-corrected
 exchange-correlation functionals.
 https://dx.doi.org/10.1007/s00214-005-0655-y

 VandeVondele, J; Krack, M; Mohamed, F; Parrinello, M; Chassaing, T;
 Hutter, J. COMPUTER PHYSICS COMMUNICATIONS, 167 (2), 103-128 (2005). 
 QUICKSTEP: Fast and accurate density functional calculations using a
 mixed Gaussian and plane waves approach.
 https://dx.doi.org/10.1016/j.cpc.2004.12.014

 Frigo, M; Johnson, SG. 
 PROCEEDINGS OF THE IEEE, 93 (2), 216-231 (2005). 
 The design and implementation of FFTW3.
 https://dx.doi.org/10.1109/JPROC.2004.840301

 Hartwigsen, C; Goedecker, S; Hutter, J. 
 PHYSICAL REVIEW B, 58 (7), 3641-3662 (1998). 
 Relativistic separable dual-space Gaussian pseudopotentials from H to Rn.
 https://dx.doi.org/10.1103/PhysRevB.58.3641

 Lippert, G; Hutter, J; Parrinello, M. 
 MOLECULAR PHYSICS, 92 (3), 477-487 (1997). 
 A hybrid Gaussian and plane wave density functional scheme.
 https://dx.doi.org/10.1080/002689797170220

 Goedecker, S; Teter, M; Hutter, J. 
 PHYSICAL REVIEW B, 54 (3), 1703-1710 (1996). 
 Separable dual-space Gaussian pseudopotentials.
 https://dx.doi.org/10.1103/PhysRevB.54.1703


 -------------------------------------------------------------------------------
 -                                                                             -
 -                                T I M I N G                                  -
 -                                                                             -
 -------------------------------------------------------------------------------
 SUBROUTINE                       CALLS  ASD         SELF TIME        TOTAL TIME
                                MAXIMUM       AVERAGE  MAXIMUM  AVERAGE  MAXIMUM
 CP2K                                 1  1.0    0.168    0.168  568.139  568.139
 qs_forces                            1  2.0    0.000    0.000  566.074  566.074
 qs_energies                          1  3.0    0.000    0.000  565.380  565.380
 scf_env_do_scf                       1  4.0    0.000    0.000  563.002  563.002
 scf_env_do_scf_inner_loop           61  5.0    0.015    0.015  563.002  563.002
 qs_scf_new_mos                      61  6.0    0.002    0.002  405.051  405.051
 eigensolver                         61  7.0    0.010    0.010  397.953  397.953
 cp_fm_syevd                         61  8.0  258.888  258.888  259.233  259.233
 cp_fm_cholesky_restore             183  8.0  138.500  138.500  138.500  138.500
 gspace_mixing                       60  6.0    1.348    1.348   86.722   86.722
 broyden_mixing                      60  7.0   78.283   78.283   78.283   78.283
 rebuild_ks_matrix                   62  7.0    0.000    0.000   37.585   37.585
 qs_ks_build_kohn_sham_matrix        62  8.0    0.016    0.016   37.585   37.585
 qs_ks_update_qs_env                 61  6.0    0.001    0.001   37.047   37.047
 pw_transfer                        805  9.9    0.070    0.070   34.954   34.954
 qs_rho_update_rho                   62  6.0    0.001    0.001   34.344   34.344
 calculate_rho_elec                  62  7.0   16.302   16.302   34.343   34.343
 fft_wrap_pw1pw2                    681 10.9    0.008    0.008   33.984   33.984
 fft_wrap_pw1pw2_70                 309 11.2    3.712    3.712   31.411   31.411
 density_rs2pw                       62  8.0    0.005    0.005   17.480   17.480
 fft3d_s                            682 12.9   15.327   15.327   15.346   15.346
 pw_poisson_solve                    62  9.0   11.120   11.120   12.083   12.083
 pw_scatter_s                       370 13.2   11.908   11.908   11.908   11.908
 -------------------------------------------------------------------------------

 The number of warnings for this run is : 0
 
 -------------------------------------------------------------------------------
  **** **** ******  **  PROGRAM ENDED AT                 2021-01-10 10:50:31.702
 ***** ** ***  *** **   PROGRAM RAN ON                                   gnode23
 **    ****   ******    PROGRAM RAN BY                               mayank.modi
 ***** **    ** ** **   PROGRAM PROCESS ID                                 28112
  **** **  *******  **  PROGRAM STOPPED IN /home/mayank.modi/ab-initio-thermodyn
                                           amics-of-water/mayank/cp2k_energy_cal
                                           culations
