 DBCSR| CPU Multiplication driver                                           XSMM
 DBCSR| Multrec recursion limit                                              512
 DBCSR| Multiplication stack size                                           1000
 DBCSR| Maximum elements for images                                    UNLIMITED
 DBCSR| Multiplicative factor virtual images                                   1
 DBCSR| Use multiplication densification                                       T
 DBCSR| Multiplication size stacks                                             3


  **** **** ******  **  PROGRAM STARTED AT               2021-01-18 13:55:27.499
 ***** ** ***  *** **   PROGRAM STARTED ON                               gnode52
 **    ****   ******    PROGRAM STARTED BY                           mayank.modi
 ***** **    ** ** **   PROGRAM PROCESS ID                                 10976
  **** **  *******  **  PROGRAM STARTED IN /home/mayank.modi/ab-initio-thermodyn
                                           amics-of-water/mayank/cp2k_energy_cal
                                           culations

 CP2K| version string:                                          CP2K version 7.1
 CP2K| source code revision number:                                  git:e635599
 CP2K| cp2kflags: omp libint fftw3 libxc xsmm spglib                            
 CP2K| is freely available from                            https://www.cp2k.org/
 CP2K| Program compiled at                          Mon Dec 23 19:23:12 CET 2019
 CP2K| Program compiled on                                                pc9404
 CP2K| Program compiled for                                Linux-x86-64-gfortran
 CP2K| Data directory path                                        /opt/cp2k/data
 CP2K| Input file name                   input_training_correct_cell/input988.in

 GLOBAL| Force Environment number                                              1
 GLOBAL| Basis set file name                                           BASIS_SET
 GLOBAL| Potential file name                                      GTH_POTENTIALS
 GLOBAL| MM Potential file name                                     MM_POTENTIAL
 GLOBAL| Coordinate file name                                      __STD_INPUT__
 GLOBAL| Method name                                                        CP2K
 GLOBAL| Project name                                                   H2O_bulk
 GLOBAL| Preferred FFT library                                             FFTW3
 GLOBAL| Preferred diagonalization lib.                                       SL
 GLOBAL| Run type                                                   ENERGY_FORCE
 GLOBAL| All-to-all communication in single precision                          F
 GLOBAL| FFTs using library dependent lengths                                  F
 GLOBAL| Global print level                                                  LOW
 GLOBAL| MPI I/O enabled                                                       T
 GLOBAL| Total number of message passing processes                             1
 GLOBAL| Number of threads for this process                                   36
 GLOBAL| This output is from process                                           0
 GLOBAL| CPU model name                Intel(R) Xeon(R) CPU E5-2640 v4 @ 2.40GHz
 GLOBAL| CPUID                                                              1002
 GLOBAL| Compiled for CPUID                                                    0

 MEMORY| system memory details [Kb]
 MEMORY|                        rank 0           min           max       average
 MEMORY| MemTotal            131893316     131893316     131893316     131893316
 MEMORY| MemFree             105527788     105527788     105527788     105527788
 MEMORY| Buffers              13834100      13834100      13834100      13834100
 MEMORY| Cached                4547784       4547784       4547784       4547784
 MEMORY| Slab                  7250584       7250584       7250584       7250584
 MEMORY| SReclaimable          4177220       4177220       4177220       4177220
 MEMORY| MemLikelyFree       128086892     128086892     128086892     128086892


 GENERATE|  Preliminary Number of Bonds generated:                             0
 GENERATE|  Achieved consistency in connectivity generation.

 *******************************************************************************
 *******************************************************************************
 **                                                                           **
 **     #####                         ##              ##                      **
 **    ##   ##            ##          ##              ##                      **
 **   ##     ##                       ##            ######                    **
 **   ##     ##  ##   ##  ##   #####  ##  ##   ####   ##    #####    #####    **
 **   ##     ##  ##   ##  ##  ##      ## ##   ##      ##   ##   ##  ##   ##   **
 **   ##  ## ##  ##   ##  ##  ##      ####     ###    ##   ######   ######    **
 **    ##  ###   ##   ##  ##  ##      ## ##      ##   ##   ##       ##        **
 **     #######   #####   ##   #####  ##  ##  ####    ##    #####   ##        **
 **           ##                                                    ##        **
 **                                                                           **
 **                                                ... make the atoms dance   **
 **                                                                           **
 **            Copyright (C) by CP2K developers group (2000 - 2019)           **
 **                                                                           **
 *******************************************************************************


 TOTAL NUMBERS AND MAXIMUM NUMBERS

  Total number of            - Atomic kinds:                                   2
                             - Atoms:                                        192
                             - Shell sets:                                   384
                             - Shells:                                       704
                             - Primitive Cartesian functions:                960
                             - Cartesian basis functions:                   1536
                             - Spherical basis functions:                   1472

  Maximum angular momentum of- Orbital basis functions:                        2
                             - Local part of the GTH pseudopotential:          2
                             - Non-local part of the GTH pseudopotential:      0


 SCF PARAMETERS         Density guess:                                    ATOMIC
                        --------------------------------------------------------
                        max_scf:                                             300
                        max_scf_history:                                       0
                        max_diis:                                              4
                        --------------------------------------------------------
                        eps_scf:                                        1.00E-07
                        eps_scf_history:                                0.00E+00
                        eps_diis:                                       1.00E-01
                        eps_eigval:                                     1.00E-05
                        --------------------------------------------------------
                        level_shift [a.u.]:                                 0.00
                        --------------------------------------------------------
                        Mixing method:                            BROYDEN_MIXING
                                                charge density mixing in g-space
                        --------------------------------------------------------
                        No outer SCF

 Number of electrons:                                                        512
 Number of occupied orbitals:                                                256
 Number of molecular orbitals:                                               256

 Number of orbital functions:                                               1472
 Number of independent orbital functions:                                   1472

 Extrapolation method: initial_guess


 SCF WAVEFUNCTION OPTIMIZATION

  Step     Update method      Time    Convergence         Total energy    Change
  ------------------------------------------------------------------------------
     1 NoMix/Diag. 0.40E+00    7.1     0.65903970     -1064.4403922673 -1.06E+03
     2 Broy./Diag. 0.40E+00    7.7     1.91020857      -996.8896666505  6.76E+01
     3 Broy./Diag. 0.40E+00    7.8     1.96968384     -1262.0586433728 -2.65E+02
     4 Broy./Diag. 0.40E+00    7.9     1.82561132     -1121.3449581111  1.41E+02
     5 Broy./Diag. 0.40E+00    7.9     1.31013394     -1090.9624881934  3.04E+01
     6 Broy./Diag. 0.40E+00    8.0     1.78783219     -1094.8246888686 -3.86E+00
     7 Broy./Diag. 0.40E+00    8.6     1.65052240     -1096.9901782782 -2.17E+00
     8 Broy./Diag. 0.40E+00    8.5     1.78997091     -1091.6685498153  5.32E+00
     9 Broy./Diag. 0.40E+00    8.8     1.55802940     -1085.4216014705  6.25E+00
    10 Broy./Diag. 0.40E+00    9.2     0.43545780     -1075.9582721808  9.46E+00
    11 Broy./Diag. 0.40E+00    8.9     0.19029018     -1072.1594882376  3.80E+00
    12 Broy./Diag. 0.40E+00    8.7     0.12320606     -1073.2788997957 -1.12E+00
    13 Broy./Diag. 0.40E+00    8.6     0.16628839     -1072.9970496986  2.82E-01
    14 Broy./Diag. 0.40E+00    8.7     0.11426460     -1078.3152479230 -5.32E+00
    15 Broy./Diag. 0.40E+00    8.9     1.06582796     -1075.6307332139  2.68E+00
    16 Broy./Diag. 0.40E+00    9.2     1.09077223     -1076.8649916360 -1.23E+00
    17 Broy./Diag. 0.40E+00    9.0     1.12621523     -1075.8403875557  1.02E+00
    18 Broy./Diag. 0.40E+00    8.7     1.10454341     -1078.6540871069 -2.81E+00
    19 Broy./Diag. 0.40E+00    8.8     0.07999834     -1076.8516520873  1.80E+00
    20 Broy./Diag. 0.40E+00    9.1     0.06162333     -1076.3859831245  4.66E-01
    21 Broy./Diag. 0.40E+00    8.8     0.03037712     -1076.2723068045  1.14E-01
    22 Broy./Diag. 0.40E+00    8.9     0.01205277     -1076.4994172781 -2.27E-01
    23 Broy./Diag. 0.40E+00    9.0     0.00783918     -1076.4558615546  4.36E-02
    24 Broy./Diag. 0.40E+00    9.0     0.00926377     -1076.4182884254  3.76E-02
    25 Broy./Diag. 0.40E+00    8.9     1.08093472     -1076.4706662151 -5.24E-02
    26 Broy./Diag. 0.40E+00    8.9     1.09123251     -1077.9386429957 -1.47E+00
    27 Broy./Diag. 0.40E+00    8.9     0.03708633     -1076.3562196531  1.58E+00
    28 Broy./Diag. 0.40E+00    8.8     0.02950608     -1076.6504800480 -2.94E-01
    29 Broy./Diag. 0.40E+00    9.0     0.01094310     -1076.4270829323  2.23E-01
    30 Broy./Diag. 0.40E+00    9.1     1.39511247     -1076.4854439009 -5.84E-02
    31 Broy./Diag. 0.40E+00    8.8     1.40310280     -1078.0548404704 -1.57E+00
    32 Broy./Diag. 0.40E+00    9.0     0.03195899     -1076.4663920914  1.59E+00
    33 Broy./Diag. 0.40E+00    9.1     1.11995225     -1076.4227300534  4.37E-02
    34 Broy./Diag. 0.40E+00    8.9     1.12954627     -1078.0468858703 -1.62E+00
    35 Broy./Diag. 0.40E+00    8.8     1.08543743     -1076.4644840657  1.58E+00
    36 Broy./Diag. 0.40E+00    9.2     1.09634620     -1078.0137530058 -1.55E+00
    37 Broy./Diag. 0.40E+00    8.9     0.03968908     -1076.4375872686  1.58E+00
    38 Broy./Diag. 0.40E+00    9.1     0.03891070     -1076.4346751829  2.91E-03
    39 Broy./Diag. 0.40E+00    9.1     0.01579329     -1076.5030253771 -6.84E-02
    40 Broy./Diag. 0.40E+00    9.0     0.00815455     -1076.4368571130  6.62E-02
    41 Broy./Diag. 0.40E+00    8.9     0.00459935     -1076.4915648313 -5.47E-02
    42 Broy./Diag. 0.40E+00    9.0     0.00234083     -1076.4571482135  3.44E-02
    43 Broy./Diag. 0.40E+00    9.1     0.00842945     -1076.4722011380 -1.51E-02
    44 Broy./Diag. 0.40E+00    9.0     1.39376152     -1076.4921968845 -2.00E-02
    45 Broy./Diag. 0.40E+00    8.7     1.40984054     -1078.0292345221 -1.54E+00
    46 Broy./Diag. 0.40E+00    8.5     1.11520066     -1077.9788300090  5.04E-02
    47 Broy./Diag. 0.40E+00    9.3     0.03972448     -1076.4105794963  1.57E+00
    48 Broy./Diag. 0.40E+00    9.0     0.03599450     -1076.3536250427  5.70E-02
    49 Broy./Diag. 0.40E+00    8.8     0.02356288     -1076.4792092931 -1.26E-01
    50 Broy./Diag. 0.40E+00    8.8     0.01410200     -1076.4197811619  5.94E-02
    51 Broy./Diag. 0.40E+00    8.5     0.00816449     -1076.3930527641  2.67E-02
    52 Broy./Diag. 0.40E+00    8.7     0.00400084     -1076.4243486741 -3.13E-02
    53 Broy./Diag. 0.40E+00    8.9     0.00428742     -1076.4422344184 -1.79E-02
    54 Broy./Diag. 0.40E+00    8.8     1.12338073     -1076.4258203071  1.64E-02
    55 Broy./Diag. 0.40E+00    8.4     1.13236570     -1078.0598703432 -1.63E+00
    56 Broy./Diag. 0.40E+00    8.4     1.11892596     -1078.0127828096  4.71E-02
    57 Broy./Diag. 0.40E+00    8.3     0.10010959     -1076.3890602179  1.62E+00
    58 Broy./Diag. 0.40E+00    8.9     0.06549871     -1076.1864772458  2.03E-01
    59 Broy./Diag. 0.40E+00    8.3     0.00763638     -1076.4725740795 -2.86E-01
    60 Broy./Diag. 0.40E+00    9.0     0.00531363     -1076.4327204178  3.99E-02
    61 Broy./Diag. 0.40E+00    9.1     0.00331438     -1076.4387896817 -6.07E-03
    62 Broy./Diag. 0.40E+00    8.9     0.00423170     -1076.4502829376 -1.15E-02
    63 Broy./Diag. 0.40E+00    9.0     0.00292458     -1076.4539446706 -3.66E-03
    64 Broy./Diag. 0.40E+00    8.9     0.01024053     -1076.4511682931  2.78E-03
    65 Broy./Diag. 0.40E+00    8.9     1.39307185     -1076.4720229675 -2.09E-02
    66 Broy./Diag. 0.40E+00    9.0     1.40938452     -1079.5221890521 -3.05E+00
    67 Broy./Diag. 0.40E+00    8.8     0.03348222     -1076.4138033321  3.11E+00
    68 Broy./Diag. 0.40E+00    9.0     1.12187265     -1076.3020751230  1.12E-01
    69 Broy./Diag. 0.40E+00    9.0     1.13119295     -1078.1238900596 -1.82E+00
    70 Broy./Diag. 0.40E+00    8.8     1.07662496     -1076.4879169016  1.64E+00
    71 Broy./Diag. 0.40E+00    8.8     1.09010614     -1077.8564304093 -1.37E+00
    72 Broy./Diag. 0.40E+00    8.9     0.10027345     -1076.3433530182  1.51E+00
    73 Broy./Diag. 0.40E+00    9.0     0.09247114     -1076.6209504449 -2.78E-01
    74 Broy./Diag. 0.40E+00    8.7     0.02311544     -1076.4364189191  1.85E-01
    75 Broy./Diag. 0.40E+00    9.0     0.01677728     -1076.4443718304 -7.95E-03
    76 Broy./Diag. 0.40E+00    8.9     0.01031099     -1076.4790376070 -3.47E-02
    77 Broy./Diag. 0.40E+00    8.7     0.00643006     -1076.4513776897  2.77E-02
    78 Broy./Diag. 0.40E+00    8.6     0.01217826     -1076.4744917879 -2.31E-02
    79 Broy./Diag. 0.40E+00    8.5     0.00829713     -1076.5059700884 -3.15E-02
    80 Broy./Diag. 0.40E+00    9.0     1.09327409     -1076.4702246748  3.57E-02
    81 Broy./Diag. 0.40E+00    9.0     1.10230544     -1078.0626757791 -1.59E+00
    82 Broy./Diag. 0.40E+00    8.9     1.39554425     -1076.4556007232  1.61E+00
    83 Broy./Diag. 0.40E+00    8.8     1.40553687     -1078.0779246467 -1.62E+00
    84 Broy./Diag. 0.40E+00    8.8     0.03619550     -1076.3987548728  1.68E+00
    85 Broy./Diag. 0.40E+00    8.6     0.03596037     -1076.6481562305 -2.49E-01
    86 Broy./Diag. 0.40E+00    8.9     0.01285197     -1076.4211361556  2.27E-01
    87 Broy./Diag. 0.40E+00    8.9     0.01116534     -1076.4444732456 -2.33E-02
    88 Broy./Diag. 0.40E+00    8.9     0.00535849     -1076.4325908843  1.19E-02
    89 Broy./Diag. 0.40E+00    8.9     0.00192810     -1076.4429376799 -1.03E-02
    90 Broy./Diag. 0.40E+00    9.3     1.11890690     -1076.4410158245  1.92E-03
    91 Broy./Diag. 0.40E+00    9.1     1.14589944     -1079.4802890466 -3.04E+00
    92 Broy./Diag. 0.40E+00    8.9     0.06090972     -1076.3485374854  3.13E+00
    93 Broy./Diag. 0.40E+00    8.8     0.05711409     -1076.5487337414 -2.00E-01
    94 Broy./Diag. 0.40E+00    8.9     0.01428138     -1076.4475363611  1.01E-01
    95 Broy./Diag. 0.40E+00    8.9     0.00907661     -1076.4476234768 -8.71E-05
    96 Broy./Diag. 0.40E+00    9.1     0.00886778     -1076.4594646327 -1.18E-02
    97 Broy./Diag. 0.40E+00    8.9     1.39575372     -1076.3981610372  6.13E-02
    98 Broy./Diag. 0.40E+00    9.0     1.40401208     -1078.0437645391 -1.65E+00
    99 Broy./Diag. 0.40E+00    9.2     0.01968233     -1076.4439374017  1.60E+00
   100 Broy./Diag. 0.40E+00    9.0     1.08603456     -1076.3217642928  1.22E-01
   101 Broy./Diag. 0.40E+00    8.9     1.09996658     -1078.0961758401 -1.77E+00
   102 Broy./Diag. 0.40E+00    9.0     0.04081875     -1076.4630020958  1.63E+00
   103 Broy./Diag. 0.40E+00    9.0     0.03621745     -1076.3034644230  1.60E-01
   104 Broy./Diag. 0.40E+00    9.0     0.02242182     -1076.4556358363 -1.52E-01
   105 Broy./Diag. 0.40E+00    9.0     0.00842535     -1076.4700230360 -1.44E-02
   106 Broy./Diag. 0.40E+00    8.8     0.00543430     -1076.4685369953  1.49E-03
   107 Broy./Diag. 0.40E+00    9.0     0.02783941     -1076.4381149715  3.04E-02
   108 Broy./Diag. 0.40E+00    8.8     0.01418140     -1076.5207710477 -8.27E-02
   109 Broy./Diag. 0.40E+00    8.7     0.01262945     -1076.4772853444  4.35E-02
   110 Broy./Diag. 0.40E+00    8.3     1.09442344     -1076.5118214887 -3.45E-02
   111 Broy./Diag. 0.40E+00    8.3     1.10332244     -1078.0897648252 -1.58E+00
   112 Broy./Diag. 0.40E+00    8.8     0.01416906     -1076.4416294250  1.65E+00
   113 Broy./Diag. 0.40E+00    9.0     0.01545212     -1076.4267276708  1.49E-02
   114 Broy./Diag. 0.40E+00    9.0     0.00756162     -1076.5055676951 -7.88E-02
   115 Broy./Diag. 0.40E+00    8.9     0.01119808     -1076.4728330057  3.27E-02
   116 Broy./Diag. 0.40E+00    8.9     0.02515822     -1076.4503407507  2.25E-02
   117 Broy./Diag. 0.40E+00    9.0     0.02220691     -1076.4817377495 -3.14E-02
   118 Broy./Diag. 0.40E+00    9.0     0.00241107     -1076.4595752352  2.22E-02
   119 Broy./Diag. 0.40E+00    8.9     0.00259382     -1076.4644519827 -4.88E-03
   120 Broy./Diag. 0.40E+00    9.0     1.39162764     -1076.4627935169  1.66E-03
   121 Broy./Diag. 0.40E+00    9.2     1.41302533     -1079.5455530820 -3.08E+00
   122 Broy./Diag. 0.40E+00    8.9     1.42274239     -1076.3966395874  3.15E+00
   123 Broy./Diag. 0.40E+00    8.7     1.40620528     -1078.1103046250 -1.71E+00
   124 Broy./Diag. 0.40E+00    8.5     1.13086838     -1078.0264705883  8.38E-02
   125 Broy./Diag. 0.40E+00    8.5     1.16493335     -1078.1227049313 -9.62E-02
   126 Broy./Diag. 0.40E+00    8.5     0.30203175     -1076.1534643181  1.97E+00
   127 Broy./Diag. 0.40E+00    8.2     0.26287171     -1077.1194645713 -9.66E-01
   128 Broy./Diag. 0.40E+00    8.7     0.03762135     -1076.3180616433  8.01E-01
   129 Broy./Diag. 0.40E+00    8.8     0.02168064     -1076.4098573821 -9.18E-02
   130 Broy./Diag. 0.40E+00    8.9     0.01043897     -1076.4335886741 -2.37E-02
   131 Broy./Diag. 0.40E+00    9.0     0.00597896     -1076.4048230777  2.88E-02
   132 Broy./Diag. 0.40E+00    9.0     0.02636670     -1076.4736170798 -6.88E-02
   133 Broy./Diag. 0.40E+00    9.0     1.09889967     -1076.4908253323 -1.72E-02
   134 Broy./Diag. 0.40E+00    9.0     1.10915827     -1078.0892473859 -1.60E+00
   135 Broy./Diag. 0.40E+00    8.9     0.01841351     -1076.4707187898  1.62E+00
   136 Broy./Diag. 0.40E+00    8.9     0.01563719     -1076.4677902375  2.93E-03
   137 Broy./Diag. 0.40E+00    8.7     0.01241164     -1076.4448399401  2.30E-02
   138 Broy./Diag. 0.40E+00    8.6     0.00550978     -1076.4707352481 -2.59E-02
   139 Broy./Diag. 0.40E+00    9.2     0.00278272     -1076.4484453016  2.23E-02
   140 Broy./Diag. 0.40E+00    9.1     0.00201208     -1076.4538410604 -5.40E-03
   141 Broy./Diag. 0.40E+00    9.8     0.00115002     -1076.4593536064 -5.51E-03
   142 Broy./Diag. 0.40E+00    8.7     0.01108833     -1076.4555570801  3.80E-03
   143 Broy./Diag. 0.40E+00    8.4     1.39500028     -1076.4432848558  1.23E-02
   144 Broy./Diag. 0.40E+00    8.5     1.42018393     -1079.4849294061 -3.04E+00
   145 Broy./Diag. 0.40E+00    8.4     0.06909934     -1076.2830421139  3.20E+00
   146 Broy./Diag. 0.40E+00    8.8     0.03642853     -1076.6321870269 -3.49E-01
   147 Broy./Diag. 0.40E+00    9.0     0.00806851     -1076.4493529757  1.83E-01
   148 Broy./Diag. 0.40E+00    9.2     0.00383859     -1076.4229077377  2.64E-02
   149 Broy./Diag. 0.40E+00    9.0     0.00275354     -1076.4462885694 -2.34E-02
   150 Broy./Diag. 0.40E+00    8.9     1.12125586     -1076.4461936300  9.49E-05
   151 Broy./Diag. 0.40E+00    8.8     1.13543237     -1077.9961344696 -1.55E+00
   152 Broy./Diag. 0.40E+00    8.7     0.02378546     -1076.3643065049  1.63E+00
   153 Broy./Diag. 0.40E+00    9.0     1.08531124     -1076.4526031086 -8.83E-02
   154 Broy./Diag. 0.40E+00    9.1     1.09272504     -1077.9686785906 -1.52E+00
   155 Broy./Diag. 0.40E+00    8.8     0.05665891     -1076.4402063275  1.53E+00
   156 Broy./Diag. 0.40E+00    8.9     0.06791539     -1076.6161513586 -1.76E-01
   157 Broy./Diag. 0.40E+00    9.0     0.02405607     -1076.3410224410  2.75E-01
   158 Broy./Diag. 0.40E+00    9.2     0.01268643     -1076.4495962547 -1.09E-01
   159 Broy./Diag. 0.40E+00    8.8     0.00855014     -1076.4673085437 -1.77E-02
   160 Broy./Diag. 0.40E+00    8.9     0.02084215     -1076.4309682292  3.63E-02
   161 Broy./Diag. 0.40E+00    9.1     0.01026466     -1076.4932905928 -6.23E-02
   162 Broy./Diag. 0.40E+00    8.7     0.00672058     -1076.4807684840  1.25E-02
   163 Broy./Diag. 0.40E+00    8.6     1.09781091     -1076.4658359696  1.49E-02
   164 Broy./Diag. 0.40E+00    9.0     1.10878368     -1078.0573019177 -1.59E+00
   165 Broy./Diag. 0.40E+00    8.8     0.01732228     -1076.4181372876  1.64E+00
   166 Broy./Diag. 0.40E+00    8.9     0.01242879     -1076.4990905101 -8.10E-02
   167 Broy./Diag. 0.40E+00    8.9     0.00812560     -1076.4433696645  5.57E-02
   168 Broy./Diag. 0.40E+00    8.7     0.00291956     -1076.4638794162 -2.05E-02
   169 Broy./Diag. 0.40E+00    8.7     0.00159928     -1076.4533915416  1.05E-02
   170 Broy./Diag. 0.40E+00    8.5     0.00117056     -1076.4588591992 -5.47E-03
   171 Broy./Diag. 0.40E+00    8.8     1.39345805     -1076.4600028900 -1.14E-03
   172 Broy./Diag. 0.40E+00    8.9     1.40183099     -1078.0680860159 -1.61E+00
   173 Broy./Diag. 0.40E+00    9.0     1.12407324     -1076.4303600058  1.64E+00
   174 Broy./Diag. 0.40E+00    8.9     1.39371685     -1079.5816179360 -3.15E+00
   175 Broy./Diag. 0.40E+00    8.8     1.39660867     -1078.0210570013  1.56E+00
   176 Broy./Diag. 0.40E+00    8.9     0.18954657     -1076.6013771218  1.42E+00
   177 Broy./Diag. 0.40E+00    9.1     0.11303813     -1076.2129687459  3.88E-01
   178 Broy./Diag. 0.40E+00    8.8     0.03985318     -1076.4641221054 -2.51E-01
   179 Broy./Diag. 0.40E+00    8.6     0.03521980     -1076.3490655613  1.15E-01
   180 Broy./Diag. 0.40E+00    8.3     0.01785538     -1076.4259165373 -7.69E-02
   181 Broy./Diag. 0.40E+00    8.9     0.01450426     -1076.4697524201 -4.38E-02
   182 Broy./Diag. 0.40E+00    8.9     0.00897645     -1076.3908672211  7.89E-02
   183 Broy./Diag. 0.40E+00    8.7     1.08772928     -1076.4510168166 -6.01E-02
   184 Broy./Diag. 0.40E+00    8.7     1.10244398     -1078.1494891984 -1.70E+00
   185 Broy./Diag. 0.40E+00    9.0     0.07288485     -1076.5372618711  1.61E+00
   186 Broy./Diag. 0.40E+00    9.2     0.05127694     -1076.2127942514  3.24E-01
   187 Broy./Diag. 0.40E+00    8.8     0.00877656     -1076.4969330495 -2.84E-01
   188 Broy./Diag. 0.40E+00    8.9     0.00563803     -1076.4898834886  7.05E-03
   189 Broy./Diag. 0.40E+00    9.3     0.00659259     -1076.4734425305  1.64E-02
   190 Broy./Diag. 0.40E+00    9.0     0.00654028     -1076.4625019164  1.09E-02
   191 Broy./Diag. 0.40E+00    9.0     1.39343503     -1076.4740334853 -1.15E-02
   192 Broy./Diag. 0.40E+00    9.1     1.40321732     -1078.0580365948 -1.58E+00
   193 Broy./Diag. 0.40E+00    9.3     1.09261531     -1076.4393317166  1.62E+00
   194 Broy./Diag. 0.40E+00    8.9     1.10262217     -1078.0993582652 -1.66E+00
   195 Broy./Diag. 0.40E+00    8.9     0.03915188     -1076.4373758702  1.66E+00
   196 Broy./Diag. 0.40E+00    8.9     0.02891692     -1076.5346562659 -9.73E-02
   197 Broy./Diag. 0.40E+00    8.9     0.00923379     -1076.4100688952  1.25E-01
   198 Broy./Diag. 0.40E+00    8.7     0.00497212     -1076.4517706487 -4.17E-02
   199 Broy./Diag. 0.40E+00    8.7     0.00228447     -1076.4583524063 -6.58E-03
   200 Broy./Diag. 0.40E+00    9.0     0.00116470     -1076.4445194682  1.38E-02
   201 Broy./Diag. 0.40E+00    8.9     0.01209223     -1076.4481118706 -3.59E-03
   202 Broy./Diag. 0.40E+00    9.1     0.00652505     -1076.4801189240 -3.20E-02
   203 Broy./Diag. 0.40E+00    8.8     1.12110937     -1076.4676179091  1.25E-02
   204 Broy./Diag. 0.40E+00    9.0     1.14199574     -1079.5436951323 -3.08E+00
   205 Broy./Diag. 0.40E+00    8.9     0.02747028     -1076.4261012822  3.12E+00
   206 Broy./Diag. 0.40E+00    9.0     0.02509439     -1076.3230860087  1.03E-01
   207 Broy./Diag. 0.40E+00    8.9     1.39443157     -1076.5095548075 -1.86E-01
   208 Broy./Diag. 0.40E+00    9.0     1.40248428     -1078.0029031716 -1.49E+00
   209 Broy./Diag. 0.40E+00    9.0     0.04242118     -1076.4370273088  1.57E+00
   210 Broy./Diag. 0.40E+00    9.1     0.03175188     -1076.3873525594  4.97E-02
   211 Broy./Diag. 0.40E+00    9.0     0.00757542     -1076.4153814739 -2.80E-02
   212 Broy./Diag. 0.40E+00    9.0     0.00499237     -1076.4614848268 -4.61E-02
   213 Broy./Diag. 0.40E+00    9.0     1.08360982     -1076.4460808910  1.54E-02
   214 Broy./Diag. 0.40E+00    9.0     1.09593835     -1078.0532198468 -1.61E+00
   215 Broy./Diag. 0.40E+00    9.0     0.05633967     -1076.5275655031  1.53E+00
   216 Broy./Diag. 0.40E+00    9.0     0.03831771     -1076.3555851527  1.72E-01
   217 Broy./Diag. 0.40E+00    8.9     0.02593589     -1076.4829992819 -1.27E-01
   218 Broy./Diag. 0.40E+00    9.2     0.01424449     -1076.4951595789 -1.22E-02
   219 Broy./Diag. 0.40E+00    9.0     0.00543034     -1076.4657356849  2.94E-02
   220 Broy./Diag. 0.40E+00    9.0     1.12176563     -1076.4675541194 -1.82E-03
   221 Broy./Diag. 0.40E+00    9.0     1.13185172     -1078.0470305034 -1.58E+00
   222 Broy./Diag. 0.40E+00    8.8     0.02073055     -1076.4425234901  1.60E+00
   223 Broy./Diag. 0.40E+00    8.7     1.09437254     -1076.4203179110  2.22E-02
   224 Broy./Diag. 0.40E+00    8.9     1.10411192     -1078.1094653558 -1.69E+00
   225 Broy./Diag. 0.40E+00    9.0     0.02162341     -1076.4353602383  1.67E+00
   226 Broy./Diag. 0.40E+00    9.0     0.01963212     -1076.4621066049 -2.67E-02
   227 Broy./Diag. 0.40E+00    8.9     0.00594644     -1076.4630959745 -9.89E-04
   228 Broy./Diag. 0.40E+00    9.0     0.00436742     -1076.4415769464  2.15E-02
   229 Broy./Diag. 0.40E+00    9.0     0.00196741     -1076.4512231482 -9.65E-03
   230 Broy./Diag. 0.40E+00    8.9     0.00956037     -1076.4563551375 -5.13E-03
   231 Broy./Diag. 0.40E+00    8.9     0.00500142     -1076.4822416118 -2.59E-02
   232 Broy./Diag. 0.40E+00    9.1     1.39376630     -1076.4551417463  2.71E-02
   233 Broy./Diag. 0.40E+00    9.0     1.40450964     -1078.0715643532 -1.62E+00
   234 Broy./Diag. 0.40E+00    9.0     1.11738744     -1077.9858913413  8.57E-02
   235 Broy./Diag. 0.40E+00    9.1     0.03324397     -1076.3811127181  1.60E+00
   236 Broy./Diag. 0.40E+00    8.9     0.04802308     -1076.4678207806 -8.67E-02
   237 Broy./Diag. 0.40E+00    9.0     0.02263795     -1076.4712730731 -3.45E-03
   238 Broy./Diag. 0.40E+00    8.9     0.00619459     -1076.4410781250  3.02E-02
   239 Broy./Diag. 0.40E+00    8.9     0.00615209     -1076.4414905025 -4.12E-04
   240 Broy./Diag. 0.40E+00    9.1     0.00337210     -1076.4446801781 -3.19E-03
   241 Broy./Diag. 0.40E+00    9.1     0.00211881     -1076.4413099996  3.37E-03
   242 Broy./Diag. 0.40E+00    8.9     0.00686316     -1076.4534734257 -1.22E-02
   243 Broy./Diag. 0.40E+00    8.8     1.12153959     -1076.4609128461 -7.44E-03
   244 Broy./Diag. 0.40E+00    8.9     1.39446008     -1078.0496633781 -1.59E+00
   245 Broy./Diag. 0.40E+00    9.0     1.41485359     -1078.0544505772 -4.79E-03
   246 Broy./Diag. 0.40E+00    9.0     1.06552260     -1076.4054567667  1.65E+00
   247 Broy./Diag. 0.40E+00    8.9     1.12428077     -1077.9010935530 -1.50E+00
   248 Broy./Diag. 0.40E+00    8.9     1.13600429     -1077.9362113447 -3.51E-02
   249 Broy./Diag. 0.40E+00    8.9     0.12277890     -1076.3635312269  1.57E+00
   250 Broy./Diag. 0.40E+00    9.0     0.09358718     -1076.3596522582  3.88E-03
   251 Broy./Diag. 0.40E+00    9.2     0.01839621     -1076.4728100024 -1.13E-01
   252 Broy./Diag. 0.40E+00    8.7     0.01772834     -1076.4428055744  3.00E-02
   253 Broy./Diag. 0.40E+00    8.4     0.01289190     -1076.4120761956  3.07E-02
   254 Broy./Diag. 0.40E+00    8.9     0.03685839     -1076.4436207252 -3.15E-02
   255 Broy./Diag. 0.40E+00    9.0     0.02114529     -1076.5356932132 -9.21E-02
   256 Broy./Diag. 0.40E+00    8.8     1.09443668     -1076.4846898626  5.10E-02
   257 Broy./Diag. 0.40E+00    8.7     1.10633213     -1077.9886293433 -1.50E+00
   258 Broy./Diag. 0.40E+00    8.9     0.02033545     -1076.4213747144  1.57E+00
   259 Broy./Diag. 0.40E+00    8.9     0.01725761     -1076.5157216539 -9.43E-02
   260 Broy./Diag. 0.40E+00    9.1     0.00897690     -1076.4575313947  5.82E-02
   261 Broy./Diag. 0.40E+00    9.0     0.00258141     -1076.4687598161 -1.12E-02
   262 Broy./Diag. 0.40E+00    8.9     0.00312328     -1076.4496396912  1.91E-02
   263 Broy./Diag. 0.40E+00    8.9     0.05335553     -1076.4630463198 -1.34E-02
   264 Broy./Diag. 0.40E+00    9.0     0.05458019     -1076.5433721894 -8.03E-02
   265 Broy./Diag. 0.40E+00    9.0     0.00368934     -1076.4623564231  8.10E-02
   266 Broy./Diag. 0.40E+00    8.9     1.39580090     -1076.4724459349 -1.01E-02
   267 Broy./Diag. 0.40E+00    9.0     1.41793694     -1079.5745325221 -3.10E+00
   268 Broy./Diag. 0.40E+00    8.9     1.13307845     -1077.9840644491  1.59E+00
   269 Broy./Diag. 0.40E+00    8.8     0.08205403     -1076.4783240063  1.51E+00
   270 Broy./Diag. 0.40E+00    9.0     0.07062459     -1076.2939209737  1.84E-01
   271 Broy./Diag. 0.40E+00    8.9     0.01744014     -1076.3946547907 -1.01E-01
   272 Broy./Diag. 0.40E+00    8.8     0.01113220     -1076.3842852614  1.04E-02
   273 Broy./Diag. 0.40E+00    8.9     0.00841220     -1076.4116487297 -2.74E-02
   274 Broy./Diag. 0.40E+00    9.0     0.00529994     -1076.4095007646  2.15E-03
   275 Broy./Diag. 0.40E+00    9.1     0.00404633     -1076.3860314516  2.35E-02
   276 Broy./Diag. 0.40E+00    9.0     1.08866902     -1076.4283069534 -4.23E-02
   277 Broy./Diag. 0.40E+00    8.7     1.10263464     -1078.1067401459 -1.68E+00
   278 Broy./Diag. 0.40E+00    9.0     0.05123168     -1076.5766743212  1.53E+00
   279 Broy./Diag. 0.40E+00    9.4     0.05295584     -1076.1766216749  4.00E-01
   280 Broy./Diag. 0.40E+00    9.4     0.02079430     -1076.3970897685 -2.20E-01
   281 Broy./Diag. 0.40E+00    8.9     0.01161386     -1076.5696088648 -1.73E-01
   282 Broy./Diag. 0.40E+00    8.8     0.00817240     -1076.4565503858  1.13E-01
   283 Broy./Diag. 0.40E+00    9.1     0.00335003     -1076.4641661840 -7.62E-03
   284 Broy./Diag. 0.40E+00    9.0     0.00249477     -1076.4738742541 -9.71E-03
   285 Broy./Diag. 0.40E+00    9.3     0.00200252     -1076.4604307225  1.34E-02
   286 Broy./Diag. 0.40E+00    8.8     1.39428131     -1076.4478206365  1.26E-02
   287 Broy./Diag. 0.40E+00    8.9     1.41182497     -1081.0630324323 -4.62E+00
   288 Broy./Diag. 0.40E+00    8.8     0.05001437     -1076.3910719739  4.67E+00
   289 Broy./Diag. 0.40E+00    8.7     0.04098423     -1076.0786405084  3.12E-01
   290 Broy./Diag. 0.40E+00    9.0     0.03486953     -1076.4596184926 -3.81E-01
   291 Broy./Diag. 0.40E+00    8.9     0.01690130     -1076.5268734759 -6.73E-02
   292 Broy./Diag. 0.40E+00    8.9     0.00572712     -1076.3751745341  1.52E-01
   293 Broy./Diag. 0.40E+00    9.0     0.00441971     -1076.4148582234 -3.97E-02
   294 Broy./Diag. 0.40E+00    8.8     0.00383626     -1076.4147226962  1.36E-04
   295 Broy./Diag. 0.40E+00    8.8     0.00165702     -1076.4187379811 -4.02E-03
   296 Broy./Diag. 0.40E+00    8.6     1.08247099     -1076.4173174884  1.42E-03
   297 Broy./Diag. 0.40E+00    8.8     1.09129084     -1078.0557237346 -1.64E+00
   298 Broy./Diag. 0.40E+00    9.0     0.02707944     -1076.5384966561  1.52E+00
   299 Broy./Diag. 0.40E+00    8.9     0.02213208     -1076.5699930164 -3.15E-02
   300 Broy./Diag. 0.40E+00    8.8     0.00769467     -1076.4786063188  9.14E-02

  Leaving inner SCF loop after reaching   300 steps.


  Electronic density on regular grids:       -512.0001887100       -0.0001887100
  Core density on regular grids:              511.9998220626       -0.0001779374
  Total charge density on r-space grids:       -0.0003666474
  Total charge density g-space grids:          -0.0003666474

  Overlap energy of the core charge distribution:               0.00000000000000
  Self energy of the core charge distribution:              -2838.21791979120962
  Core Hamiltonian energy:                                    760.07529576674904
  Hartree energy:                                            1240.55634207382741
  Exchange-correlation energy:                               -238.89232436816457

  Total energy:                                             -1076.47860631879757

 *** WARNING in qs_scf.F:542 :: SCF run NOT converged ***


 ENERGY| Total FORCE_EVAL ( QS ) energy (a.u.):            -1076.504615452556664


 ATOMIC FORCES in [a.u.]

 # Atom   Kind   Element          X              Y              Z
      1      1      O          -0.07872127     0.06045776     0.09013531
      2      2      H          -0.00798981    -0.02421353    -0.01278254
      3      2      H           0.08233520     0.01909383     0.06576516
      4      1      O          -0.07065176    -0.02796765     0.17402410
      5      2      H           0.00523759    -0.09550614     0.01374116
      6      2      H          -0.00949687     0.07211552    -0.03431665
      7      1      O          -0.00133975     0.07461374     0.14768430
      8      2      H           0.05725698    -0.08238294    -0.05813060
      9      2      H          -0.00867428     0.03458074    -0.06029964
     10      1      O           0.08737873    -0.07616162     0.00289263
     11      2      H          -0.07253056    -0.10808596     0.07667398
     12      2      H           0.08691058     0.07076156     0.02647963
     13      1      O          -0.09563487    -0.09333643     0.01854551
     14      2      H          -0.08717904     0.00637924     0.01615729
     15      2      H           0.10727586    -0.04161020    -0.00809028
     16      1      O          -0.02639118     0.00872946    -0.16953642
     17      2      H          -0.05130917    -0.10003274     0.06737929
     18      2      H           0.07530129     0.00442356     0.05348529
     19      1      O          -0.09524375     0.00612702     0.17118166
     20      2      H           0.09418302    -0.03982884    -0.04250966
     21      2      H          -0.02738632    -0.10770445    -0.05690625
     22      1      O           0.01961729     0.15308792     0.07305664
     23      2      H           0.04271759     0.02047404    -0.10390317
     24      2      H          -0.07319982    -0.11193957     0.02514947
     25      1      O           0.15477658    -0.03149453     0.10226506
     26      2      H          -0.10476846     0.00138003     0.04842165
     27      2      H           0.00448971     0.07282538    -0.05919278
     28      1      O          -0.01316214    -0.13641188    -0.09438277
     29      2      H           0.08670216    -0.01551531     0.05830577
     30      2      H          -0.07755478     0.00027820     0.00189356
     31      1      O          -0.03143894     0.19350026    -0.05491826
     32      2      H          -0.01726372    -0.05826800    -0.02803488
     33      2      H           0.04330502    -0.03758047    -0.00960901
     34      1      O          -0.00786249     0.16698104     0.09397284
     35      2      H          -0.06501707     0.01530131    -0.08429067
     36      2      H           0.01412746    -0.07843764     0.07609296
     37      1      O           0.06416054    -0.10294250     0.02662853
     38      2      H          -0.07775731     0.05080696     0.08094862
     39      2      H          -0.00884289    -0.05266636     0.07763611
     40      1      O          -0.12295897    -0.05746126    -0.15518483
     41      2      H           0.03526208     0.06073611     0.03362253
     42      2      H          -0.07005450     0.04335451     0.05703251
     43      1      O           0.06102092     0.12197752    -0.06043348
     44      2      H           0.06120285    -0.02325336    -0.11156066
     45      2      H          -0.00578526    -0.07856218     0.07625036
     46      1      O          -0.05936395     0.12108870     0.05524975
     47      2      H           0.04178135    -0.09918921    -0.02257794
     48      2      H           0.06441169    -0.01049124     0.06010268
     49      1      O          -0.08274052    -0.05000084     0.14604893
     50      2      H          -0.04513368    -0.03340558    -0.00723489
     51      2      H           0.00546731    -0.01210185    -0.06474582
     52      1      O          -0.06061895     0.07538623     0.13596854
     53      2      H           0.11083603     0.00158410     0.01484754
     54      2      H          -0.04633726    -0.05275348    -0.03499748
     55      1      O           0.16450170     0.00873928     0.04596486
     56      2      H          -0.05911380     0.05547334    -0.03373291
     57      2      H          -0.02210645    -0.12058492     0.04434633
     58      1      O          -0.14619166    -0.12751959     0.07682828
     59      2      H           0.10300963    -0.02486087    -0.02338877
     60      2      H          -0.05060130     0.08382821    -0.03926690
     61      1      O           0.12713102     0.00100315    -0.12866509
     62      2      H          -0.07895054    -0.11810403    -0.01020554
     63      2      H           0.03308478    -0.01532617     0.06010496
     64      1      O           0.09735770     0.09136906    -0.07225466
     65      2      H          -0.01946254    -0.01442844     0.03702238
     66      2      H          -0.00273645    -0.01061285    -0.08133629
     67      1      O           0.05147950    -0.12378481     0.07037629
     68      2      H          -0.03604450     0.05312505     0.08253100
     69      2      H          -0.04086602     0.03128749    -0.10212155
     70      1      O           0.01305284    -0.12747710     0.01754570
     71      2      H          -0.02459493     0.03844458     0.00626612
     72      2      H           0.01460881    -0.00758999    -0.07661845
     73      1      O           0.13353310    -0.01248080     0.03089062
     74      2      H          -0.08353968    -0.01846175     0.09354229
     75      2      H          -0.04117244     0.07073172    -0.01051022
     76      1      O           0.12624018    -0.05876848    -0.14430309
     77      2      H           0.09123666     0.05850119    -0.00028463
     78      2      H          -0.09126493    -0.06449659     0.04521778
     79      1      O           0.07039990     0.03941292     0.00972881
     80      2      H          -0.08744466    -0.08539098     0.03181724
     81      2      H           0.06004656     0.03144214     0.03504904
     82      1      O           0.11098093    -0.07285894    -0.09244803
     83      2      H           0.06544544     0.08550917     0.03668686
     84      2      H          -0.05034284     0.05459172     0.03637174
     85      1      O          -0.04698414     0.06639942    -0.05900090
     86      2      H          -0.03688386    -0.10682818    -0.04105240
     87      2      H          -0.07434417     0.10021949    -0.03147198
     88      1      O           0.01412998    -0.05876804     0.10751999
     89      2      H          -0.08938088     0.02783379     0.08037947
     90      2      H          -0.07319004    -0.03659732    -0.10199458
     91      1      O          -0.01365161     0.03993411     0.13730068
     92      2      H           0.06686796    -0.01856207     0.01038547
     93      2      H          -0.04444793    -0.02233977    -0.08872205
     94      1      O          -0.05522157     0.09239340     0.08275384
     95      2      H          -0.00167286    -0.06138989     0.01248984
     96      2      H          -0.00237637     0.10528796    -0.00115400
     97      1      O          -0.08379130     0.04168399    -0.11530161
     98      2      H          -0.08975791    -0.06297609     0.03843846
     99      2      H           0.05452536     0.04610124     0.06503499
    100      1      O          -0.15049389     0.04243938     0.12022394
    101      2      H           0.04994504     0.03892364    -0.03804356
    102      2      H           0.02857346    -0.12291486    -0.01125213
    103      1      O           0.16963127     0.01127663    -0.08153624
    104      2      H          -0.00318987    -0.01899170     0.04836765
    105      2      H          -0.02357015     0.06247388     0.06052911
    106      1      O           0.04853534     0.00085778    -0.08749007
    107      2      H          -0.00136925    -0.04183535    -0.07431445
    108      2      H          -0.08540917     0.06068421     0.05888967
    109      1      O          -0.10679962     0.01963337    -0.13023675
    110      2      H           0.07049672     0.03416863     0.01076251
    111      2      H           0.02393072    -0.06681196     0.10046153
    112      1      O           0.07189531    -0.18543017    -0.03896244
    113      2      H          -0.02233456    -0.00623978     0.07405405
    114      2      H           0.04992321     0.02094902     0.02210040
    115      1      O           0.00643447     0.04949069     0.04870134
    116      2      H           0.11218658     0.05884401     0.00996114
    117      2      H          -0.07668939    -0.01456466     0.04029597
    118      1      O          -0.07651378     0.03302744    -0.00900161
    119      2      H           0.03001996    -0.04355322    -0.05029261
    120      2      H           0.05579689     0.05689592     0.01925332
    121      1      O           0.02151382     0.18316374     0.05079277
    122      2      H          -0.06098426    -0.10797399    -0.08193244
    123      2      H           0.02191391    -0.00176876     0.01504030
    124      1      O          -0.16404603    -0.13360668    -0.09687386
    125      2      H           0.05362341     0.09118039    -0.00031278
    126      2      H           0.07234132    -0.05594882    -0.02584071
    127      1      O          -0.12460178     0.09623060     0.17584321
    128      2      H           0.09765453     0.04438400    -0.01309792
    129      2      H          -0.02098688    -0.10638633    -0.02333931
    130      1      O          -0.06741749    -0.04445745    -0.07705085
    131      2      H           0.01916200     0.01702560    -0.06673724
    132      2      H          -0.02649233     0.09093615     0.02159012
    133      1      O           0.03801728    -0.02307338     0.15231052
    134      2      H          -0.01785521    -0.00166419    -0.01229454
    135      2      H           0.06287781    -0.07846723    -0.05277337
    136      1      O           0.01804032    -0.00073611     0.00856568
    137      2      H           0.07271046    -0.00936154    -0.02353659
    138      2      H          -0.01348549     0.04690037    -0.07590774
    139      1      O           0.02769475    -0.02942741     0.00728664
    140      2      H           0.04987216    -0.01897780     0.01365843
    141      2      H          -0.02474342     0.03699496     0.12979103
    142      1      O           0.11214637    -0.02286919     0.11381070
    143      2      H          -0.08494904    -0.05924282    -0.06436282
    144      2      H           0.00437947     0.04944740     0.03395218
    145      1      O           0.07139643    -0.07617667     0.10610899
    146      2      H          -0.03409174    -0.08302867    -0.09692610
    147      2      H          -0.09244847     0.01124581     0.01375462
    148      1      O          -0.16491410    -0.17607624     0.00976621
    149      2      H           0.00821342     0.01132315     0.04576149
    150      2      H          -0.00200778     0.04999470    -0.08471339
    151      1      O          -0.02201098    -0.04360196    -0.00817631
    152      2      H          -0.02560404     0.03673111     0.05818188
    153      2      H           0.04358561    -0.03666684     0.04306961
    154      1      O          -0.02545560     0.03230840     0.05805393
    155      2      H          -0.00469681     0.00242105     0.09726205
    156      2      H           0.00616483     0.06268009    -0.08830277
    157      1      O          -0.14349256    -0.09170471    -0.01761213
    158      2      H           0.03517997     0.06406965    -0.00816330
    159      2      H           0.07676425    -0.02089869     0.00369020
    160      1      O          -0.00703599     0.02814421    -0.08827393
    161      2      H           0.04936946     0.11406418     0.05845236
    162      2      H          -0.01218521    -0.03524206     0.03977816
    163      1      O           0.08346339    -0.00533522     0.08070691
    164      2      H           0.00829752    -0.02766151     0.09415524
    165      2      H           0.01752380    -0.01969117    -0.11265586
    166      1      O          -0.13691877     0.02587689     0.07789295
    167      2      H           0.05840935     0.04497004    -0.03730948
    168      2      H           0.05689059    -0.07163006    -0.01922607
    169      1      O          -0.12134960     0.07502514    -0.12317044
    170      2      H           0.02754188    -0.02262757     0.02376565
    171      2      H          -0.01389626     0.06885632     0.03691471
    172      1      O          -0.00085284    -0.02506949    -0.09435913
    173      2      H           0.05358190     0.02218939    -0.06143611
    174      2      H          -0.05433051     0.02904362     0.00107252
    175      1      O           0.05268218     0.03688675    -0.06267160
    176      2      H           0.06250678     0.03570451    -0.07808121
    177      2      H           0.03556202    -0.06310070     0.01732099
    178      1      O           0.11359699     0.12004009     0.04715641
    179      2      H           0.03470749    -0.03962880     0.06968200
    180      2      H          -0.10470139    -0.03742317    -0.07026102
    181      1      O           0.01302272     0.12048419    -0.01958969
    182      2      H           0.04035683     0.04404371    -0.02828164
    183      2      H          -0.02197390    -0.10089619     0.08581715
    184      1      O          -0.07345742     0.15617879     0.12531762
    185      2      H          -0.07521141    -0.02273682    -0.01924850
    186      2      H           0.07315162    -0.05628070    -0.00488461
    187      1      O          -0.14711732     0.01945981     0.06744661
    188      2      H          -0.03824578    -0.01752036     0.07262066
    189      2      H           0.07536287    -0.03359947    -0.05529374
    190      1      O          -0.01882525     0.08668560    -0.00597298
    191      2      H           0.02508224     0.08192261     0.03589792
    192      2      H           0.04109324    -0.06975320    -0.01193893
 SUM OF ATOMIC FORCES          -0.18508613    -0.37453237     1.24891016     1.31693127

 -------------------------------------------------------------------------------
 -                                                                             -
 -                                DBCSR STATISTICS                             -
 -                                                                             -
 -------------------------------------------------------------------------------
 COUNTER                                    TOTAL       BLAS       SMM       ACC
 flops     5 x     5 x   256           6102835200       0.0%    100.0%      0.0%
 flops    13 x     5 x   256           7342666240       0.0%    100.0%      0.0%
 flops     5 x    13 x   256           7563046400       0.0%    100.0%      0.0%
 flops    13 x    13 x   256          10339836416       0.0%    100.0%      0.0%
 flops inhomo. stacks                           0       0.0%      0.0%      0.0%
 flops total                        31.348384E+09       0.0%    100.0%      0.0%
 flops max/rank                     31.348384E+09       0.0%    100.0%      0.0%
 matmuls inhomo. stacks                         0       0.0%      0.0%      0.0%
 matmuls total                            1044169       0.0%    100.0%      0.0%
 number of processed stacks                 42140       0.0%    100.0%      0.0%
 average stack size                                     0.0      24.8       0.0
 marketing flops                   333.927416E+09
 -------------------------------------------------------------------------------
 # multiplications                            301
 max memory usage/rank               3.704201E+09
 # max total images/rank                        1
 # max 3D layers                                1
 # MPI messages exchanged                       0
 MPI messages size (bytes):
  total size                         0.000000E+00
  min size                           0.000000E+00
  max size                           0.000000E+00
  average size                       0.000000E+00
 MPI breakdown and total messages size (bytes):
             size <=      128                   0                        0
       128 < size <=     8192                   0                        0
      8192 < size <=    32768                   0                        0
     32768 < size <=   131072                   0                        0
    131072 < size <=  4194304                   0                        0
   4194304 < size <= 16777216                   0                        0
  16777216 < size                               0                        0
 -------------------------------------------------------------------------------

 MEMORY| Estimated peak process memory [MiB]                                3527

 -------------------------------------------------------------------------------
 -                                                                             -
 -                           R E F E R E N C E S                               -
 -                                                                             -
 -------------------------------------------------------------------------------
 
 CP2K version 7.1, the CP2K developers group (2019).
 CP2K is freely available from https://www.cp2k.org/ .

 Schuett, Ole; Messmer, Peter; Hutter, Juerg; VandeVondele, Joost. 
 Electronic Structure Calculations on Graphics Processing Units, John
 Wiley & Sons, Ltd, 173-190 (2016). 
 GPU-Accelerated Sparse Matrix-Matrix Multiplication for
 Linear Scaling Density Functional Theory.
 https://dx.doi.org/10.1002/9781118670712.ch8

 Borstnik, U; VandeVondele, J; Weber, V; Hutter, J. 
 PARALLEL COMPUTING, 40 (5-6), 47-58 (2014). 
 Sparse matrix multiplication: The distributed block-compressed sparse
 row library.
 https://dx.doi.org/10.1016/j.parco.2014.03.012

 Hutter, J; Iannuzzi, M; Schiffmann, F; VandeVondele, J. 
 WIREs Comput Mol Sci., 4 (1), 15-25 (2014). 
 CP2K: atomistic simulations of condensed matter systems.
 https://dx.doi.org/10.1002/wcms.1159

 Krack, M. 
 THEORETICAL CHEMISTRY ACCOUNTS, 114 (1-3), 145-152 (2005). 
 Pseudopotentials for H to Kr optimized for gradient-corrected
 exchange-correlation functionals.
 https://dx.doi.org/10.1007/s00214-005-0655-y

 VandeVondele, J; Krack, M; Mohamed, F; Parrinello, M; Chassaing, T;
 Hutter, J. COMPUTER PHYSICS COMMUNICATIONS, 167 (2), 103-128 (2005). 
 QUICKSTEP: Fast and accurate density functional calculations using a
 mixed Gaussian and plane waves approach.
 https://dx.doi.org/10.1016/j.cpc.2004.12.014

 Frigo, M; Johnson, SG. 
 PROCEEDINGS OF THE IEEE, 93 (2), 216-231 (2005). 
 The design and implementation of FFTW3.
 https://dx.doi.org/10.1109/JPROC.2004.840301

 Hartwigsen, C; Goedecker, S; Hutter, J. 
 PHYSICAL REVIEW B, 58 (7), 3641-3662 (1998). 
 Relativistic separable dual-space Gaussian pseudopotentials from H to Rn.
 https://dx.doi.org/10.1103/PhysRevB.58.3641

 Lippert, G; Hutter, J; Parrinello, M. 
 MOLECULAR PHYSICS, 92 (3), 477-487 (1997). 
 A hybrid Gaussian and plane wave density functional scheme.
 https://dx.doi.org/10.1080/002689797170220

 Goedecker, S; Teter, M; Hutter, J. 
 PHYSICAL REVIEW B, 54 (3), 1703-1710 (1996). 
 Separable dual-space Gaussian pseudopotentials.
 https://dx.doi.org/10.1103/PhysRevB.54.1703


 -------------------------------------------------------------------------------
 -                                                                             -
 -                                T I M I N G                                  -
 -                                                                             -
 -------------------------------------------------------------------------------
 SUBROUTINE                       CALLS  ASD         SELF TIME        TOTAL TIME
                                MAXIMUM       AVERAGE  MAXIMUM  AVERAGE  MAXIMUM
 CP2K                                 1  1.0    0.145    0.145 2666.693 2666.693
 qs_forces                            1  2.0    0.000    0.000 2665.113 2665.113
 qs_energies                          1  3.0    0.000    0.000 2664.504 2664.504
 scf_env_do_scf                       1  4.0    0.001    0.001 2662.446 2662.446
 scf_env_do_scf_inner_loop          300  5.0    0.062    0.062 2662.446 2662.446
 qs_scf_new_mos                     300  6.0    0.011    0.011 2020.074 2020.074
 eigensolver                        300  7.0    0.051    0.051 1984.734 1984.734
 cp_fm_syevd                        300  8.0 1279.885 1279.885 1281.755 1281.755
 cp_fm_cholesky_restore             900  8.0  701.877  701.877  701.877  701.877
 gspace_mixing                      299  6.0    4.868    4.868  349.574  349.574
 broyden_mixing                     299  7.0  315.248  315.248  315.250  315.250
 qs_ks_update_qs_env                300  6.0    0.003    0.003  148.953  148.953
 rebuild_ks_matrix                  301  7.0    0.001    0.001  148.946  148.946
 qs_ks_build_kohn_sham_matrix       301  8.0    0.071    0.071  148.945  148.945
 pw_transfer                       3912  9.9    0.330    0.330  142.894  142.894
 qs_rho_update_rho                  301  6.0    0.003    0.003  142.495  142.495
 calculate_rho_elec                 301  7.0   70.480   70.480  142.492  142.492
 fft_wrap_pw1pw2                   3310 10.9    0.033    0.033  138.640  138.640
 fft_wrap_pw1pw2_70                1504 11.2   15.516   15.516  126.654  126.654
 density_rs2pw                      301  8.0    0.025    0.025   69.503   69.503
 fft3d_s                           3311 12.9   65.933   65.933   65.958   65.958
 -------------------------------------------------------------------------------

 The number of warnings for this run is : 1
 
 -------------------------------------------------------------------------------
  **** **** ******  **  PROGRAM ENDED AT                 2021-01-18 14:39:54.406
 ***** ** ***  *** **   PROGRAM RAN ON                                   gnode52
 **    ****   ******    PROGRAM RAN BY                               mayank.modi
 ***** **    ** ** **   PROGRAM PROCESS ID                                 10976
  **** **  *******  **  PROGRAM STOPPED IN /home/mayank.modi/ab-initio-thermodyn
                                           amics-of-water/mayank/cp2k_energy_cal
                                           culations
