192
Atoms. Timestep: 9000
O 3.91038 3.24456 6.61041
H 3.03351 3.57984 6.88652
H 4.36192 4.09706 6.60543
O 6.02328 1.83841 43.0044
H 5.10385 2.05314 42.7837
H 6.24242 1.32465 42.1745
O 6.62106 2.08085 0.788254
H 6.20415 1.33526 1.33023
H 6.54689 1.84234 45.0529
O 4.75273 4.18628 1.57085
H 5.51627 3.54017 1.63061
H 4.13258 3.63229 1.08506
O 4.68724 6.07158 5.83976
H 4.71477 6.11257 4.82474
H 5.26677 6.77356 6.07723
O 3.45019 5.47431 40.9592
H 3.21538 6.25084 41.4766
H 4.37752 5.64281 40.6106
O 3.30166 2.94191 42.2503
H 3.41825 3.85599 41.861
H 2.45573 2.62549 42.0346
O 4.74001 6.49617 2.99464
H 5.6355 6.56812 2.96986
H 4.57681 5.73009 2.46036
O 7.97697 7.66253 40.2987
H 8.90131 7.55663 40.6772
H 7.88171 8.59646 40.1483
O 5.96925 5.809 39.7419
H 6.7754 6.31304 39.706
H 5.70991 5.73174 38.8061
O 43.4369 5.34403 20.1631
H 43.0423 4.50687 20.0757
H 42.6579 5.91431 20.336
O 3.6701 1.04155 4.88054
H 3.06243 0.374121 5.15823
H 3.64642 1.72866 5.53107
O 5.6904 0.666694 2.97692
H 6.14342 -0.127009 3.17255
H 5.19834 1.06447 3.7057
O 17.5362 42.2658 43.7264
H 17.7451 42.2792 42.8015
H 18.0414 42.9722 44.1443
O 7.79361 6.62428 4.0978
H 8.28783 7.42196 3.99101
H 8.41021 5.8795 3.98818
O 5.09308 1.99969 21.8288
H 4.10507 1.77344 21.8919
H 5.48376 1.13116 22.0601
O 11.5595 42.5048 1.62917
H 12.1465 41.7791 1.44752
H 11.4955 42.5956 2.57536
O 10.2897 44.3768 42.5765
H 10.1584 43.487 42.2728
H 9.50346 0.717248 42.3849
O 13.9222 5.95932 4.2881
H 13.4315 5.30618 4.816
H 13.9383 5.62813 3.39076
O 13.7549 3.00574 3.2623
H 13.0294 2.97932 3.92379
H 13.5769 2.52883 2.44811
O 12.4502 4.14564 7.91134
H 12.0497 4.79467 8.55966
H 12.9382 3.5627 8.54223
O 9.10621 3.16145 1.5776
H 9.79754 2.64315 1.20878
H 8.28044 2.82812 1.23405
O 15.8688 40.8059 45.2633
H 16.3825 41.3968 44.687
H 16.5552 40.4548 0.6688
O 16.6938 2.70613 3.85997
H 15.705 2.76749 3.70954
H 16.9328 3.62777 4.04809
O 9.38414 4.21233 4.04796
H 8.71999 3.8227 4.67175
H 9.19002 3.88039 3.14627
O 14.0067 1.99607 0.720576
H 14.1012 2.93479 45.5964
H 13.1179 1.67543 0.392977
O 11.3248 0.906681 0.198552
H 11.0095 0.620936 44.5187
H 11.2597 44.224 0.704359
O 12.9504 40.5534 0.398884
H 12.8893 39.6102 0.418645
H 13.8468 40.6188 0.127509
O 18.8934 0.34627 44.498
H 18.5325 0.724089 0.156134
H 19.0605 1.18225 44.0649
O 16.7426 1.98097 6.94445
H 16.2992 1.13576 6.87386
H 16.8546 2.20648 6.02305
O 12.0442 3.73868 5.13411
H 11.9209 3.86993 6.0664
H 11.2016 3.97126 4.69006
O 14.1501 2.33944 9.3272
H 14.9614 2.39337 8.79405
H 14.4852 1.99113 10.1299
O 17.7866 1.23519 1.69231
H 16.9425 1.55787 1.82225
H 18.2665 1.81462 2.31498
O 13.5905 11.3346 4.19903
H 13.3432 10.4563 4.57681
H 14.2446 11.077 3.55226
O 19.0599 7.56544 2.62146
H 19.6897 7.63644 1.87088
H 18.7358 6.68506 2.58265
O 20.054 8.16219 5.15046
H 20.137 9.11181 5.36616
H 19.7727 8.06479 4.17896
O 21.3262 0.48775 9.30349
H 21.2524 -0.401139 9.59673
H 22.2158 0.783212 9.42711
O 18.5895 6.34673 6.52373
H 19.2541 5.85979 7.02709
H 19.0891 7.08414 6.03535
O 14.6524 13.4864 5.63375
H 14.2356 12.7941 5.11083
H 14.0004 13.6437 6.31691
O 24.0865 0.940937 9.50259
H 24.6071 1.13519 8.70486
H 24.8039 0.618067 10.0171
O 20.4906 4.39221 7.53337
H 20.2529 3.44247 7.63407
H 20.7605 4.66457 8.40357
O 17.2074 5.50098 4.23483
H 16.4633 6.06153 4.20733
H 17.6359 5.63135 5.11092
O 12.837 8.48674 4.75092
H 12.0497 8.35311 4.23104
H 13.2119 7.61095 4.77986
O 15.4094 15.5427 4.11429
H 15.2205 14.7614 4.6803
H 15.6712 15.0682 3.30217
O 28.2573 42.612 8.06443
H 28.8528 42.2428 8.73312
H 28.3206 42.0128 7.30872
O 26.7416 0.848951 8.4028
H 27.2533 1.37718 7.77366
H 27.254 0.0584169 8.54021
O 22.5936 5.91261 6.09264
H 21.8667 5.39794 6.50821
H 22.1448 6.58881 5.62193
O 19.3753 2.23279 8.90443
H 18.389 1.99774 8.76306
H 19.9 1.45029 9.04342
O 28.432 40.6458 6.11051
H 28.073 40.6649 5.21593
H 28.5003 39.6693 6.26482
O 22.4956 8.43087 41.1358
H 23.1843 8.8063 40.6651
H 21.7704 8.3607 40.3979
O 20.1418 8.50175 39.6681
H 19.2604 8.50241 40.0947
H 20.0616 7.96082 38.8833
O 33.8138 4.63632 3.37004
H 33.0395 4.87696 3.96573
H 33.3729 4.58329 2.52152
O 30.4681 3.98324 7.35532
H 30.7178 3.50445 8.15626
H 29.626 4.38521 7.6618
O 32.0076 5.44437 5.40469
H 31.5806 4.77456 5.98614
H 31.3838 6.20356 5.43298
O 26.8058 41.2807 1.39763
H 26.52 41.1063 0.580624
H 27.1817 42.1964 1.30605
O 31.841 2.3907 9.10333
H 32.7596 2.43347 8.88741
H 31.7694 2.17957 10.0513
O 25.3349 6.02676 6.84076
H 24.3906 5.95888 6.96233
H 25.3803 6.29596 5.91602
O 21.2653 7.42832 0.895347
H 21.3516 7.78604 0.00378649
H 21.2286 6.46478 0.793904
O 22.519 8.4016 43.9368
H 22.7495 9.36042 43.9991
H 22.4043 8.23756 42.9434
O 26.7106 39.7538 3.92142
H 26.3438 40.5005 3.42254
H 26.8664 39.1578 3.23251
O 28.4294 43.3919 0.78641
H 28.5369 0.175169 0.573929
H 29.0608 43.2976 1.49894
O 23.01 16.3729 3.42384
H 22.3474 17.0162 3.58323
H 23.4495 16.722 2.6536
O 36.609 5.00657 3.12598
H 35.6233 5.21842 2.96815
H 36.5931 4.27091 3.69227
O 27.3416 4.39595 8.00574
H 26.6279 5.00631 7.64008
H 27.2545 4.51366 8.91128
