192
Atoms. Timestep: 7250
O 2.62135 3.3399 6.42555
H 1.94605 3.36883 5.8012
H 3.04592 4.21998 6.28346
O 4.48578 1.19733 43.8536
H 4.27965 2.02727 43.4577
H 5.06316 0.808432 43.2033
O 5.86462 1.81182 1.29968
H 5.20296 1.46808 1.87341
H 5.63656 1.48733 0.449525
O 5.64788 4.67692 0.683164
H 6.41193 4.93644 1.23117
H 5.54649 3.69051 0.614124
O 3.33736 5.88801 5.4586
H 3.58845 6.15764 4.58139
H 3.66848 6.45168 6.16058
O 3.86869 6.06579 44.0988
H 4.64661 5.80887 44.6727
H 3.91651 7.0151 43.9244
O 3.45292 3.71986 42.9212
H 3.63062 4.60246 43.2493
H 3.35013 3.77834 41.9379
O 4.0478 6.18089 2.44448
H 4.36171 5.41891 1.89741
H 3.66854 6.79443 1.79691
O 6.52856 9.33208 43.3805
H 7.33069 9.07789 42.8777
H 6.82096 10.1376 43.8588
O 3.94263 8.96383 42.9919
H 4.77968 9.45603 43.1855
H 3.19293 9.55382 43.0861
O 7.00564 40.7736 25.1834
H 6.65148 41.5747 25.6436
H 7.73746 41.1385 24.7401
O 3.89714 1.10819 5.67217
H 4.68592 1.02137 6.22298
H 3.46003 1.88007 6.04728
O 3.79608 0.165028 2.89919
H 2.94296 0.25613 2.5298
H 3.74011 0.393895 3.8285
O 18.4772 42.7476 4.00463
H 19.3508 42.5318 4.38753
H 18.2722 43.5473 4.4733
O 7.64737 5.44593 2.3865
H 7.52818 6.34825 2.66465
H 8.15298 5.05199 3.10573
O 1.50971 8.66935 8.1841
H 0.914449 9.18345 7.76028
H 1.67588 9.1661 8.90804
O 11.6406 42.1608 2.13946
H 12.552 41.7292 2.01542
H 11.0194 41.4468 2.22664
O 10.4466 0.892807 42.6409
H 10.4791 1.81093 42.3135
H 11.0881 0.564591 42.0181
O 15.1337 5.70348 3.61525
H 14.4222 6.17049 4.03129
H 14.8069 4.83337 3.44412
O 13.8267 3.38802 3.62003
H 13.0209 3.8729 3.94553
H 13.6468 3.23391 2.63284
O 8.36565 2.9104 6.71945
H 8.2766 3.24314 7.63042
H 8.51691 1.93842 6.85208
O 8.92537 1.71539 2.01438
H 9.51692 1.17862 1.46922
H 8.0246 1.33995 1.95368
O 16.7295 41.1991 2.19963
H 17.1792 41.6387 2.98655
H 17.4124 41.092 1.4987
O 14.5475 0.906554 5.13407
H 14.4904 1.58276 4.43872
H 14.3034 1.42814 5.9039
O 9.08051 3.807 4.04616
H 8.62881 3.58312 4.87447
H 8.89762 3.06544 3.46322
O 13.4777 2.69203 0.89013
H 14.2397 2.22854 0.536684
H 12.7751 2.04999 0.637373
O 11.2561 0.345958 0.551651
H 11.1222 0.0547429 44.8091
H 11.5328 43.6358 1.01415
O 13.9879 40.6252 1.63068
H 14.2204 40.6642 0.685105
H 14.7418 41.1306 2.0739
O 17.8417 0.79676 5.72526
H 18.14 1.45792 5.08941
H 16.8737 0.833682 5.66545
O 11.5919 0.433229 4.30768
H 11.5757 -0.238725 3.63494
H 12.5118 0.399598 4.69516
O 11.6697 4.8308 4.65941
H 11.5049 5.39772 5.42755
H 10.776 4.44427 4.44385
O 9.48498 43.5226 6.64816
H 9.9543 44.0071 5.96221
H 10.1131 43.5128 7.40167
O 18.3732 2.89639 3.85902
H 18.2981 3.87628 4.02714
H 19.1426 2.82589 3.24479
O 18.4826 11.0019 1.40333
H 18.3788 10.0482 1.51129
H 19.1351 11.2059 2.04407
O 22.2404 5.73355 3.70015
H 22.2737 5.9431 2.77491
H 23.0291 5.19209 3.73629
O 21.9164 7.79108 5.86049
H 21.7279 8.69609 5.476
H 21.9768 7.12878 5.11421
O 21.6937 43.7201 8.87798
H 21.3818 42.8811 9.27283
H 22.4839 -0.122533 9.39492
O 19.4036 5.93745 6.43235
H 19.8115 5.19691 6.96553
H 20.1182 6.54227 6.26167
O 16.1377 13.3579 2.31022
H 16.4418 12.4898 2.59268
H 16.5348 13.5034 1.4351
O 24.0604 44.1359 10.7348
H 24.9111 44.338 10.3657
H 24.0097 0.157588 11.6617
O 20.154 4.14495 8.24762
H 19.8446 3.23346 8.21195
H 19.7368 4.60252 8.99988
O 17.9545 5.93825 4.11709
H 16.9797 5.83639 4.19543
H 18.3204 5.87808 5.04998
O 17.8568 8.29004 2.55604
H 18.3817 7.67412 3.05926
H 17.1532 7.6707 2.39331
O 15.0073 15.7421 3.79289
H 15.3448 15.014 3.30179
H 15.5892 16.1338 4.40228
O 26.6073 41.9887 7.40342
H 27.4319 41.6409 6.91227
H 26.1306 41.1985 7.62055
O 26.3344 44.2847 9.09293
H 26.9555 0.724517 8.5217
H 26.4018 43.4345 8.58579
O 24.9907 7.76579 6.81059
H 25.4781 8.51471 7.17687
H 24.1248 8.07536 6.78306
O 19.471 1.40183 8.27585
H 18.8185 0.855217 7.77258
H 20.1393 0.784046 8.46867
O 28.3243 40.7243 5.72239
H 28.189 40.7997 4.76472
H 28.4321 39.7782 5.89064
O 22.189 7.4817 41.6886
H 21.8217 6.99876 40.9697
H 22.3241 8.35729 41.2667
O 22.7312 10.1475 41.3154
H 22.6331 10.5794 42.2063
H 23.4008 10.6509 40.7862
O 32.3853 6.31613 3.78997
H 31.6257 6.07954 4.39201
H 33.2482 5.96209 4.01354
O 29.7916 3.48944 6.90676
H 30.627 3.55895 7.30374
H 29.0781 3.29028 7.56093
O 29.9809 5.80992 5.36456
H 29.808 4.99809 5.85757
H 29.5817 6.6382 5.78056
O 26.2785 41.7068 0.991254
H 26.451 41.7493 0.100682
H 25.5738 42.4231 1.01267
O 32.225 2.69978 8.92244
H 33.1342 2.96369 9.14367
H 31.9544 2.40592 9.77872
O 25.3985 5.08821 7.83239
H 25.3337 5.94843 7.36983
H 24.5524 4.99395 8.22099
O 22.9289 5.37448 1.01371
H 22.5902 5.03742 0.153158
H 23.6247 5.9714 0.700319
O 23.7192 5.96833 43.3794
H 24.5474 5.90386 42.8754
H 23.0979 6.48926 42.9124
O 27.6517 40.683 3.04885
H 26.8682 40.5276 2.57397
H 27.8758 41.507 2.55833
O 23.929 44.2994 44.8293
H 22.989 0.232576 -0.476496
H 24.1953 1.13765 44.8962
O 26.9719 21.5624 41.2002
H 27.6417 21.3354 40.4861
H 26.7941 20.6554 41.5297
O 32.5137 8.86263 2.58149
H 32.6065 8.16666 3.26278
H 32.0016 8.26951 1.99511
O 27.6077 3.27919 8.61198
H 26.8441 3.90712 8.44517
H 27.7587 3.40942 9.5393
