192
Atoms. Timestep: 9700
O 3.37507 3.07391 6.4371
H 2.59962 3.48934 6.67084
H 4.01404 3.78531 6.33476
O 5.1457 1.05172 43.705
H 4.98132 1.54069 42.9009
H 5.10398 0.184128 43.3994
O 5.75855 2.06413 1.19021
H 5.17351 1.61808 1.88073
H 5.67056 1.57543 0.340906
O 4.85149 5.29632 1.21077
H 5.00505 4.35233 1.09619
H 4.68268 5.52457 0.290292
O 5.28683 5.17644 6.53682
H 5.39389 5.38098 5.58695
H 6.16601 4.97862 6.94889
O 4.57794 4.35351 39.5611
H 3.89692 5.00507 39.4848
H 5.28951 4.64014 38.9943
O 4.31912 2.84156 41.6472
H 4.46073 3.56022 40.9853
H 3.56356 2.33458 41.2267
O 5.48695 5.98601 4.05443
H 6.47867 6.20369 3.95781
H 5.18111 5.65237 3.15483
O 8.3574 7.21977 38.8731
H 8.79067 7.63714 39.6534
H 7.63409 7.7937 38.7636
O 6.18805 5.42299 37.3818
H 7.13849 5.56532 37.4279
H 6.04329 5.37539 36.4364
O 39.0655 8.68271 18.2357
H 39.0858 9.56825 18.5255
H 40.0049 8.51685 18.0082
O 3.51096 0.497309 5.31647
H 3.46662 1.42275 5.38233
H 3.30546 0.126149 6.17004
O 4.23798 -0.00452589 2.59813
H 4.60764 43.2178 2.71076
H 3.79272 0.150976 3.4492
O 17.5634 41.4445 42.7278
H 18.439 41.5195 42.2785
H 17.2211 42.3752 42.6871
O 8.23132 6.60905 4.21405
H 8.54025 7.38558 3.75991
H 8.95103 5.98553 4.16949
O 6.4845 43.5381 27.3119
H 6.1677 42.6197 27.0475
H 7.52293 43.3953 27.2384
O 11.7914 42.8173 0.557071
H 12.4425 42.2619 0.178977
H 11.2599 42.1664 1.01849
O 10.633 2.61963 42.8418
H 10.2317 2.48807 41.9903
H 10.023 3.26432 43.1598
O 13.6674 6.59219 4.22599
H 13.1965 5.93194 4.78174
H 14.1603 6.05276 3.53998
O 14.0749 3.33569 3.24688
H 13.5114 3.53797 3.99522
H 13.5772 3.27506 2.40553
O 13.6788 3.17216 7.80454
H 13.3687 3.44191 8.63886
H 14.4481 3.79507 7.68507
O 8.79667 1.62678 2.60792
H 9.35931 1.49633 1.8388
H 7.87288 1.75495 2.20086
O 16.3827 40.1134 44.8168
H 16.9279 40.5586 44.1332
H 16.8489 39.3529 45.2333
O 16.6957 3.06845 4.17575
H 15.7654 2.96724 3.85316
H 16.9374 3.962 3.87332
O 10.1247 3.00259 4.70585
H 9.6555 2.33195 5.286
H 9.71826 2.76318 3.84104
O 12.8426 3.24489 0.842862
H 12.7889 3.68717 0.0194168
H 12.0776 2.56899 0.824838
O 10.8402 1.34343 0.329467
H 10.7166 1.57284 44.5711
H 11.2862 0.491619 0.384172
O 13.6682 40.6773 0.184257
H 13.2871 40.0642 44.7248
H 14.6048 40.4692 0.129759
O 16.8752 -0.0886442 43.1128
H 17.3252 0.286322 43.9018
H 16.4705 0.689488 42.7051
O 17.9348 2.13892 6.55222
H 17.4344 1.35744 6.81579
H 17.562 2.26614 5.64953
O 12.4736 4.21643 5.30059
H 12.6767 3.64183 6.06588
H 11.6052 3.9068 5.01094
O 16.2018 4.56736 7.22454
H 16.7758 3.83406 7.10088
H 16.026 4.83207 6.29358
O 18.6955 1.34172 0.372654
H 19.4619 1.99706 0.402894
H 18.7041 1.04609 1.26647
O 11.365 11.6682 4.52187
H 11.869 10.8464 4.65513
H 11.2053 11.5995 3.55314
O 19.6222 8.00748 2.53527
H 19.5076 8.51994 1.70438
H 19.0288 7.23099 2.41149
O 21.0319 8.48424 4.96221
H 20.9673 9.44532 4.91506
H 20.5754 8.28145 4.09248
O 21.8762 0.670147 9.01724
H 22.8089 0.465523 8.85633
H 21.8309 0.506366 9.9169
O 18.6015 6.98114 6.47484
H 18.6492 6.26648 7.08734
H 19.5147 7.32261 6.45318
O 13.1633 13.9625 5.20862
H 12.7898 13.1312 4.91012
H 13.1762 14.4794 4.3979
O 24.5853 0.206495 10.0868
H 25.0523 43.6793 9.53402
H 25.3179 0.797878 10.0554
O 19.9688 5.28773 8.6298
H 20.2871 4.38512 8.44269
H 19.8909 5.38892 9.56585
O 16.8785 6.02716 4.63531
H 16.084 6.55322 4.7041
H 17.5339 6.4506 5.2421
O 13.4259 9.62787 4.91289
H 13.7561 9.56431 5.80452
H 13.4379 8.75005 4.55917
O 15.955 14.2787 5.81862
H 16.3422 14.4196 6.68894
H 15.0493 13.9963 5.95057
O 28.8167 42.3249 7.83266
H 29.012 42.2686 8.73866
H 28.5546 41.3945 7.56224
O 26.6549 0.0169879 8.17731
H 26.4895 0.104449 7.29149
H 27.3702 43.4418 8.16947
O 22.9707 6.57189 6.63513
H 22.3362 5.87295 6.78318
H 22.4387 7.2691 6.19771
O 20.5318 2.77708 7.75444
H 19.8512 2.51831 7.10411
H 21.0696 2.03552 7.92248
O 27.9946 39.8681 6.90735
H 27.6345 40.0295 6.02612
H 27.2968 39.6954 7.49216
O 21.893 8.62191 41.1272
H 22.6622 8.81634 40.5527
H 21.2894 8.17953 40.6116
O 19.5781 7.47802 39.5531
H 19.3676 7.29611 38.6125
H 19.3226 6.60329 39.8314
O 33.7028 3.3574 4.08161
H 33.1318 3.91266 4.57483
H 33.2339 2.73452 3.57442
O 30.2148 5.07486 7.61102
H 30.8188 4.48381 8.06121
H 29.2934 4.91996 7.84551
O 32.3654 5.44123 5.90862
H 31.4903 5.50776 6.2953
H 32.8059 6.25265 5.90957
O 28.0152 42.0447 2.51058
H 28.4646 41.9399 1.61271
H 27.2482 42.4749 2.26666
O 32.5544 3.77401 8.09156
H 32.7624 4.12173 7.20131
H 32.9004 2.8787 8.09431
O 25.5097 5.9533 6.29063
H 24.9276 6.59432 6.68979
H 24.9354 5.50914 5.67885
O 19.0215 8.64324 45.0783
H 19.869 8.441 44.6273
H 18.6789 9.36881 44.5925
O 21.3493 9.1329 43.7075
H 22.0275 9.6737 44.1481
H 21.6632 8.68628 42.8317
O 27.3238 40.1754 4.29356
H 27.4779 40.7411 3.51849
H 27.3731 39.2996 3.91886
O 28.9111 42.7233 44.9902
H 28.5083 42.7677 44.0954
H 29.3855 43.5243 45.0677
O 21.4115 14.4358 6.32361
H 21.895 14.9363 5.68396
H 22.0392 13.8221 6.61788
O 36.4434 2.68043 4.34936
H 35.5031 3.0489 4.27895
H 36.2237 1.79353 4.38778
O 27.2778 4.41574 7.57737
H 26.5546 4.8254 7.09007
H 26.962 3.48393 7.71704
