192
Atoms. Timestep: 7900
O 3.25326 3.40741 6.59204
H 3.89541 3.87056 7.18848
H 3.08445 4.1061 5.96379
O 4.45334 1.08605 43.5383
H 3.73958 1.62668 43.2914
H 4.74816 0.814538 42.6547
O 5.86208 2.37293 0.714871
H 5.67153 1.95042 1.55184
H 5.2395 2.00895 45.2919
O 5.62479 5.75581 0.803458
H 6.5634 5.7239 1.02254
H 5.37745 4.84834 0.61125
O 2.68718 5.10616 4.608
H 3.50963 5.48944 4.289
H 2.02047 5.7694 4.32008
O 3.49554 5.94498 43.2179
H 3.89762 6.29119 43.9965
H 3.87273 6.46946 42.5243
O 2.57828 2.98463 42.2498
H 2.61489 3.91528 42.6213
H 1.66959 2.81503 42.3408
O 4.88597 6.50818 3.699
H 5.63081 7.08978 4.11761
H 5.1729 6.27611 2.78187
O 7.34019 8.42937 42.7703
H 8.01063 8.81955 42.2002
H 7.91102 8.19641 43.548
O 4.61666 7.84347 41.5917
H 5.40951 8.16625 41.9737
H 4.88811 7.6942 40.7135
O 3.15348 44.0919 23.3185
H 3.4539 43.3075 22.8092
H 2.34199 43.7897 23.6854
O 4.56903 1.16018 5.42514
H 4.25834 0.367028 5.8008
H 4.0439 1.89482 5.89958
O 6.17429 0.930818 3.20782
H 6.84472 1.57089 3.51883
H 5.4358 0.984095 3.80849
O 17.814 42.3897 2.04249
H 18.6746 42.2774 1.67278
H 17.8165 43.2542 2.49135
O 8.08982 7.23371 3.03766
H 8.67404 7.62129 2.37401
H 8.57126 6.50015 3.41347
O 2.79174 6.11363 13.1005
H 2.40518 5.33397 12.9765
H 3.65538 5.91938 12.9339
O 11.1259 41.9453 1.88115
H 11.8708 41.3607 1.8457
H 10.7118 41.9512 2.73056
O 10.8514 43.6173 43.1242
H 10.1324 43.1578 42.7055
H 11.566 43.556 42.4781
O 15.5408 6.39929 3.86393
H 14.7844 6.51054 4.42463
H 15.4264 5.48486 3.5194
O 14.3451 3.02743 3.68398
H 13.5353 3.51534 3.90243
H 14.22 2.64665 2.77665
O 10.4834 2.81609 6.37815
H 9.75874 2.92625 6.97584
H 10.9049 2.01941 6.71667
O 8.53112 2.03722 1.44331
H 9.20602 1.32081 1.42221
H 7.79469 1.75703 0.895476
O 16.0042 41.8056 0.269732
H 16.6955 42.1261 0.868278
H 16.45 41.6336 44.664
O 15.2236 1.00428 5.56434
H 14.8112 1.62423 4.93643
H 15.435 1.57711 6.30949
O 9.3055 4.12368 3.35583
H 9.25648 3.61107 4.13075
H 9.24605 3.37068 2.68436
O 13.1028 2.42811 1.09502
H 13.3047 2.41682 0.123635
H 12.4472 1.68892 1.11805
O 10.7789 0.354256 0.69636
H 10.6936 0.251428 44.8754
H 11.0728 43.5753 0.9894
O 13.8461 40.6747 1.81853
H 14.1694 39.9322 2.28672
H 14.5224 40.9259 1.18254
O 17.6694 0.474386 3.39389
H 17.8657 1.41174 3.22109
H 17.1583 0.558765 4.20442
O 13.9433 42.6409 6.81339
H 14.5456 41.9628 6.53797
H 14.2752 43.395 6.35207
O 12.1258 4.34577 4.59377
H 11.6999 3.93378 5.35631
H 11.3785 4.45393 4.05202
O 11.5024 0.479381 7.48001
H 11.7375 43.8538 6.96045
H 12.0308 0.353824 8.26825
O 18.1676 3.18877 3.16502
H 17.9986 3.88071 3.7868
H 18.0867 3.64194 2.31429
O 16.69 11.4871 3.96698
H 15.9314 11.4098 4.49537
H 16.5491 10.7936 3.27455
O 21.4846 5.60008 3.40845
H 21.6901 5.5686 2.43936
H 20.6492 5.07483 3.42101
O 21.582 7.54684 5.28949
H 21.2848 8.43441 4.95933
H 21.5804 7.00703 4.4963
O 20.7053 43.957 8.92375
H 19.9768 44.2395 9.48582
H 21.48 43.9777 9.46406
O 19.2712 6.28766 7.08497
H 19.3784 5.51975 7.6963
H 20.1361 6.40014 6.68196
O 16.4497 13.9729 2.62274
H 16.5106 13.1822 3.17984
H 17.3805 14.2226 2.56997
O 23.1091 43.917 10.4322
H 23.8815 0.101013 9.95886
H 23.0887 44.4067 11.2587
O 19.7214 4.1767 8.81025
H 20.1134 3.38479 8.42743
H 18.9353 3.79531 9.19593
O 18.0526 5.53406 4.75137
H 17.1526 5.86725 4.76417
H 18.4251 5.66043 5.63255
O 16.4548 9.12293 2.58089
H 16.1639 8.94481 1.68419
H 16.2479 8.32185 3.0588
O 14.7765 15.4298 4.19399
H 15.5169 15.1967 3.60413
H 14.0387 15.8445 3.77421
O 26.3647 42.6537 8.10227
H 26.8667 42.3674 7.3812
H 25.8648 41.8096 8.17615
O 25.2356 1.01589 8.89877
H 25.5501 1.81812 8.46321
H 25.5952 0.383496 8.33839
O 23.3594 6.77609 7.6536
H 22.7747 6.1899 8.07423
H 22.7793 7.13882 6.95785
O 20.9916 2.1123 7.20076
H 20.8315 2.05338 6.28912
H 20.8733 1.21501 7.55182
O 27.677 41.121 5.62162
H 27.419 40.9285 4.70851
H 28.5994 41.2938 5.56819
O 22.4067 7.67909 41.6601
H 21.5635 7.36943 41.3481
H 22.4541 8.55585 41.2141
O 21.5268 10.0125 39.9717
H 20.92 9.95848 39.2055
H 22.0036 10.7763 39.6606
O 33.2744 5.93553 2.98719
H 32.8343 5.64668 3.76724
H 33.5877 5.21204 2.47726
O 29.8462 3.85105 7.18112
H 30.4066 3.51528 7.90894
H 28.9396 3.85385 7.43499
O 31.3989 5.48602 5.17381
H 30.8174 4.84007 5.63937
H 31.2278 6.28585 5.55793
O 26.0537 40.9929 0.57271
H 26.1982 40.7969 44.9183
H 25.8501 41.9469 0.47975
O 31.3105 2.70021 9.34911
H 30.9014 2.11439 9.96568
H 32.269 2.68487 9.51553
O 25.5413 5.57801 6.25782
H 24.9343 6.20943 6.63989
H 25.4488 5.68804 5.31268
O 22.351 4.90765 0.642564
H 22.3543 4.10404 0.0731745
H 22.5336 5.68859 0.067801
O 23.3268 7.04448 44.3146
H 24.2284 6.82414 44.1093
H 22.9837 7.39487 43.5114
O 27.4711 40.6603 2.96136
H 27.0237 40.2082 2.2399
H 27.8235 41.3451 2.43609
O 26.0078 44.0021 1.33714
H 26.1828 0.282642 0.489371
H 26.6625 44.363 1.89634
O 25.5584 19.5979 43.8656
H 25.1581 19.1101 44.6167
H 25.2127 20.4853 44.0489
O 34.8492 8.3987 2.00488
H 34.4537 7.63647 2.52556
H 35.3271 8.95041 2.65522
O 26.9352 3.74261 7.86733
H 26.5128 4.44585 7.37122
H 26.9425 4.01763 8.82076
