192
Atoms. Timestep: 4900
O 46.964 0.569849 3.16237
H 46.3163 -0.0480128 3.13304
H 46.7952 1.41129 3.62398
O 4.42066 2.95943 44.0763
H 4.89625 3.41634 43.3773
H 3.69809 3.52337 44.3379
O 5.2852 2.24546 1.59926
H 5.12751 1.32817 1.90883
H 5.00159 2.30049 0.69874
O 4.30961 5.35904 2.71835
H 4.8666 5.36301 3.54583
H 4.55658 4.48849 2.34198
O 46.9201 3.17768 3.96185
H 0.666761 3.82944 3.77243
H 46.1243 3.79244 4.11386
O 4.41953 7.98562 0.770703
H 4.26222 7.33795 1.43019
H 5.37876 7.92886 0.637137
O 5.20794 4.56183 41.992
H 5.86276 5.26741 42.032
H 5.23752 4.21561 41.1181
O 1.40524 6.01915 4.02045
H 2.3528 6.07497 3.79015
H 1.45503 6.95017 4.14255
O 2.03054 9.18858 45.1813
H 2.83024 9.00929 0.539949
H 2.31614 8.796 44.3847
O 7.11537 8.90105 -0.0589496
H 7.29055 9.4712 44.3889
H 7.60557 9.29001 0.684345
O 21.0263 29.4079 31.867
H 20.1962 28.9705 31.8783
H 20.7816 30.3153 32.0641
O 2.12759 43.315 4.14069
H 2.09534 43.2599 5.11374
H 1.38328 43.8627 3.80625
O 4.34102 43.8413 2.64641
H 5.09359 43.2856 2.98166
H 3.58464 43.6525 3.17848
O 15.5747 42.7631 7.3548
H 16.2258 42.1276 7.69236
H 16.1448 43.5423 7.32364
O 5.54157 5.04979 5.70095
H 5.0395 4.8245 6.48052
H 6.41181 4.77086 5.94255
O 44.2022 21.6087 37.352
H 43.9218 22.5606 37.0845
H 43.3927 21.3361 37.9235
O 13.2021 0.922816 1.2302
H 13.1365 0.0880186 1.73094
H 14.0835 0.814028 0.882492
O 11.0419 4.92126 43.7364
H 11.0198 5.82844 44.0854
H 11.6908 4.92757 43.03
O 15.8133 6.3123 4.97298
H 15.4745 7.20608 4.84777
H 15.071 5.72708 5.03563
O 13.3541 4.43725 4.98679
H 12.4419 4.7351 5.2176
H 13.2043 4.1973 4.07276
O 8.81648 1.13065 6.70873
H 8.18386 1.48654 7.34576
H 9.52193 0.744874 7.27265
O 8.40864 2.96181 2.35513
H 9.01248 2.65975 1.67176
H 7.5014 2.71997 1.95766
O 13.635 41.8264 5.7241
H 14.4828 42.0648 6.13961
H 13.0979 41.819 6.53311
O 14.8289 3.01279 6.96915
H 14.4052 3.28286 6.13147
H 14.8633 3.85069 7.47921
O 9.06211 3.29503 4.96491
H 9.10373 2.42121 5.42372
H 8.8039 3.07545 4.05755
O 12.5998 3.57918 2.44527
H 12.7816 2.65534 2.0777
H 11.6202 3.71132 2.68608
O 10.788 2.28155 0.0732177
H 11.0309 3.0813 44.8015
H 11.5508 1.73056 45.1464
O 13.3098 42.4869 2.6293
H 13.3262 41.6403 2.1951
H 13.3436 42.3667 3.59917
O 17.203 1.06828 7.20109
H 17.4767 1.09772 6.23742
H 16.4948 1.73147 7.3242
O 13.3525 0.729667 8.25491
H 14.0794 0.11325 7.95358
H 13.6326 1.58766 7.81206
O 10.679 5.21823 4.56912
H 10.0566 5.83795 4.95785
H 10.2493 4.39216 4.78872
O 10.7921 0.394375 8.6659
H 11.7795 0.4931 8.45186
H 10.691 -0.356912 9.23328
O 18.5952 1.25271 4.87595
H 18.9422 2.17506 4.85165
H 18.6322 0.929762 3.99976
O 16.6661 7.49525 44.7161
H 16.0392 7.49422 0.312996
H 17.1515 6.66667 44.8057
O 24.7319 4.57815 3.9962
H 24.3307 5.32991 3.52165
H 25.6315 4.95411 4.12738
O 22.7695 3.08144 5.41824
H 23.5093 3.46249 4.87274
H 22.9991 2.17983 5.63067
O 21.7661 0.101716 10.156
H 22.3833 44.0982 10.8702
H 22.3003 0.11502 9.35846
O 19.5126 3.93013 5.17838
H 19.3742 3.92918 6.1617
H 20.4486 3.92249 5.06193
O 18.4243 9.47849 43.7274
H 17.6116 9.71824 43.2751
H 18.0006 8.72857 44.1864
O 23.0139 44.1144 7.72396
H 23.9771 44.221 7.76292
H 22.7563 43.3442 7.20717
O 19.8352 3.78705 8.11559
H 19.7588 2.90623 8.56468
H 19.3831 4.32462 8.755
O 17.6384 5.05497 3.16003
H 16.9778 5.6056 3.60495
H 18.3305 4.92069 3.8109
O 18.1004 5.45334 0.593667
H 17.9459 5.29784 1.53618
H 18.4384 4.62228 0.197898
O 19.6735 11.714 45.0623
H 18.7334 11.7293 45.1506
H 19.9012 10.8297 44.7621
O 27.5128 42.6034 6.63686
H 27.662 43.1492 5.78565
H 28.3835 42.2823 6.80461
O 25.6611 0.51154 7.75634
H 26.0806 1.29084 8.06152
H 26.4458 44.1202 7.49164
O 22.7657 4.79009 7.70044
H 21.8401 4.8867 7.81466
H 22.8181 4.19118 6.94369
O 19.3422 1.3043 9.18575
H 18.7923 0.971651 8.44645
H 20.1124 0.707249 9.3644
O 28.0691 44.1577 4.4351
H 27.6934 44.0917 3.50622
H 28.3631 0.978253 4.48531
O 24.8959 8.88305 43.5499
H 24.0417 8.42671 43.2784
H 25.3184 9.11375 42.7541
O 26.0146 10.444 41.484
H 26.0931 10.4625 40.5603
H 26.3678 11.2468 41.8233
O 28.6544 7.33558 6.3104
H 28.1505 6.94617 7.04539
H 29.1644 6.55606 5.93276
O 29.1686 2.35775 5.93607
H 30.0013 2.09174 6.33536
H 28.508 2.43525 6.63696
O 30.0615 4.91274 5.24233
H 29.7962 4.04128 5.33422
H 30.5269 4.86478 4.46331
O 24.6926 41.9024 0.620438
H 24.0455 41.4276 0.978988
H 24.869 41.4928 -0.233748
O 31.0909 1.77218 8.2432
H 31.8775 2.19966 8.57004
H 31.1452 0.890733 8.65925
O 25.3278 5.11435 8.7987
H 24.4907 5.10605 8.34182
H 25.1569 4.90505 9.74781
O 23.8888 6.65394 2.35822
H 23.4769 7.3938 2.77702
H 24.5916 6.97171 1.74803
O 25.684 7.17134 0.284675
H 26.5926 7.02943 0.332658
H 25.5555 7.73928 44.7075
O 26.6924 0.00333766 1.97228
H 26.1104 43.3564 1.74667
H 27.1481 0.198048 1.17454
O 24.8821 39.3577 44.1472
H 25.7063 38.8892 44.3125
H 24.5624 38.9891 43.3449
O 32.2478 28.2093 31.4395
H 32.3851 28.7656 30.7054
H 32.9828 27.6744 31.3433
O 28.0017 9.80844 5.0547
H 28.0401 8.82052 5.24223
H 27.5441 9.874 4.23954
O 27.0803 2.84308 8.4272
H 26.5173 3.61852 8.32621
H 27.5968 3.02862 9.27734
