192
Atoms. Timestep: 3450
O 0.074444 43.5413 0.918069
H 46.3197 43.081 1.42242
H 0.227076 0.242984 1.38409
O 5.51109 4.4492 44.354
H 4.77799 4.83869 43.9274
H 5.80872 3.79113 43.7223
O 5.09578 3.3058 1.82716
H 5.01816 2.34481 1.75967
H 5.35169 3.67514 0.944333
O 3.80585 4.71937 3.68726
H 4.33289 4.54764 4.4789
H 4.27353 4.24624 2.93542
O 46.9551 2.20298 1.99236
H 0.385729 2.81657 2.53332
H 46.2817 2.77481 1.58187
O 3.08404 7.9167 3.47376
H 3.19426 6.93621 3.57281
H 3.427 8.25646 4.28183
O 5.84445 2.59211 41.8541
H 5.79334 1.64345 41.9313
H 6.10269 2.69666 40.9499
O 1.30283 3.44571 4.15302
H 2.20398 3.83796 4.1041
H 0.748674 3.86633 4.75324
O 1.85697 8.8597 0.80796
H 2.22223 8.40238 1.56673
H 1.72236 9.74885 1.12436
O 3.55839 9.63187 6.02787
H 4.40144 9.88226 6.38421
H 3.14785 10.4942 5.98532
O 29.7055 22.2604 36.0497
H 28.7404 22.3718 36.1654
H 29.9648 23.148 36.0598
O 2.71779 42.7244 0.290545
H 2.72345 42.48 44.5665
H 1.80888 42.9565 0.594469
O 4.54702 0.390692 1.69179
H 4.85242 43.9482 2.39055
H 3.77176 -0.101625 1.4512
O 13.7803 42.2468 8.9549
H 14.1631 41.8138 9.74087
H 14.4785 42.6716 8.44853
O 5.26338 4.14277 6.36515
H 5.60031 3.29318 6.57944
H 6.00484 4.70486 6.46358
O 41.3577 29.9993 27.3703
H 42.1825 30.203 27.2066
H 41.4185 29.0621 27.5145
O 11.2075 0.798382 2.32925
H 10.9985 0.692691 1.42021
H 11.3029 -0.0304709 2.71753
O 9.90051 5.46139 44.2747
H 10.1565 4.62324 43.8711
H 8.98714 5.60462 43.9372
O 15.4425 5.25204 5.56457
H 15.3313 6.16408 5.4925
H 14.5646 4.84754 5.50766
O 12.4302 4.18124 5.65406
H 11.7789 4.84734 5.9533
H 12.2759 4.03845 4.71943
O 7.9266 2.94679 8.00135
H 8.36959 2.12019 7.77826
H 8.44899 3.32071 8.76894
O 7.63067 4.54288 3.2238
H 8.39211 4.78825 2.71087
H 6.98655 4.17344 2.61591
O 12.9821 42.3069 5.73435
H 12.9186 41.6278 6.36601
H 13.7359 42.8727 5.90964
O 14.1246 2.33314 7.3776
H 13.4673 2.74575 6.7732
H 14.7801 3.02594 7.50331
O 7.96746 5.12294 5.93665
H 8.37659 4.48853 6.5153
H 7.87432 4.74838 5.06051
O 12.3091 3.25868 2.90983
H 11.8917 2.37517 2.99387
H 11.6618 3.84453 2.52788
O 9.96593 5.72189 2.07572
H 10.0717 6.62868 2.46849
H 9.98892 6.03616 1.17677
O 11.9302 42.3947 3.10467
H 12.5354 41.8278 2.62613
H 12.1181 42.2279 4.06123
O 15.3671 43.7887 6.95077
H 16.2567 43.7473 6.59472
H 15.2215 0.635313 7.09684
O 12.8409 1.21926 9.69758
H 13.0786 0.290719 9.7862
H 13.3786 1.58316 9.02461
O 10.4023 6.60778 6.09225
H 10.3282 7.12946 6.89615
H 9.47894 6.37998 5.95111
O 10.0381 2.25575 10.4236
H 10.8341 1.74688 10.2376
H 9.91711 2.08508 11.3533
O 18.3038 -0.104455 5.82698
H 18.5978 0.666485 5.34795
H 19.1102 43.8051 6.30365
O 19.767 5.37971 44.6173
H 19.3395 4.53141 44.3269
H 19.3406 5.63115 0.239812
O 22.4748 3.83942 2.3449
H 23.3266 4.12595 1.91169
H 21.98 3.58479 1.53966
O 21.9598 3.86791 5.11995
H 22.1731 3.97317 4.15619
H 22.3186 3.0001 5.35263
O 20.8605 43.7505 7.35591
H 21.5841 0.156828 7.02137
H 21.1058 42.8341 7.28666
O 19.3931 3.1073 5.29914
H 19.0464 3.38373 6.13594
H 20.2847 3.2957 5.22992
O 19.8307 7.09293 42.1094
H 19.0514 7.57698 42.3985
H 20.1372 6.6198 42.8758
O 22.8225 1.1425 5.88056
H 23.5352 1.21488 6.58682
H 23.3104 0.662673 5.19362
O 20.1101 4.10033 8.67533
H 20.3625 3.23074 8.97271
H 19.6435 4.53502 9.35164
O 17.4937 4.4869 3.63306
H 16.7668 4.77488 4.13402
H 18.0854 4.11217 4.27661
O 17.8729 5.91558 1.39627
H 17.0149 5.60152 1.111
H 17.8934 5.55644 2.31943
O 20.8968 9.80426 40.9977
H 20.7876 8.9082 41.2583
H 21.329 10.0387 41.8082
O 25.3381 43.622 5.21918
H 26.0653 44.0551 4.79278
H 25.5195 42.7224 4.95418
O 24.4237 0.187824 7.69533
H 25.1421 0.672557 8.06228
H 24.8678 43.8034 6.92244
O 22.7158 4.97454 7.68246
H 21.8557 4.76559 8.1451
H 22.5547 4.84847 6.75767
O 20.6786 1.3973 9.65132
H 20.3359 1.05803 10.5271
H 20.6216 0.618056 9.12332
O 27.4349 0.222173 4.11917
H 27.9333 0.0853789 3.29386
H 27.7867 1.0642 4.42281
O 27.3462 8.25821 0.236993
H 27.726 9.04214 0.627187
H 27.5883 8.46395 44.501
O 27.4628 9.50472 42.863
H 27.282 9.31339 41.9098
H 28.0294 10.3449 42.8242
O 30.1157 8.18275 6.63224
H 30.3851 8.53046 5.76088
H 29.7948 7.23825 6.54107
O 29.1165 2.77852 6.33739
H 30.0002 2.47078 6.30524
H 28.7358 2.31458 7.07435
O 29.1281 5.6542 6.25606
H 29.2379 4.72272 6.23568
H 28.1181 5.62642 6.33968
O 28.6001 41.4793 45.0687
H 27.6795 41.1587 45.1223
H 28.8376 41.6266 44.1025
O 31.7959 2.05516 6.35834
H 32.3067 2.78253 5.97174
H 32.1663 2.04972 7.24265
O 25.1353 4.08831 8.44658
H 24.2801 4.33822 8.05553
H 25.2279 4.79861 9.13129
O 24.8737 4.5738 0.981191
H 25.4624 4.46472 1.71123
H 24.8992 5.54186 0.863765
O 24.7984 7.45689 0.510556
H 24.309 7.62854 46.4724
H 25.6715 7.82917 0.65983
O 28.789 44.035 1.49573
H 29.717 43.9461 1.48083
H 28.4837 43.2362 1.16861
O 25.8036 39.8129 44.9538
H 25.3106 39.4241 45.6536
H 25.2665 39.7047 -1.02426
O 35.6622 32.373 25.3
H 34.8174 32.0323 25.4669
H 35.4507 33.1805 24.8743
O 28.6554 10.0176 8.40438
H 28.9574 9.22226 7.92886
H 27.7792 10.1725 8.12308
O 26.7695 2.10139 8.28129
H 26.2436 2.93564 8.12044
H 26.9182 1.95527 9.21519
