192
Atoms. Timestep: 5500
O -0.101489 1.70688 5.25358
H 45.7912 1.71081 5.29679
H 0.150778 2.65954 5.23001
O 3.87066 2.05668 43.6969
H 4.11578 2.95401 43.3163
H 3.6965 1.5678 42.908
O 5.07929 2.739 1.21781
H 4.82039 1.90945 1.67819
H 4.91343 2.54403 0.289631
O 4.9865 5.52266 2.50815
H 5.50818 5.62837 3.32138
H 5.02704 4.63009 2.17545
O 0.333823 4.65826 5.3441
H 0.726575 4.8885 4.45644
H 0.649305 5.22183 5.99757
O 5.04798 6.92953 44.6953
H 5.3055 6.74075 0.471643
H 5.78716 7.47812 44.3342
O 4.62936 4.91453 42.8747
H 4.77676 5.51258 43.5787
H 5.31788 5.1442 42.2017
O 2.07234 5.16486 2.96937
H 2.96459 5.29445 3.15736
H 1.953 5.36595 2.03696
O 3.06857 9.26077 45.0318
H 3.43245 8.37736 45.1289
H 2.2659 9.11299 44.53
O 6.7804 9.11336 43.6802
H 7.52161 9.55716 43.2279
H 6.38895 9.74795 44.2741
O 17.3288 32.4109 30.1554
H 18.2269 32.5969 30.1011
H 17.3784 31.4362 30.2438
O 2.07511 43.6372 4.3088
H 2.40983 43.0528 4.96671
H 1.50733 0.175436 4.74364
O 4.65695 0.372077 2.72452
H 5.33864 44.4477 3.35904
H 3.81447 0.150907 3.13921
O 15.3838 42.5691 6.88716
H 15.7995 42.1572 7.62249
H 16.0069 43.3055 6.76636
O 6.42724 5.41182 5.198
H 6.75918 5.98955 5.90843
H 7.21965 4.9176 4.98546
O 45.2112 18.2676 41.4938
H 46.1762 18.4972 41.4298
H 45.252 17.2313 41.4697
O 13.112 0.00527054 0.340067
H 13.5534 43.3221 0.682829
H 13.4438 0.156152 -0.561355
O 10.7664 3.23187 42.3994
H 11.7166 3.11782 42.3517
H 10.587 3.82167 41.6623
O 15.8443 5.90612 4.38647
H 15.6924 6.42689 5.14556
H 15.0659 5.34502 4.29356
O 13.9733 3.99907 5.00493
H 13.0615 4.43744 4.92295
H 13.864 3.24877 4.35857
O 9.15091 0.439722 5.43909
H 8.89574 43.7719 4.95601
H 9.69864 0.100857 6.19292
O 7.841 2.44951 2.10463
H 8.49359 2.62557 1.46677
H 7.0468 2.58313 1.60374
O 14.2041 41.6202 4.38533
H 14.7404 42.151 5.05733
H 13.4651 41.496 4.99059
O 14.3483 2.70664 7.69119
H 14.155 3.09714 6.79294
H 14.2799 3.42631 8.30457
O 8.94945 3.33489 4.47182
H 9.10017 2.56743 5.03192
H 8.64856 2.92776 3.65015
O 12.9745 2.77613 2.51996
H 13.2306 1.99459 1.97779
H 12.3116 3.10678 2.00075
O 10.2154 2.67557 0.713104
H 10.2812 3.09529 44.9758
H 10.4972 1.78982 0.464994
O 14.1437 41.9598 1.55533
H 13.8735 41.0508 1.40339
H 14.0707 42.0207 2.57565
O 17.1748 0.691981 7.19212
H 17.6736 0.985335 6.43413
H 16.3897 1.21068 7.19501
O 12.9251 0.241948 8.62907
H 13.5817 43.7575 8.22181
H 13.4114 1.06581 8.55186
O 11.4313 4.92613 4.2599
H 11.1631 5.71017 4.74629
H 10.6169 4.39189 4.39267
O 10.4332 43.7529 7.67964
H 11.2761 44.0966 7.88004
H 10.3138 42.9434 8.12957
O 18.0192 1.70695 4.7054
H 18.18 2.64157 4.52535
H 18.106 1.35583 3.77852
O 16.924 8.29316 44.4223
H 16.9409 7.96061 43.5221
H 17.1641 7.5157 44.9492
O 24.4899 5.76498 3.89826
H 24.2708 6.30314 3.07466
H 24.9309 6.44443 4.37283
O 23.3148 4.01994 5.58967
H 23.6044 4.63999 4.87248
H 23.5172 3.13507 5.31207
O 21.301 0.560587 9.39855
H 21.8758 44.335 10.0704
H 21.9176 0.450022 8.69343
O 20.3239 4.61638 5.51387
H 20.1632 4.75735 6.44174
H 21.2602 4.45163 5.48904
O 17.4994 11.097 44.596
H 16.6891 11.5199 44.3502
H 17.3719 10.1241 44.4626
O 23.3095 0.113344 7.69954
H 24.2214 0.336899 7.64363
H 23.2843 43.438 7.18324
O 19.9024 4.87802 8.37571
H 19.7641 3.95939 8.71889
H 19.3147 5.39835 8.92593
O 18.2042 4.62644 3.32239
H 17.4257 5.01383 3.81587
H 18.8683 4.67254 4.03726
O 17.3758 5.96366 0.987768
H 18.045 5.54203 1.56929
H 16.6408 6.02474 1.61716
O 18.6765 12.8785 1.23689
H 18.6479 12.1486 0.589989
H 19.4579 13.4049 1.1562
O 27.6265 42.2185 6.84151
H 28.0973 42.5892 6.06969
H 28.0457 41.3926 7.19394
O 25.8443 0.352454 7.52705
H 26.2066 1.09028 8.05021
H 26.528 43.7452 7.58813
O 23.7575 5.50748 8.12889
H 22.8697 5.8635 8.30677
H 23.6396 5.05426 7.27771
O 19.1551 2.29745 9.41481
H 18.4031 1.70343 9.10818
H 19.9134 1.691 9.47086
O 28.507 43.4903 4.32879
H 27.6122 43.4657 4.04818
H 28.6944 0.2758 4.53712
O 23.698 8.1491 42.9396
H 22.8407 8.38053 42.799
H 24.1848 8.96406 43.0375
O 25.1953 10.625 42.3555
H 25.4149 11.4813 42.7569
H 25.8764 10.4825 41.6299
O 29.2873 7.82599 5.73416
H 29.6447 8.33345 6.45388
H 29.5542 6.9489 5.61576
O 29.8762 2.53757 6.76431
H 30.7369 2.15892 7.10163
H 29.3436 2.63044 7.58368
O 30.0256 4.94311 5.33496
H 30.0121 4.2429 5.98435
H 30.3846 4.47104 4.5543
O 25.2455 42.7471 0.828474
H 25.2033 41.8769 0.693598
H 24.7055 43.0292 45.3163
O 32.4583 1.90515 8.0083
H 33.2287 1.89967 7.40343
H 32.8189 1.34902 8.70227
O 25.8355 4.86279 9.98589
H 25.1287 5.12492 9.3227
H 26.3562 5.62745 9.97039
O 24.182 6.79735 1.45439
H 24.0197 7.74839 1.23768
H 24.7803 6.44808 0.801666
O 25.1929 5.93219 44.1195
H 25.1683 5.02419 43.6745
H 24.4482 6.37235 43.6676
O 26.0709 43.0013 3.54954
H 25.3638 42.5591 3.97785
H 25.8293 43.0412 2.58989
O 24.3007 39.9181 44.1362
H 24.2247 39.0726 43.7563
H 23.7992 40.4472 43.4714
O 30.971 26.4821 33.857
H 30.7903 25.8138 34.4719
H 30.4978 27.1978 34.178
O 28.1357 9.56235 3.48007
H 28.6195 8.87104 3.98359
H 28.8196 10.1796 3.11402
O 27.1907 2.55925 9.37014
H 26.7954 3.38382 9.5953
H 26.9685 1.9978 10.1644
