192
Atoms. Timestep: 3850
O 46.4491 43.5917 1.94976
H 45.7328 43.2542 2.38897
H 46.2556 0.436503 1.83353
O 5.28588 4.00572 44.2943
H 4.35597 4.10138 44.0125
H 5.71514 3.74982 43.5078
O 5.52695 3.17439 1.79288
H 5.17109 2.26018 1.95907
H 5.72068 3.24329 0.794865
O 3.91216 4.83483 3.39997
H 4.41243 5.18409 4.08937
H 4.5543 4.31951 2.84231
O -0.421911 2.2816 1.87839
H 0.106742 2.89451 2.52505
H 46.1751 2.96233 1.31906
O 2.9935 7.50549 2.88169
H 3.24712 6.57738 2.8842
H 3.76309 8.00886 3.23729
O 5.686 3.08031 40.943
H 5.2557 2.65039 40.2497
H 6.38138 3.54555 40.4603
O 1.06301 3.76211 3.81813
H 1.85406 4.19181 3.61882
H 0.850973 3.76545 4.71587
O 1.9318 9.10785 0.736078
H 2.2188 8.59744 1.52983
H 1.76881 8.53067 0.0239141
O 4.98221 8.36524 4.61062
H 5.88227 8.18499 4.38463
H 5.0214 9.13359 5.1738
O 27.3055 24.3227 34.8766
H 27.5735 23.3671 34.8887
H 26.6087 24.2864 35.4902
O 2.23941 43.1996 1.33723
H 2.21608 42.7699 45.6733
H 1.36135 43.2366 1.70139
O 4.45213 0.624338 1.83422
H 4.58151 44.2936 2.62457
H 3.81344 0.101997 1.36602
O 14.1842 42.9528 8.37069
H 14.6211 42.5652 9.09715
H 14.7508 43.2965 7.67914
O 5.35924 5.60719 5.93956
H 5.24538 6.28906 6.60748
H 6.05515 5.02734 6.2741
O 42.1056 27.6369 30.0933
H 42.0939 28.5039 30.5522
H 43.0337 27.5413 29.9358
O 12.9374 0.719259 2.09992
H 12.5512 -0.0928069 2.41683
H 13.8467 44.6142 2.21209
O 10.5047 5.38464 44.2848
H 9.79149 5.08166 43.6909
H 10.8895 6.09012 43.7543
O 16.0115 6.09913 6.12338
H 15.8931 7.04801 6.33085
H 15.1938 5.75087 5.8388
O 13.6226 4.66105 5.02915
H 12.7099 4.76591 5.27626
H 13.608 4.15772 4.23182
O 7.96973 2.62559 8.56161
H 7.26668 2.2197 9.09963
H 8.81566 2.31152 8.87465
O 7.87492 4.26848 3.61027
H 8.61967 4.3263 2.94854
H 7.12927 3.97105 3.06135
O 13.3254 41.0593 5.51199
H 12.9907 40.8962 6.39588
H 14.0886 41.6377 5.62307
O 14.7221 2.6313 7.15064
H 14.2189 3.16773 6.47148
H 15.6031 3.02127 7.09563
O 8.20095 4.19464 6.15871
H 8.04598 3.47337 6.72385
H 8.21636 3.87319 5.21699
O 12.7395 3.34672 2.57456
H 12.6544 2.41555 2.40272
H 12.0093 3.83297 2.24515
O 10.3403 4.92175 1.82959
H 10.6592 5.72703 2.21387
H 10.2899 5.35465 0.96931
O 11.9431 41.9761 3.39157
H 11.1525 41.5378 3.14479
H 12.2379 41.4215 4.08293
O 15.0949 44.237 6.20095
H 15.9395 44.3621 5.73023
H 14.8817 1.00272 6.59102
O 12.8627 1.32322 9.16706
H 13.1876 0.384914 9.05184
H 13.6047 1.86838 8.8268
O 10.8849 5.09635 6.1174
H 10.9178 5.49419 6.99025
H 9.9364 4.79007 6.10433
O 10.1314 2.17438 9.79127
H 10.9792 1.70638 9.65537
H 10.4004 2.95531 10.2688
O 17.8192 0.475706 5.0802
H 18.1318 1.37353 5.36629
H 18.2695 44.5045 4.20839
O 18.6692 6.00004 43.9097
H 19.2028 5.32379 44.3277
H 18.3158 6.33917 44.743
O 23.3073 3.64625 2.85284
H 23.9138 4.40515 2.68391
H 23.8544 2.96337 2.50051
O 21.7448 3.03228 5.45793
H 22.096 3.34089 4.59941
H 22.0731 2.0945 5.57717
O 20.7162 44.2843 8.17977
H 20.1215 0.230192 7.42762
H 21.6249 44.281 7.8557
O 18.9511 2.88597 5.93286
H 19.0661 3.21045 6.85269
H 19.8887 3.07663 5.57688
O 19.7033 7.74015 42.0072
H 19.001 7.68865 41.3444
H 19.3461 7.26332 42.7661
O 22.8388 0.454143 5.94788
H 23.6731 0.507213 6.50126
H 23.097 -0.290863 5.39581
O 19.8131 3.66903 8.27037
H 20.03 3.00544 8.91512
H 19.4181 4.45002 8.72546
O 17.4458 4.86897 4.06525
H 16.9194 5.39601 4.69877
H 17.9208 4.34453 4.73074
O 17.9017 5.6056 1.35438
H 18.1 5.54846 2.28618
H 17.0336 5.18459 1.38779
O 20.7882 10.3513 42.3624
H 20.1417 9.65888 42.2654
H 21.0067 10.3086 41.4308
O 25.7179 42.9853 5.01361
H 26.3528 43.6783 4.66567
H 25.9883 42.1053 4.70627
O 25.0721 0.2897 7.75461
H 25.7161 0.915436 7.9612
H 25.4839 43.7668 7.19879
O 22.9633 4.88991 7.47598
H 22.1937 5.10909 8.03905
H 22.4748 4.3576 6.8148
O 20.0426 1.87826 10.2357
H 19.1461 1.85667 10.5747
H 20.1102 1.09603 9.71591
O 27.9936 0.370123 4.19287
H 28.1721 0.35855 3.22144
H 28.1138 1.24761 4.58569
O 26.7248 8.83651 44.3846
H 27.4225 8.3541 -1.11868
H 26.6039 9.60054 43.8286
O 27.3043 9.90011 41.7748
H 28.2424 9.98364 41.4874
H 26.8163 10.7088 41.6066
O 29.8516 8.2659 6.49805
H 30.5859 8.65515 5.98815
H 29.5859 7.37661 6.21273
O 29.1485 2.65686 6.0725
H 29.9832 2.23787 6.33407
H 28.5385 2.48947 6.84827
O 28.7847 5.79944 5.49614
H 28.9175 4.97851 6.00334
H 28.5648 5.53806 4.65074
O 26.9537 41.8977 45.0555
H 26.1002 41.5209 44.8614
H 27.3827 40.9893 44.9323
O 31.6406 1.46367 6.9781
H 32.3109 2.12523 6.86588
H 32.0899 0.876828 7.61891
O 25.3115 4.49402 9.12494
H 24.5322 4.50431 8.5102
H 25.4848 5.44956 9.26415
O 25.2414 5.253 1.62061
H 26.1665 5.13374 1.90757
H 25.068 6.16568 1.32319
O 24.8653 7.90906 1.06512
H 23.943 8.12852 0.94352
H 25.3171 8.55309 0.440532
O 28.3993 43.9479 1.56139
H 27.8323 43.8806 0.824588
H 28.5536 43.0125 1.76383
O 25.6057 39.2461 45.0127
H 24.7939 39.2305 44.5276
H 25.4388 38.6114 0.488315
O 34.7546 31.229 26.9752
H 33.9472 30.9564 27.303
H 34.5243 31.8996 26.3647
O 28.1501 10.3325 7.90177
H 28.8422 9.7198 7.56928
H 28.0745 10.9379 7.20062
O 26.8525 2.34022 8.41898
H 26.5266 3.27622 8.57859
H 27.3972 2.15821 9.14203
