192
Atoms. Timestep: 3600
O 46.7276 43.6592 1.38599
H 45.9632 43.318 1.81419
H 46.8769 0.474896 1.60964
O 5.43787 4.1784 44.1284
H 5.73796 5.05239 43.8282
H 5.65101 3.54257 43.4193
O 5.44571 3.15863 1.54721
H 5.05617 2.25615 1.63424
H 5.20621 3.61765 0.733394
O 3.75646 4.72677 3.73241
H 4.37611 4.74192 4.50329
H 4.22839 4.29045 2.98059
O 0.0195566 2.14981 1.98438
H 0.505329 2.79215 2.53218
H 46.5724 2.68109 1.27351
O 2.97033 7.70612 3.11373
H 3.15524 6.73817 3.26329
H 3.52314 8.06802 3.78974
O 5.76845 2.88801 41.6948
H 5.83604 1.96745 41.5657
H 6.29723 3.20655 40.9154
O 1.31416 3.50299 3.98366
H 2.21274 3.9987 3.85151
H 0.726188 4.07709 4.42199
O 1.87463 9.04109 0.681019
H 2.18174 8.61206 1.50625
H 0.934278 9.06743 0.763323
O 4.22003 9.31103 5.64342
H 4.91699 8.73332 5.92577
H 3.5578 9.25916 6.33726
O 28.8354 23.03 35.5981
H 28.0283 22.498 35.7524
H 28.5867 23.8169 36.0035
O 2.38571 42.6842 0.445964
H 2.3 42.0895 44.9044
H 1.47126 42.7475 0.730695
O 4.40238 0.568049 1.99743
H 4.95861 43.9342 1.87925
H 3.56384 0.140173 1.72161
O 13.8734 42.4001 8.7651
H 14.1204 41.7268 9.43356
H 14.6513 42.6168 8.25892
O 5.14309 4.67385 6.17072
H 4.68323 4.20893 6.85134
H 6.12068 4.60924 6.31378
O 41.7231 29.1629 28.4265
H 41.1415 29.1964 27.5928
H 41.6638 28.1499 28.6442
O 11.8967 0.619716 2.22594
H 11.1766 0.5406 1.61701
H 12.1706 43.856 2.54354
O 10.0758 5.40641 44.3308
H 9.85682 6.11317 43.7491
H 9.44869 4.69918 44.1779
O 15.4944 5.7235 5.81087
H 15.584 6.56569 6.15681
H 14.5296 5.54905 5.78181
O 12.9944 4.36167 5.44613
H 12.1824 4.81879 5.55518
H 12.9077 3.97683 4.57471
O 7.51221 2.78351 8.20317
H 7.68948 1.87816 8.32857
H 8.07763 3.16969 8.8423
O 7.5154 4.63442 3.32305
H 8.3288 4.89571 2.89929
H 7.03186 4.12909 2.60803
O 13.0945 41.8383 5.80352
H 12.8145 41.9143 6.69948
H 14.0434 41.9165 5.81423
O 14.2273 2.74693 7.23826
H 13.6266 3.20465 6.60243
H 15.0825 3.13192 7.07715
O 8.09233 4.78364 6.10982
H 8.00209 4.01822 6.67966
H 8.0498 4.50043 5.21867
O 12.725 3.64238 2.86843
H 12.5817 2.72697 2.62149
H 12.0966 4.10986 2.37314
O 10.2176 5.587 1.9997
H 10.4138 6.53203 1.93606
H 10.105 5.2401 1.08813
O 11.8095 41.9655 3.16035
H 12.1972 41.3509 2.55983
H 12.2025 41.7726 3.96698
O 15.3184 43.7346 6.66316
H 16.2369 43.7301 6.32669
H 15.1032 0.539145 6.70316
O 12.9674 1.11414 9.53389
H 13.2872 0.193083 9.49677
H 13.274 1.52654 8.67992
O 10.9384 6.07387 6.08667
H 11.1373 6.79934 5.48501
H 10.0281 5.83908 5.89712
O 10.3984 2.28627 10.3657
H 11.1959 2.04561 9.87243
H 10.5287 1.89211 11.2202
O 17.9421 0.0736806 5.34371
H 18.2745 0.922937 5.09805
H 18.7157 43.8091 5.76131
O 19.6028 5.46038 44.3308
H 20.1388 4.72807 44.6939
H 18.8426 5.52506 44.9006
O 22.9264 3.80165 2.63709
H 23.8361 4.25573 2.51568
H 22.3675 4.36768 2.09319
O 22.0754 3.68197 5.18064
H 22.4332 3.84018 4.25916
H 22.4505 2.81036 5.38427
O 20.8083 43.9213 7.74446
H 20.9693 0.422271 7.01309
H 21.3548 43.1471 7.54403
O 19.3131 2.89742 5.37029
H 19.2291 3.1197 6.27803
H 20.216 3.09898 5.16297
O 19.6928 7.45481 41.9662
H 19.4207 6.61611 41.5509
H 19.7662 7.1765 42.884
O 22.7597 1.13256 5.71557
H 23.4032 1.029 6.48218
H 23.1802 0.639254 5.02084
O 20.191 3.95971 8.5367
H 20.2078 3.17158 9.10239
H 19.6511 4.56531 9.0136
O 17.2517 4.42088 3.80891
H 16.6595 4.81125 4.49806
H 17.9456 3.9129 4.24985
O 17.7388 5.9 1.42339
H 17.2487 6.70848 1.5497
H 17.5683 5.41762 2.22427
O 20.9605 10.0216 41.4636
H 20.4605 9.30807 41.8727
H 20.6239 10.863 41.8007
O 25.3499 43.2482 5.2794
H 26.1556 43.5625 4.9251
H 25.0447 42.6948 4.60985
O 24.3752 0.363546 7.8347
H 25.1567 1.11382 7.87473
H 24.8008 43.7951 7.26363
O 22.6125 4.90081 7.64401
H 21.8214 4.53469 7.99614
H 22.6828 4.67825 6.67499
O 20.4989 1.67381 10.0205
H 19.7339 1.06501 10.3069
H 21.0114 1.06342 9.52533
O 27.8236 0.322986 4.10358
H 28.3277 0.295242 3.3056
H 27.9432 1.22704 4.40081
O 27.1946 8.36094 45.0799
H 27.8003 8.71001 0.483375
H 27.3306 8.9786 44.3297
O 27.4267 9.72142 42.465
H 26.6026 10.0062 42.1682
H 27.6665 9.22938 41.712
O 30.0724 8.45347 6.57677
H 30.8257 8.81525 6.10417
H 29.9072 7.59084 6.34252
O 29.0907 2.8483 6.23682
H 29.8406 2.19025 6.39623
H 28.4667 2.66684 6.96335
O 28.9544 5.75701 6.01499
H 29.2151 4.80476 6.09408
H 27.9774 5.58729 6.11148
O 28.0181 41.5124 45.0089
H 27.2497 40.9803 45.0869
H 28.4615 41.45 44.1434
O 32.0618 1.81593 6.68148
H 32.3189 1.81148 5.76348
H 32.3506 0.952461 6.99207
O 25.1325 4.23284 8.70023
H 24.2846 4.40513 8.28639
H 25.1319 4.9592 9.37237
O 24.8453 4.86025 1.38639
H 25.7218 4.51801 1.22174
H 24.9762 5.77466 1.16867
O 24.63 7.45006 0.759941
H 23.8851 7.94248 1.00514
H 25.3042 7.95454 0.24037
O 28.6127 44.04 1.46405
H 29.3823 44.1277 0.907919
H 28.0467 43.315 0.973776
O 25.6875 39.6199 44.9779
H 25.6082 38.6988 45.0243
H 24.8454 39.9634 0.190279
O 35.2348 32.018 25.8685
H 36.1186 31.601 25.772
H 34.8838 31.5947 26.7064
O 28.4555 10.0477 8.20387
H 29.1174 9.72677 7.58777
H 27.7154 10.2426 7.64297
O 26.9238 1.97537 8.16584
H 26.4449 2.80172 8.19964
H 27.1482 1.59518 9.06604
