192
Atoms. Timestep: 700
O 0.392127 0.573486 2.0386
H 46.392 0.297744 2.14374
H 0.829984 0.270949 2.82007
O 6.59548 3.98043 0.0104871
H 5.97114 4.10492 44.4531
H 6.41722 3.07756 0.26802
O 6.45623 5.21908 3.12457
H 7.39017 4.89706 3.02334
H 6.14482 5.1458 2.20049
O 4.85458 4.95048 5.75022
H 5.48457 5.19722 6.52158
H 5.2037 5.23177 4.93931
O 2.27479 43.5105 4.0066
H 3.02388 0.107684 4.1071
H 2.20546 43.1626 4.90382
O 1.28833 6.1134 6.50281
H 2.18922 5.87793 6.27425
H 0.855342 6.04805 5.65815
O 4.78981 1.34089 0.287013
H 3.81521 1.38516 0.422102
H 4.87096 0.66539 44.8692
O 4.35215 2.31676 4.88344
H 4.46435 3.31175 5.05434
H 4.5743 1.8693 5.75238
O 0.500845 8.10497 8.45809
H 0.775517 7.53694 7.74078
H 0.761896 7.71866 9.29179
O 0.370417 5.31351 3.53349
H -0.375943 5.65718 3.06549
H 0.32859 4.36964 3.40511
O -0.802049 8.7793 43.9424
H -1.5504 9.31405 44.261
H -0.11562 9.42655 43.998
O 2.16829 0.396086 -0.540966
H 1.80366 0.311219 43.7575
H 1.46221 0.302291 0.0802779
O 6.19512 1.29137 2.88241
H 5.75021 1.36386 2.04503
H 5.65513 1.85984 3.48546
O 8.54661 43.0461 11.8972
H 7.73983 42.9137 12.3559
H 9.03781 42.2784 12.1673
O 6.5733 6.05468 7.80363
H 7.30979 5.68077 8.2873
H 6.74572 6.96644 7.78879
O -0.398384 -1.00683 11.1656
H 0.387893 43.6407 10.7127
H 46.2618 -0.374816 11.8086
O 9.038 1.6889 2.80866
H 8.0476 1.46409 2.69446
H 9.46543 1.15875 2.0808
O 13.2385 5.34066 44.8278
H 13.2385 5.11391 43.9013
H 14.1671 5.33084 -0.0836074
O 14.4572 6.78747 4.30064
H 13.9756 7.44221 3.80541
H 14.1096 6.89835 5.1744
O 12.6711 7.00676 6.32194
H 12.5294 7.14824 7.25315
H 12.1673 6.15282 6.16269
O 10.2752 1.09724 6.14307
H 9.69439 1.13831 5.34422
H 9.68424 0.754034 6.82502
O 10.1548 5.18606 5.56273
H 9.8777 4.67679 4.79603
H 9.8999 6.08434 5.39141
O 12.8956 0.412181 0.61831
H 13.4829 0.637015 45.0716
H 13.4009 0.531594 1.50535
O 12.944 0.55825 6.28748
H 12.0089 0.941208 6.13777
H 13.516 1.28085 6.59651
O 9.15055 4.92804 8.33022
H 9.29804 4.02787 8.69132
H 9.53246 4.95374 7.38455
O 9.06347 4.36881 3.13066
H 8.99263 3.31811 2.9539
H 9.47785 4.80258 2.30398
O 10.2733 5.64813 0.856401
H 9.84814 5.2167 0.121986
H 11.2467 5.6762 0.62221
O 10.2916 0.455661 0.894653
H 10.1997 43.6534 45.917
H 11.1964 0.606842 0.763699
O 14.0306 0.835927 3.06501
H 14.9739 1.08805 3.3573
H 13.5084 0.551338 3.8084
O 11.8156 43.9686 8.69776
H 12.2273 -0.82935 9.21773
H 12.2774 -0.140236 7.84756
O 11.0881 7.00876 8.91015
H 11.2391 7.2931 9.80798
H 10.3692 6.37225 8.96302
O 9.29424 0.393121 9.02761
H 10.2529 0.203678 9.04141
H 8.95026 0.104974 9.86493
O 16.7656 1.3577 3.73008
H 17.1741 1.94447 3.09652
H 17.216 1.51169 4.58558
O 20.1296 4.21288 0.446419
H 20.7263 4.3223 1.20448
H 19.4022 4.80065 0.654164
O 22.187 5.1524 2.64346
H 23.1861 5.06644 2.59942
H 22.021 6.05561 2.46416
O 21.3834 4.48336 5.58814
H 21.6823 4.69663 4.62287
H 21.3558 3.54977 5.65151
O 18.4968 1.12714 6.07713
H 19.4171 1.21885 5.89281
H 18.3825 44.3028 6.11687
O 18.3027 5.19901 5.87065
H 18.1321 4.8577 6.76621
H 19.2151 5.006 5.70741
O 20.2326 1.60939 44.4483
H 21.0803 1.87512 -1.04505
H 19.855 2.4161 44.8502
O 21.2382 1.38441 5.68782
H 21.6592 0.981374 6.46973
H 21.7151 0.972368 4.99152
O 18.2133 4.29945 8.46679
H 18.8662 3.58572 8.6311
H 17.4376 3.89258 8.89007
O 16.9464 5.93905 3.45822
H 16.0908 6.23849 3.80222
H 17.476 5.69853 4.31541
O 18.0748 6.08034 1.09321
H 17.9837 7.02025 0.938232
H 17.6002 5.96445 1.99657
O 19.7757 43.173 43.3761
H 19.7482 -0.0728841 43.7667
H 19.0034 43.0102 -2.35221
O 22.7311 44.4705 3.57941
H 23.6594 0.637864 3.37976
H 22.4231 43.8592 2.92266
O 21.9727 0.777497 8.40242
H 22.8659 1.27924 8.62793
H 21.9604 44.1932 9.06328
O 22.4163 5.90076 8.00125
H 21.7407 6.55466 8.17507
H 22.1032 5.45462 7.22157
O 19.4973 1.84516 8.75185
H 20.467 1.52912 8.70078
H 19.0742 1.51511 7.95234
O 25.3529 1.37874 3.15016
H 25.8178 1.08427 2.36122
H 25.8115 1.3032 3.98752
O 29.2923 5.36622 44.6683
H 29.8922 5.69271 43.9964
H 29.4637 4.34352 44.7369
O 30.1211 6.74481 2.42425
H 30.1865 6.41783 1.51845
H 29.4839 7.49334 2.36536
O 29.9693 5.87599 6.86138
H 30.2822 6.52643 6.24304
H 29.0506 5.70672 6.58575
O 26.4834 1.01029 5.59391
H 27.5137 1.21297 5.75596
H 25.9914 1.38765 6.27299
O 26.289 6.30379 6.3301
H 26.3478 5.98431 5.44304
H 25.665 7.05997 6.23685
O 29.6453 -0.173938 -0.0457885
H 30.4609 -0.304883 0.488662
H 29.9676 0.335009 44.3945
O 29.2165 1.44833 6.12494
H 29.6839 2.22619 6.43774
H 29.8608 0.825866 5.86725
O 24.7651 4.55794 8.74413
H 23.8675 4.96298 8.64522
H 25.4164 5.04115 8.19638
O 24.7908 5.00121 2.80642
H 25.056 4.09019 2.86215
H 25.3136 5.27437 2.0086
O 26.4094 6.08534 0.609535
H 26.0758 6.63783 -0.0855912
H 27.3 5.863 0.31715
O 27.133 0.779209 1.19871
H 27.0424 45.3189 0.305749
H 28.0088 0.369621 1.1247
O 32.1174 42.5737 0.981642
H 32.4472 42.6261 1.85069
H 32.974 42.7151 0.452605
O 31.4768 42.7921 10.9652
H 31.4338 43.4511 11.7197
H 32.4199 -1.20403 10.7263
O 31.165 6.45048 9.35407
H 30.5115 6.38527 8.70681
H 30.8152 7.14406 9.97218
O 24.7985 1.94299 8.30978
H 24.6818 2.92172 8.56033
H 25.4889 1.59646 8.93016
