192
Atoms. Timestep: 6750
O 2.26368 3.30636 6.66644
H 1.44063 3.37128 7.23321
H 2.43203 4.19594 6.44344
O 4.85011 0.984935 43.518
H 4.32186 1.77377 43.1444
H 4.68612 0.261576 42.9484
O 5.53725 1.45871 1.00961
H 4.99643 0.814789 1.46287
H 5.31636 1.52614 0.0568091
O 5.37686 4.997 1.94827
H 6.22578 5.51893 1.9652
H 5.59685 4.07737 2.18724
O 2.38888 6.21009 5.71771
H 2.54307 5.93927 4.7955
H 2.94581 6.92231 5.80152
O 3.66573 5.49285 44.8703
H 4.49375 5.50769 0.287058
H 3.52942 6.31976 44.4663
O 3.39314 3.46467 42.7761
H 3.65735 4.18656 43.3828
H 2.43954 3.70512 42.639
O 2.9206 6.007 2.98689
H 3.7131 5.51397 2.69715
H 2.43111 6.41159 2.24139
O 6.63817 11.0492 43.3703
H 7.50736 10.7604 43.1104
H 6.77662 11.9365 43.7844
O 4.49229 8.39153 44.2812
H 5.37692 8.56824 43.9899
H 4.03031 9.2273 44.0941
O 10.0116 38.4267 26.6304
H 10.8955 38.2067 26.3104
H 9.72982 37.619 27.0158
O 2.8336 1.09869 5.09042
H 3.06184 0.407124 5.74586
H 2.45795 1.81969 5.62838
O 3.40309 0.414093 2.30868
H 2.76664 43.7845 2.48336
H 3.38811 0.777602 3.20088
O 17.5984 42.1714 5.35637
H 17.9529 41.9231 6.21621
H 17.3809 43.0821 5.50857
O 7.88138 5.40794 2.29405
H 8.49107 5.33022 1.52846
H 8.13232 4.79867 3.0173
O 0.557855 11.2231 4.74985
H 48.0598 11.8676 5.09684
H 1.20508 10.7152 4.17432
O 12.5485 42.5639 0.573396
H 13.1256 41.9973 1.10349
H 12.4692 42.157 44.8786
O 10.4342 1.07517 42.3863
H 10.6237 1.85883 41.9131
H 9.49841 0.888821 42.3449
O 15.5594 6.56395 3.97108
H 14.9317 7.11731 4.51659
H 15.0037 5.74694 3.82586
O 14.0042 3.97971 3.70938
H 13.0352 4.19916 3.75204
H 14.0191 3.4676 2.88667
O 7.3371 2.14776 6.65463
H 6.40105 2.0114 6.85575
H 7.75171 1.22945 6.59536
O 8.16889 1.75923 2.18526
H 8.79725 1.00043 2.01138
H 7.30553 1.42772 1.84925
O 16.8108 40.684 3.29459
H 16.9159 41.1243 4.11012
H 17.758 40.5468 3.06895
O 14.261 2.18112 5.70734
H 13.948 2.69244 4.91742
H 13.9658 2.69757 6.44373
O 8.64717 3.53879 4.21029
H 8.41041 3.05014 4.99455
H 8.50021 2.82269 3.53666
O 13.4263 2.68234 1.17873
H 14.0104 2.53186 0.473058
H 12.6423 2.20807 0.961161
O 11.069 0.896768 0.695029
H 10.8443 0.989105 44.9171
H 11.6113 0.0615185 0.731869
O 14.6029 40.9587 1.88705
H 14.5775 40.1205 2.34164
H 15.5002 41.1906 2.03646
O 16.9295 0.932971 5.91385
H 17.4106 1.69817 5.53817
H 15.9832 1.20512 5.83712
O 12.1071 44.3877 4.57799
H 12.4901 43.7514 3.93573
H 12.8501 0.589834 5.04235
O 11.4723 4.59144 4.60619
H 11.0345 5.40877 4.37612
H 10.6892 3.99151 4.68618
O 8.59704 43.8632 6.03604
H 9.42838 -0.387951 5.56076
H 8.34509 42.9562 6.23042
O 18.5795 2.77494 4.22869
H 18.4831 3.69987 3.94749
H 19.1801 2.30679 3.61887
O 18.1026 9.96814 1.21715
H 19.0843 10.0445 1.05222
H 17.9847 9.14495 1.70248
O 24.2198 6.635 2.7925
H 23.6858 6.19198 2.08638
H 24.9021 7.083 2.29739
O 22.9208 7.24386 5.55211
H 22.7822 8.20273 5.49377
H 23.3777 7.22014 4.75022
O 21.4059 -0.0200369 8.96011
H 21.8301 43.367 8.55992
H 21.9205 0.2464 9.73353
O 19.9815 6.04772 6.21551
H 19.7341 5.85492 7.15549
H 20.9272 6.22553 6.17905
O 16.4956 12.0129 1.68639
H 16.3479 11.5775 0.883073
H 17.2882 11.6052 2.04676
O 23.9316 44.01 10.4264
H 24.7872 44.2022 9.99935
H 24.1946 -0.224522 11.3301
O 19.2767 4.63295 8.4716
H 19.2004 3.63296 8.53599
H 18.4927 4.87952 9.00733
O 18.2736 5.83262 4.11458
H 17.4062 6.15051 4.39081
H 18.8667 5.87318 4.84537
O 17.2689 7.58525 1.97167
H 17.8274 7.12204 2.60307
H 16.3946 7.27883 2.32642
O 16.1466 14.9397 2.99144
H 16.4618 14.1216 2.60759
H 16.998 15.1933 3.35714
O 27.6541 41.5598 7.74938
H 27.7888 41.2028 6.85323
H 28.1033 40.9672 8.29384
O 26.5827 44.2252 8.99151
H 26.9241 0.993907 8.94428
H 27.1258 43.5704 8.45434
O 25.3803 6.59553 7.45343
H 26.1168 7.03823 7.1123
H 24.7029 6.66407 6.80124
O 18.7208 1.71285 8.55972
H 18.1296 1.22819 8.0258
H 19.5188 1.10288 8.62477
O 28.6753 40.6801 4.97949
H 28.1954 40.9725 4.24469
H 29.0045 39.8172 4.70464
O 22.6143 7.43752 42.1212
H 22.3824 7.38658 41.1801
H 22.817 8.33138 42.2845
O 23.3781 10.4185 42.207
H 24.2275 10.7588 42.1369
H 22.9641 11.2289 42.3445
O 31.5067 7.02688 3.9764
H 30.9924 6.55406 4.5779
H 32.2046 6.44936 3.69488
O 29.8747 3.43771 7.65166
H 30.719 3.0794 8.02324
H 29.1789 3.38364 8.33182
O 29.8192 5.46782 5.65472
H 29.8946 4.78996 6.33853
H 28.9638 5.72516 5.52641
O 26.1664 43.1793 1.17425
H 25.4448 43.4493 0.56522
H 26.063 -0.371593 1.86337
O 32.702 2.66976 8.05508
H 33.0584 1.99341 8.61404
H 33.3342 2.88065 7.36503
O 25.4865 4.9177 9.66318
H 25.3832 5.16693 8.72964
H 25.6026 5.79127 10.0879
O 22.6174 6.0097 0.372215
H 21.9305 6.48217 45.1615
H 23.0882 5.53271 44.8491
O 24.0182 5.30497 43.1209
H 24.9392 5.52529 43.2026
H 23.6807 6.06162 42.627
O 27.5836 40.9486 2.36957
H 27.1076 41.6592 1.91779
H 26.983 40.2012 2.43671
O 23.4013 42.6186 44.2204
H 23.6692 42.3559 43.3411
H 22.5477 42.3645 44.173
O 28.2059 22.9935 39.0525
H 28.1138 22.0082 39.1418
H 27.2363 23.2425 39.0917
O 31.0289 9.44235 2.54495
H 31.2854 8.52665 2.74524
H 31.4244 9.84803 1.70351
O 27.6613 2.8652 9.60134
H 26.9649 3.51391 9.61705
H 28.016 2.93596 10.5492
