192
Atoms. Timestep: 9650
O 3.38419 3.03174 6.50681
H 2.63801 3.5182 6.75569
H 4.11455 3.65253 6.70309
O 5.16248 1.03662 43.6016
H 4.92079 1.82159 43.0765
H 5.51095 0.367935 43.0782
O 5.81962 2.12292 1.15619
H 5.23133 1.46399 1.57741
H 5.71622 1.96755 0.228014
O 4.73156 5.18753 1.24612
H 4.9734 4.2545 1.30318
H 5.1431 5.63657 0.50202
O 5.26746 5.06911 6.55121
H 5.38294 5.49266 5.67189
H 6.15186 5.25436 6.96787
O 4.50919 4.56482 39.6065
H 3.94232 5.31105 39.5165
H 5.13748 4.65355 38.9282
O 4.28321 2.83387 41.7929
H 4.80111 3.46891 41.2548
H 3.71532 2.37671 41.1041
O 5.56773 6.07635 3.80094
H 6.51293 6.19254 3.48426
H 5.04306 5.84658 2.9754
O 8.30347 7.26907 39.0408
H 8.74486 7.36591 39.9433
H 8.0087 8.16978 38.8795
O 6.09896 5.35227 37.4874
H 6.89344 5.85751 37.7339
H 6.27654 5.03415 36.5925
O 39.3642 8.44975 18.3805
H 39.6099 9.33094 18.5424
H 40.2426 8.05973 18.1888
O 3.53503 0.649514 5.17976
H 3.85968 1.51462 5.05779
H 3.19887 0.791455 6.06812
O 4.3431 0.0562103 2.70529
H 4.98137 43.4257 2.73562
H 3.95667 -0.0711962 3.60401
O 17.6386 41.442 42.6895
H 18.0021 41.1922 41.8169
H 17.6055 42.4039 42.714
O 8.13555 6.68435 4.18719
H 8.45572 7.54089 3.94765
H 8.88579 6.15092 4.3681
O 6.40287 43.7197 26.9405
H 5.8226 43.2243 26.3416
H 7.26758 43.2481 26.7892
O 11.7184 42.8177 0.71152
H 12.519 42.3377 0.859471
H 10.9595 42.254 0.847957
O 10.5575 2.56152 42.7945
H 10.4358 1.92507 42.1149
H 9.86106 3.154 42.573
O 13.6311 6.52667 4.25391
H 13.269 5.7586 4.74736
H 13.5888 6.31311 3.29358
O 14.1619 3.31233 3.37201
H 13.3864 3.44633 3.98715
H 13.751 3.18576 2.45876
O 13.5704 3.27652 7.88294
H 13.1185 3.4833 8.66695
H 14.4518 3.70473 7.94702
O 8.70234 1.57934 2.51776
H 9.18264 1.57003 1.68821
H 7.71524 1.66268 2.30992
O 16.4377 40.2152 44.9781
H 16.7094 40.5975 44.1344
H 16.7991 39.2965 44.96
O 16.6278 3.0264 4.21016
H 15.763 2.90214 3.89632
H 16.7075 3.94599 4.47475
O 10.0463 3.03328 4.5884
H 9.37011 3.14636 5.31045
H 9.65749 2.4102 3.96234
O 12.9387 3.19347 0.746232
H 13.0231 3.82812 0.0813131
H 12.3545 2.54379 0.438542
O 10.9795 1.28934 0.332429
H 10.7055 1.43271 44.6019
H 11.2147 0.376034 0.423123
O 13.6514 40.6593 0.182647
H 13.2138 40.2529 44.61
H 14.5911 40.5715 0.0139977
O 16.9022 -0.0260008 43.1767
H 17.263 0.383089 43.9762
H 16.6711 0.660146 42.5506
O 17.8824 2.1046 6.54618
H 17.4295 1.28434 6.7188
H 17.6092 2.42004 5.6678
O 12.5309 4.03707 5.33489
H 12.8269 3.89741 6.27269
H 11.6359 3.62171 5.27737
O 16.0788 4.563 7.30701
H 16.6767 3.83296 7.27707
H 16.2811 5.01953 6.47232
O 18.6091 1.24901 0.520264
H 19.294 2.00225 0.517454
H 18.724 0.736819 1.31411
O 11.4899 11.6166 4.4803
H 11.9896 10.7799 4.70063
H 11.5597 11.5347 3.50553
O 19.4897 8.05251 2.5254
H 19.4584 8.45165 1.62402
H 18.9303 7.24723 2.46466
O 20.9759 8.3648 4.81579
H 20.8535 9.26495 5.04457
H 20.4824 8.23562 4.02657
O 21.9081 0.468863 9.02719
H 22.8233 0.603437 9.35899
H 21.4149 0.755858 9.74922
O 18.5693 6.94855 6.70148
H 18.8485 6.45035 7.48408
H 19.4033 7.3838 6.40178
O 13.181 13.8674 5.26502
H 12.6256 13.087 5.1933
H 12.6606 14.6315 5.01164
O 24.5108 0.303916 10.1806
H 24.981 43.8071 9.60402
H 25.0742 1.04373 10.3276
O 19.885 5.31616 8.46162
H 19.9478 4.35347 8.23048
H 19.7252 5.28828 9.38965
O 16.8539 6.08554 4.58034
H 16.0661 6.60479 4.57806
H 17.4822 6.51175 5.21417
O 13.3661 9.58476 4.8619
H 13.4138 9.42023 5.81209
H 13.5213 8.67373 4.56784
O 16.1101 14.4271 5.68043
H 16.1013 14.0425 6.55604
H 15.2058 14.2489 5.46954
O 28.8774 42.3448 7.80164
H 29.5854 42.1474 8.3629
H 28.533 41.5296 7.43856
O 26.7763 0.0706115 8.11039
H 26.2636 0.0986361 7.35057
H 27.5089 43.6119 7.96962
O 22.9968 6.57351 6.62132
H 22.3085 6.03865 7.02114
H 22.5347 7.15115 5.98445
O 20.3626 2.61619 7.85859
H 19.4797 2.26291 7.61741
H 20.9905 1.99861 8.32405
O 28.0136 39.8837 6.83149
H 27.8241 39.735 5.85698
H 27.4193 39.369 7.32354
O 21.9523 8.58701 41.1083
H 22.8298 8.48533 40.6521
H 21.3103 8.38835 40.4596
O 19.6078 7.53815 39.5598
H 19.3411 7.18696 38.6734
H 19.1042 6.97722 40.1696
O 33.6556 3.40606 4.0302
H 33.221 4.11309 4.52354
H 33.0909 3.282 3.28292
O 30.0981 4.97075 7.72516
H 30.4691 4.21183 8.18852
H 29.173 4.80036 7.41079
O 32.2769 5.4198 5.86055
H 31.5318 5.37409 6.49399
H 32.8023 6.05504 6.30674
O 27.9011 41.95 2.49665
H 28.5282 42.1971 1.74719
H 27.1111 42.2066 2.19911
O 32.4931 3.66495 8.06268
H 32.7201 4.02237 7.18809
H 33.3055 3.20948 8.29259
O 25.5862 6.00041 6.32772
H 24.8568 6.39218 6.80739
H 25.0964 5.44224 5.74132
O 19.2625 8.50104 45.0799
H 20.1708 8.61767 44.5944
H 18.841 9.32126 44.839
O 21.4757 9.20055 43.7268
H 22.3636 9.20323 44.097
H 21.6235 9.03189 42.7591
O 27.1955 40.1015 4.3877
H 27.7549 40.7724 4.0979
H 27.2913 39.5142 3.6525
O 28.9013 42.8881 44.9619
H 29.08 42.5258 44.0661
H 29.5111 43.5777 44.9042
O 21.5345 14.6272 6.10018
H 22.2112 14.4375 5.4919
H 21.4802 13.8506 6.57147
O 36.5785 2.83113 4.27138
H 35.6362 3.14597 4.1395
H 36.4598 1.92691 4.28044
O 27.3133 4.46485 7.57997
H 26.6554 5.08315 7.22485
H 26.8656 3.57507 7.48062
