192
Atoms. Timestep: 3200
O 0.591335 -0.145349 0.47132
H -0.19797 -0.527695 45.1499
H 0.34664 0.617294 1.07908
O 5.4648 4.31332 44.4903
H 4.95816 4.94947 44.0416
H 5.69842 3.60329 43.8507
O 5.39646 3.44794 1.93597
H 5.48912 2.44742 1.78077
H 5.38877 3.72489 0.98572
O 3.36778 4.89974 4.40543
H 3.98195 4.59044 5.03113
H 3.79144 4.68879 3.56761
O 46.7647 1.89246 2.10918
H 0.400411 2.27659 2.88839
H 46.3099 2.67944 1.71789
O 3.28111 8.11117 4.02209
H 3.46855 7.16512 4.21923
H 2.96287 8.48663 4.81587
O 5.91225 2.43734 42.4736
H 5.34641 1.65422 42.5539
H 5.98387 2.49063 41.5694
O 0.969203 3.28093 4.04991
H 1.6636 4.0162 4.17459
H 1.07766 2.73844 4.81257
O 2.0308 8.58797 1.52586
H 2.44248 8.61311 2.40185
H 2.64394 8.13912 0.9293
O 2.52396 9.96112 6.09501
H 2.21372 9.61365 6.93493
H 1.83901 10.5196 5.74122
O 31.1123 21.0594 36.7965
H 30.7335 21.9619 36.7335
H 31.8559 21.1734 36.2265
O 3.24531 43.1261 0.101121
H 3.24937 42.19 45.1969
H 2.26954 43.3027 0.26234
O 5.28038 0.553006 1.43543
H 6.059 -0.00507293 1.64893
H 4.57703 0.0695985 0.996871
O 13.5556 42.8626 8.93836
H 13.8999 42.2324 9.54114
H 14.2591 43.3359 8.45129
O 5.144 3.81461 6.34226
H 4.96762 4.2035 7.1979
H 6.05597 4.18443 6.08777
O 41.0223 31.35 25.7148
H 40.2819 31.9296 25.9394
H 40.6589 30.8531 25.0262
O 10.1464 0.910827 2.18999
H 9.54564 0.3165 2.56372
H 10.9226 0.383392 2.14058
O 9.64924 5.77696 44.2765
H 8.82804 6.24789 44.037
H 9.95941 5.27825 43.5261
O 15.0941 4.38181 5.37894
H 15.4519 5.3311 5.37999
H 14.163 4.4842 5.19885
O 12.2508 4.36554 5.64399
H 11.6688 5.04487 5.97756
H 11.8369 4.03566 4.88792
O 9.05716 3.0785 7.40103
H 8.94434 2.14267 7.51408
H 9.16908 3.27226 8.38135
O 7.38358 4.09862 3.38081
H 8.1153 4.49957 2.90168
H 6.71951 3.80126 2.68365
O 13.2312 42.8214 5.7736
H 12.6933 42.6924 6.53639
H 13.9361 43.3499 6.15023
O 13.939 2.39482 7.43337
H 13.2378 2.79112 6.92618
H 14.6729 3.01636 7.36627
O 7.61264 4.80808 6.0354
H 8.18616 4.20724 6.53914
H 7.71228 4.70724 5.05527
O 10.8008 3.42396 3.31837
H 10.6031 2.56599 2.86629
H 10.6336 4.12326 2.61459
O 9.96152 5.4536 1.84065
H 10.5333 6.19049 2.07186
H 9.95601 5.50915 0.861463
O 12.1614 43.0426 3.3559
H 12.2874 42.1872 2.91419
H 12.5632 42.9028 4.24904
O 15.3448 -0.363347 7.2044
H 16.2803 -0.177146 7.05144
H 14.9449 0.501924 7.22189
O 12.0897 0.977967 10.1524
H 12.4008 0.0786498 9.93487
H 12.8907 1.45571 9.93551
O 10.3524 6.75222 6.19479
H 10.1448 7.22363 5.38835
H 9.53326 6.26528 6.37643
O 9.50539 2.10168 9.97405
H 10.4044 1.71765 10.0085
H 9.30823 2.44461 10.8467
O 18.1616 0.189492 6.54644
H 18.304 1.1042 6.2031
H 19.0489 -0.110145 6.7124
O 20.0321 5.17838 44.5396
H 20.7544 4.92689 -0.0251196
H 19.2948 5.4066 -0.0711208
O 22.1405 4.03244 2.01117
H 23.0675 4.12319 1.69137
H 21.8128 4.81183 2.52
O 21.7876 3.45525 4.77873
H 22.0419 3.34015 3.82057
H 22.2744 2.73449 5.22439
O 21.1137 43.5149 6.97025
H 21.9793 43.8463 6.53294
H 21.107 42.5603 6.96476
O 19.2276 3.22528 5.97943
H 19.4678 3.34135 6.92466
H 20.1725 3.22857 5.60665
O 20.0699 7.1089 42.4268
H 20.1217 6.4588 41.7182
H 20.2286 6.57703 43.2149
O 23.1928 1.03058 5.84288
H 23.8545 0.937396 6.59328
H 23.6407 0.562572 5.15612
O 20.1988 3.81628 8.52029
H 20.4931 2.90536 8.85399
H 19.5442 4.07055 9.19808
O 17.281 4.6727 3.72766
H 16.4449 4.25287 4.0907
H 17.978 4.43451 4.33936
O 17.913 5.84209 1.20039
H 18.0103 6.40193 1.96303
H 17.5021 5.05129 1.55949
O 20.8042 8.81413 40.5952
H 20.6306 8.43948 41.4935
H 21.6054 8.32559 40.3648
O 24.9706 43.4244 4.58712
H 25.8418 43.7356 4.35463
H 24.6628 42.7982 3.91697
O 24.7307 0.212348 7.93976
H 25.3893 0.910863 8.20675
H 25.3034 43.5697 7.72315
O 22.6525 5.20875 7.36652
H 21.8402 4.77612 7.70944
H 22.6261 5.01032 6.3812
O 20.7033 1.20472 9.17915
H 21.3879 1.15684 9.77025
H 21.0429 0.621946 8.44242
O 27.5683 0.734673 4.00069
H 28.0766 0.725113 3.20413
H 28.0442 1.20095 4.70884
O 27.612 8.25354 0.780228
H 27.8731 9.02733 1.35156
H 27.7835 8.47741 -0.118155
O 27.8898 9.37849 43.2297
H 28.4927 9.83666 42.5944
H 27.0925 9.90729 43.092
O 30.1704 7.90074 7.05353
H 30.699 8.21184 6.28054
H 29.6849 7.09398 6.67473
O 28.7551 2.20831 6.24959
H 29.6292 1.86494 6.27361
H 28.3773 2.27953 7.09494
O 28.668 5.58568 6.27389
H 29.0624 4.78034 6.51978
H 28.0699 5.43826 5.53336
O 28.954 41.5511 -0.0412227
H 28.2979 40.8846 -0.158064
H 29.7199 41.0308 45.2153
O 31.648 2.36332 6.16642
H 32.1972 2.92779 5.61369
H 32.2425 1.87838 6.70469
O 25.3016 4.4662 8.45544
H 24.4155 4.67552 8.10121
H 25.8449 5.26919 8.34916
O 24.4049 4.36764 0.517681
H 25.2121 3.91996 45.6759
H 24.6534 5.29397 0.472956
O 25.1777 7.07565 0.511638
H 25.2425 7.5227 44.8147
H 26.0398 7.15847 0.930719
O 29.1742 43.7115 1.73134
H 29.0032 -0.514806 0.763808
H 29.3935 42.7472 1.9107
O 26.3995 40.3718 44.9027
H 26.2993 40.2379 43.9442
H 25.8543 39.719 45.2288
O 36.1131 33.1581 24.213
H 37.0751 32.9538 24.2504
H 35.747 32.5054 24.8448
O 29.1527 9.89773 8.62154
H 29.4136 9.15684 8.04909
H 28.2437 9.89022 8.56376
O 26.7627 2.2053 8.65278
H 26.2571 3.06932 8.72543
H 27.1355 1.87509 9.46946
