192
Atoms. Timestep: 4500
O 46.8523 0.424963 2.98756
H 46.6792 0.509695 1.97536
H 46.421 1.30119 3.16303
O 4.87405 3.33538 44.1437
H 5.30568 3.88967 43.5137
H 4.17077 3.01521 43.591
O 5.39318 2.69679 1.66959
H 5.05527 1.80521 1.95281
H 5.27338 2.81295 0.735894
O 3.76901 5.15511 3.15368
H 4.31745 5.24108 3.8869
H 4.1659 4.71113 2.4325
O 45.8514 3.10795 2.79984
H 46.4141 3.77648 3.12019
H 44.9661 3.34596 3.07789
O 3.86693 8.35103 1.97665
H 4.07925 7.4286 2.06361
H 4.73719 8.79824 1.93018
O 5.25905 4.09565 41.4793
H 5.5912 4.93932 41.322
H 5.55627 3.55418 40.7302
O 0.907461 4.71112 3.91524
H 1.82024 5.01352 3.68444
H 0.919277 5.28405 4.73256
O 1.75183 9.0354 0.163921
H 2.43081 8.60251 0.743657
H 1.38134 8.33885 44.8703
O 6.87051 8.41965 1.69972
H 7.15512 8.64845 0.804933
H 7.41222 8.99474 2.25349
O 23.3687 27.3909 33.0793
H 23.216 28.3468 33.1485
H 24.0738 27.3713 32.4389
O 2.39772 43.1851 3.15131
H 2.10182 42.7109 3.95373
H 1.63342 43.7413 3.06287
O 4.76079 -0.0402059 2.32326
H 5.32962 43.2817 2.30918
H 3.88058 43.6967 2.42173
O 15.0232 43.2206 7.54245
H 15.4749 43.2066 8.38701
H 15.6954 43.6069 6.89739
O 5.86455 5.25898 5.15876
H 6.15416 6.05308 5.56315
H 6.56573 4.58351 5.24595
O 43.4077 24.029 34.55
H 42.557 23.8992 34.9934
H 43.7027 23.1307 34.5003
O 13.7856 0.952203 1.62568
H 13.2311 0.149112 2.01827
H 14.6838 0.552203 1.5723
O 11.3212 5.41324 44.0774
H 12.1893 5.04663 43.8932
H 11.3066 6.32094 43.7248
O 15.9067 5.68181 5.28696
H 15.6964 6.61816 5.31756
H 15.1166 5.23653 5.02348
O 13.245 4.69394 4.97714
H 12.3271 4.87197 5.20992
H 13.0979 4.26152 4.11877
O 7.89969 1.77273 7.42137
H 7.10606 1.47003 7.87009
H 8.58968 1.66473 8.04706
O 8.30821 2.34934 2.70792
H 8.94786 2.70042 2.02982
H 7.42409 2.35312 2.39122
O 13.71 41.2342 5.76827
H 14.2477 41.8768 6.31789
H 14.1193 40.4322 6.08029
O 14.8408 2.9873 6.78366
H 14.0468 3.35508 6.29594
H 15.4484 3.71913 6.7515
O 8.2155 3.61795 5.26248
H 8.12741 2.8089 5.80032
H 8.24607 3.30732 4.36835
O 13.1611 3.41056 2.546
H 13.6367 2.526 2.50982
H 12.3966 3.2171 2.02945
O 10.4882 3.25217 0.896556
H 10.6075 4.0534 0.375882
H 10.4393 2.52443 0.246905
O 12.7198 42.9702 3.15349
H 12.0278 42.3086 3.10548
H 13.2493 42.682 3.93668
O 16.4966 0.740674 6.10912
H 17.3248 0.884899 5.58802
H 16.0174 1.57339 6.2679
O 13.285 1.11168 9.0434
H 13.7324 0.406899 8.50328
H 13.6589 1.89073 8.562
O 10.6114 5.17659 6.30294
H 10.2726 5.96935 6.71552
H 9.86419 4.63361 6.07906
O 10.4881 1.16893 9.77292
H 11.3644 1.15543 9.3497
H 10.2874 0.271734 10.0141
O 18.8611 1.13806 4.49955
H 19.2633 1.97823 4.67144
H 18.5252 1.19399 3.62545
O 16.9939 7.04047 44.3202
H 16.7034 6.39243 43.7042
H 17.442 6.5711 45.0813
O 23.8149 3.50775 3.37579
H 23.9001 4.43939 3.21594
H 24.0183 2.98874 2.62121
O 22.4267 2.48483 5.58379
H 23.0312 2.70397 4.81676
H 22.5935 1.59124 5.83029
O 21.1955 43.8333 9.5347
H 21.833 44.042 10.2187
H 21.7792 43.6863 8.80094
O 20.0309 3.73973 4.99446
H 19.7532 3.96201 5.9129
H 20.9866 3.44065 5.10492
O 18.9518 8.63729 43.2525
H 19.186 8.39108 42.3534
H 18.1882 8.08373 43.5151
O 23.0618 43.7726 7.46798
H 23.8662 0.0878363 7.84781
H 23.4195 43.0377 6.99622
O 19.4893 4.04391 8.05341
H 19.2493 3.15497 8.51487
H 19.3023 4.73634 8.7344
O 18.2406 5.53726 3.64938
H 17.3698 5.5092 4.11021
H 18.8512 4.98023 4.16746
O 18.1374 5.08984 0.908373
H 18.3045 5.19893 1.87083
H 18.9421 4.73331 0.604262
O 20.2066 11.0711 43.9706
H 20.2568 10.3064 44.5303
H 19.5989 10.8987 43.2863
O 26.992 42.9242 6.3014
H 27.2626 43.3628 5.49384
H 26.9809 42.0012 6.19186
O 25.5965 0.267146 8.61849
H 25.8078 1.26295 8.59715
H 26.1842 43.8966 7.91889
O 22.5745 4.15582 8.02259
H 21.675 4.42846 8.1038
H 22.5109 3.61568 7.213
O 19.3061 1.78091 9.79683
H 18.8108 1.70035 10.651
H 19.8656 1.00664 9.67531
O 27.9665 43.8086 3.63205
H 27.4018 44.0724 2.8677
H 28.5555 0.381604 3.86532
O 25.5853 9.29193 43.2944
H 24.772 9.73603 42.8844
H 26.2501 9.31964 42.6252
O 26.7182 10.6939 40.7666
H 27.7079 10.7443 40.6756
H 26.3525 10.5489 39.8737
O 28.5909 7.2229 6.46142
H 29.4584 7.14389 6.76879
H 28.5834 6.90592 5.59879
O 28.9855 2.7652 5.77747
H 29.5521 2.4989 6.46336
H 28.1122 2.73641 6.21516
O 29.8842 5.40534 4.89441
H 29.5993 4.59824 5.31647
H 29.9959 5.17329 3.91589
O 25.5162 41.9878 0.50413
H 25.037 41.6429 44.9448
H 25.0664 41.5465 1.13492
O 30.6771 1.49155 7.97138
H 30.8153 1.57935 8.93311
H 30.9751 0.602633 7.83544
O 25.0723 5.0952 8.73604
H 24.1763 5.07405 8.44098
H 25.4871 5.86729 8.42254
O 24.3614 6.34806 2.81761
H 23.566 6.77885 2.53937
H 24.8666 6.56545 1.99268
O 25.7599 7.98106 0.888494
H 26.1336 8.76053 1.38238
H 25.4725 8.16275 -0.0283993
O 27.3549 44.1707 0.954348
H 26.7381 43.4153 0.7033
H 28.1299 44.1558 0.38273
O 25.2675 39.4365 44.6549
H 24.5645 38.8975 44.3512
H 25.8739 38.7937 45.1093
O 33.159 29.3728 29.7069
H 33.4984 30.0193 29.1163
H 33.9341 28.8938 29.8993
O 28.0745 10.1061 6.27703
H 28.1873 9.13152 6.22457
H 28.9165 10.4738 6.28916
O 26.5388 2.84561 8.28491
H 25.9666 3.63805 8.25772
H 27.2151 3.08881 8.86915
