192
Atoms. Timestep: 550
O 0.669158 0.756554 2.32176
H 46.6635 0.560825 2.24791
H 1.03123 0.145927 3.00096
O 6.72134 4.15567 0.356499
H 6.90577 4.72314 44.7555
H 6.1389 3.48918 0.0751461
O 6.4417 5.56313 3.0064
H 7.37705 5.2934 3.12402
H 6.18379 5.209 2.18494
O 4.91249 5.12285 6.00103
H 5.45216 5.50425 6.69825
H 5.18326 5.34834 5.06882
O 2.22897 43.5195 4.14764
H 2.79133 -0.0616833 4.68451
H 1.94161 42.8967 4.73702
O 1.42053 6.0146 6.07097
H 2.34122 5.79162 5.94801
H 0.968221 5.73213 5.28287
O 4.89028 1.18745 0.178186
H 3.95856 0.992245 0.319341
H 5.20578 0.479554 44.8349
O 4.68609 2.10221 5.25039
H 4.76189 3.12172 5.35893
H 4.96186 1.81025 6.11175
O 0.619103 7.43282 8.91091
H 0.745687 7.09131 8.0071
H 0.904271 6.6254 9.41025
O 0.602889 5.08759 3.44589
H 0.418131 5.72225 2.74692
H 0.383765 4.23915 3.03302
O 0.0747742 8.04371 44.408
H -0.246276 8.97031 44.4375
H 0.984041 8.15141 44.1854
O 2.17608 0.32743 0.25818
H 1.85858 0.575508 44.5712
H 1.47745 0.398745 0.915687
O 6.30215 1.0181 2.61135
H 5.79217 1.12051 1.74803
H 5.65629 1.29164 3.32287
O 7.6072 43.16 11.2261
H 6.73665 43.4456 11.4901
H 7.74716 42.3117 11.6788
O 6.59502 6.29672 8.03177
H 7.47547 5.81687 8.28814
H 6.65608 7.14631 8.43567
O 0.108814 -0.268164 10.2563
H 0.608476 43.952 11.003
H 46.2274 0.0632683 10.5376
O 8.94665 1.72454 2.90936
H 7.99123 1.52012 2.75605
H 9.3007 1.29821 2.11596
O 13.2216 5.14843 44.9471
H 13.8614 5.27866 44.2319
H 13.7804 5.35921 0.537812
O 14.3589 6.61681 3.76912
H 14.307 7.57638 3.73066
H 13.9477 6.39783 4.63569
O 12.9491 6.22647 6.38368
H 12.901 6.44983 7.31145
H 12.0822 6.01856 6.1518
O 10.4114 0.832501 6.27972
H 9.79231 0.902506 5.55062
H 9.85724 0.622991 7.04918
O 10.1587 5.49685 5.50562
H 10.0935 4.99364 4.72061
H 9.5793 6.24223 5.52365
O 12.8979 0.641689 0.257198
H 13.1183 1.53136 45.1235
H 13.377 0.615883 1.17044
O 13.2318 0.920629 6.07213
H 12.239 0.940049 6.08579
H 13.4798 1.85338 6.152
O 9.21456 4.79719 8.17092
H 9.27789 3.88929 8.44465
H 9.4704 4.79278 7.26722
O 9.46776 4.50605 3.17073
H 9.31084 3.58204 3.082
H 9.7945 4.94182 2.31413
O 10.3465 5.6691 0.807166
H 9.80937 5.99533 0.123152
H 11.2141 5.57274 0.384315
O 10.122 0.406579 0.580104
H 9.91569 43.6124 45.6877
H 11.031 0.486696 0.513144
O 14.1041 0.724547 2.86128
H 15.0495 0.872042 3.00358
H 13.6132 0.601206 3.65688
O 12.5458 44.011 8.85279
H 13.1305 -0.644102 9.3797
H 13.003 0.0956345 8.01623
O 11.8941 6.91935 9.1321
H 12.0388 6.74089 10.0784
H 10.9951 6.65823 8.98496
O 9.26208 0.848494 8.85173
H 10.1093 0.61197 9.26271
H 8.6417 0.38005 9.37429
O 16.7679 1.33318 3.44694
H 17.0948 2.16403 3.07385
H 17.2634 1.26057 4.28295
O 20.5086 4.46499 0.245706
H 20.9839 4.69649 1.06017
H 19.7221 5.01096 0.295892
O 21.8012 5.54754 2.81782
H 22.7961 5.49915 2.73899
H 21.6225 6.46059 2.96117
O 21.2373 4.6945 5.80531
H 21.4547 4.85627 4.90195
H 21.2363 3.72207 5.86959
O 18.3969 1.03272 6.05622
H 19.4262 1.11586 5.91418
H 18.2352 44.1979 6.12573
O 18.0971 5.45257 5.80427
H 17.8069 5.09437 6.6976
H 19.031 5.37694 5.8437
O 20.2022 1.70336 44.8499
H 20.9669 1.45887 0.157919
H 20.1504 2.62409 45.0408
O 21.1249 1.2655 5.80924
H 21.5329 0.933811 6.59128
H 21.6228 0.894294 5.05611
O 17.9583 4.30983 8.40349
H 18.4566 3.53618 8.63755
H 17.4323 4.44781 9.19607
O 17.0318 5.59976 3.22371
H 16.1294 5.96037 3.27482
H 17.3457 5.48671 4.11256
O 18.3599 5.97821 0.639011
H 18.3503 6.93228 0.569435
H 18.0086 5.80989 1.56904
O 19.3285 43.3686 44.0908
H 19.4308 0.174356 44.3274
H 18.4996 43.0312 -0.744173
O 22.3997 44.1742 3.71467
H 23.2115 0.530145 3.49313
H 22.6489 43.2644 3.83193
O 22.2645 0.611444 8.31896
H 23.0588 1.19041 8.35453
H 22.5569 43.911 8.6314
O 22.4974 5.95656 8.24781
H 21.7328 5.74477 8.79633
H 22.1971 5.68228 7.35881
O 19.0255 1.76997 8.90312
H 19.9317 1.50726 8.98249
H 18.7638 1.43128 8.01015
O 24.9194 1.51094 3.41903
H 25.4502 1.29171 2.66537
H 25.3723 1.33677 4.22101
O 29.1416 5.19122 44.7663
H 29.4658 5.78978 44.0134
H 29.7041 4.46021 44.6764
O 30.1338 6.55651 2.5613
H 29.7719 6.15989 1.78323
H 30.82 7.13627 2.19879
O 29.5821 5.54594 6.65952
H 29.9975 5.60875 5.8102
H 28.6852 5.8761 6.50231
O 26.1834 0.797322 5.76492
H 27.0699 0.93524 5.90675
H 25.6869 1.16002 6.45596
O 25.937 6.20861 6.45011
H 25.6505 6.09191 5.57885
H 26.1384 7.17883 6.40534
O 29.6602 0.310752 0.0492044
H 30.4446 0.289067 0.612897
H 30.0473 0.202681 44.387
O 29.0921 1.33966 5.93533
H 29.5432 2.16822 6.07751
H 29.6003 0.958924 5.2339
O 24.9335 4.57546 8.41232
H 24.1413 5.01417 8.55833
H 25.4464 5.10749 7.79866
O 24.8448 5.19782 2.8311
H 24.9657 4.2155 2.92452
H 25.4131 5.50101 2.02079
O 26.5521 5.93561 0.63714
H 26.2152 5.98423 -0.25313
H 27.3577 5.4152 0.5288
O 26.8039 0.695592 0.707324
H 26.3482 44.9624 -0.146044
H 27.724 0.674262 0.482537
O 31.6591 43.0927 1.70957
H 31.42 42.7295 2.5319
H 32.6027 43.2792 1.82092
O 31.1218 43.5165 10.1648
H 31.8395 42.9163 9.85803
H 30.4802 -1.21916 10.5283
O 30.9993 6.26146 9.24438
H 30.7922 5.75722 8.46064
H 30.1211 6.7812 9.40204
O 24.5711 1.92199 8.40368
H 24.6739 2.80638 8.38919
H 25.0722 1.57197 9.12963
