192
Atoms. Timestep: 2700
O 1.55382 0.953173 45.1488
H 1.25519 1.36933 44.3958
H 1.00137 1.14011 0.726442
O 5.0295 4.28021 44.9008
H 4.57374 4.90936 44.3452
H 5.07815 3.49036 44.326
O 5.04328 3.73721 2.41324
H 5.38264 2.88557 2.11816
H 4.90039 4.22902 1.57707
O 2.85285 4.31389 4.89102
H 3.50331 4.40587 5.72525
H 3.54867 4.08374 4.19471
O 46.7953 1.40725 2.07587
H 0.121429 2.10482 2.77237
H 46.6881 0.676101 2.62075
O 2.71837 7.39823 4.88297
H 2.55114 6.41207 4.9033
H 2.05146 7.83475 5.4687
O 5.91987 2.18741 42.9071
H 5.19849 1.69642 42.441
H 6.77795 1.80102 42.6111
O 0.511108 3.23378 4.01064
H 1.37024 3.5948 4.29642
H 46.7468 3.36106 4.69388
O 2.52734 8.59625 2.32035
H 2.55833 8.17788 3.20269
H 1.58851 8.49933 2.11964
O 0.769696 9.11479 6.135
H 46.8109 9.17239 5.83531
H 0.995012 10.0303 6.05273
O 34.1595 18.6978 38.2164
H 34.9786 18.2201 38.1326
H 33.5641 17.9574 38.3783
O 3.963 43.8622 0.352103
H 3.74337 43.4469 1.20547
H 3.09762 0.225382 0.129471
O 6.0602 1.48246 0.908318
H 6.2737 1.72055 0.0182251
H 5.22389 1.01846 0.613543
O 12.9214 42.8683 8.88363
H 13.1235 41.9187 8.99176
H 13.7384 43.3207 9.028
O 4.4718 5.08646 6.91591
H 5.34525 4.6356 7.0092
H 4.61342 5.99307 6.69242
O 40.7925 34.0474 22.5338
H 40.4156 34.1845 21.6425
H 41.1821 33.0758 22.4665
O 9.71179 0.847182 3.5602
H 9.11426 0.252561 3.05502
H 10.6427 0.612556 3.46375
O 9.56979 6.66325 43.2502
H 9.7409 7.57775 43.0543
H 8.67787 6.85144 43.5955
O 14.5352 5.21869 5.80214
H 14.579 6.17891 5.90506
H 13.7301 5.00038 5.32975
O 12.0343 4.46869 5.04616
H 11.2234 4.65422 5.59113
H 11.6882 4.06244 4.16885
O 9.702 2.06924 7.12667
H 9.64514 1.3936 6.4142
H 9.51216 1.63382 7.98589
O 6.91847 4.45135 4.40909
H 7.65768 4.11597 3.87381
H 6.16313 4.31169 3.83923
O 13.6096 43.0349 5.7267
H 13.1108 42.8227 6.52913
H 14.1898 43.7896 5.95793
O 12.6644 2.85672 7.968
H 11.9166 2.88051 7.34516
H 13.0877 3.71866 7.87556
O 7.26843 4.13742 7.11425
H 7.66333 3.27851 7.34821
H 7.24567 4.15232 6.02161
O 9.31368 3.6186 2.96394
H 9.21391 2.70434 3.06448
H 9.53122 3.77066 1.98247
O 10.3705 5.26829 0.400693
H 10.6608 5.86192 1.05627
H 10.2106 5.91835 44.8698
O 12.2473 43.5472 3.37959
H 12.8331 43.5243 2.61349
H 12.6893 43.3257 4.20179
O 15.2191 0.790183 7.18443
H 16.1945 0.953686 7.03122
H 14.6809 1.55409 7.38164
O 11.4978 1.66272 10.3794
H 11.971 0.852669 10.6007
H 11.8787 2.0243 9.52841
O 9.84924 5.64774 6.81515
H 9.70172 6.17051 6.0401
H 9.00335 5.20957 6.99923
O 9.08473 1.1896 9.57693
H 9.98002 1.19474 9.90986
H 8.77611 1.9887 10.016
O 17.9286 1.06792 6.83044
H 18.5774 1.68056 6.52607
H 18.4886 0.315199 7.10601
O 19.8544 5.27509 0.1232
H 20.6113 5.03058 0.69493
H 19.057 5.26892 0.657956
O 22.3789 4.55519 2.50107
H 23.1699 4.45755 1.90979
H 22.7041 5.27414 3.07716
O 22.2401 2.87256 4.58818
H 22.3066 3.21925 3.70395
H 22.6145 1.94657 4.62174
O 20.5835 43.3861 6.82893
H 21.23 43.509 6.1245
H 20.4262 42.4366 6.7805
O 19.4387 2.96022 5.79499
H 19.8777 3.38708 6.52448
H 20.186 2.71504 5.23928
O 19.991 5.98574 42.6227
H 19.3061 5.30517 42.5691
H 20.2375 5.9502 43.5753
O 23.0503 0.222232 5.3773
H 23.649 0.451591 6.09873
H 23.6387 43.8958 4.77739
O 20.8273 3.67495 8.41265
H 20.944 2.76588 8.67766
H 20.5246 4.04504 9.21464
O 16.9845 4.48382 4.29016
H 16.2102 4.55167 4.91318
H 17.6211 3.87052 4.69559
O 17.5854 5.11829 1.62458
H 16.8377 5.66617 1.39168
H 17.3825 4.87982 2.5584
O 21.2847 6.85456 40.2572
H 21.1392 6.55726 41.1707
H 21.0868 7.76562 40.1303
O 24.9332 43.633 2.96205
H 25.7656 44.1191 2.92352
H 24.4634 43.7318 2.14625
O 24.7762 0.717062 7.60821
H 25.2913 1.54289 7.66589
H 24.5435 0.320062 8.47897
O 23.1142 4.25329 6.69147
H 22.3644 4.10971 7.21753
H 22.9335 3.72168 5.85053
O 21.1398 1.03316 9.16854
H 20.7143 0.64354 9.97493
H 21.1021 0.424276 8.43434
O 27.705 0.725043 3.35694
H 28.544 0.362183 3.00234
H 27.8054 1.24743 4.2324
O 27.6715 7.97916 1.32241
H 27.6675 8.32655 2.16044
H 28.179 8.5941 0.827994
O 28.9508 9.35933 44.2213
H 28.9717 9.30775 43.2818
H 29.2145 10.2519 44.4375
O 29.4146 6.99247 7.75663
H 29.9355 6.26408 8.10733
H 28.7513 6.55661 7.23454
O 28.2668 2.86469 6.45933
H 29.188 2.72467 6.68739
H 27.8388 2.79312 7.32104
O 27.8046 5.47223 6.08702
H 28.2289 4.57511 5.94864
H 27.6625 5.92763 5.18949
O 29.6512 41.7483 0.528023
H 28.9004 42.0379 -0.0306546
H 29.5482 40.8319 0.560944
O 31.0293 2.05349 6.46997
H 31.604 2.47665 5.84713
H 31.6875 1.75645 7.12269
O 25.5247 5.32112 7.71566
H 24.7069 4.97215 7.31989
H 26.1543 5.4529 6.97869
O 24.1254 4.39353 0.360058
H 24.3269 3.5549 -0.141605
H 24.906 4.89618 0.0747881
O 26.3391 6.07187 45.0503
H 26.9217 6.02818 44.2817
H 26.5418 6.9402 45.3713
O 30.1161 44.0067 2.39457
H 31.0577 0.0510488 2.62793
H 30.1359 43.1171 2.18093
O 27.7057 40.6472 44.233
H 27.0323 41.0339 43.7061
H 27.3126 39.7424 44.3936
O 36.5657 34.7961 21.7994
H 35.6569 34.4798 22.0894
H 36.547 35.7364 22.092
O 30.2454 9.29042 8.9507
H 29.8104 8.46637 8.56854
H 29.5606 9.86087 9.1048
O 26.5774 3.0068 8.53046
H 26.3662 3.90986 8.40878
H 26.5742 2.79892 9.41417
