192
Atoms. Timestep: 5150
O 46.9275 0.935393 3.62481
H 46.0003 0.786556 3.76272
H 0.000391675 1.84479 4.03766
O 4.17664 2.52322 44.203
H 4.45958 2.97763 43.3955
H 3.62894 1.86279 43.8292
O 5.16714 2.71703 1.60246
H 4.98766 1.88761 2.05538
H 4.76504 2.63427 0.699724
O 4.68577 5.05024 3.02759
H 5.21989 5.07876 3.82038
H 4.75781 4.17725 2.54639
O 0.244449 3.84231 4.56211
H 0.763667 4.26298 3.89455
H 47.6065 3.89538 5.38295
O 4.60771 7.46806 0.270794
H 5.15759 6.94584 0.847333
H 5.19959 8.14989 -0.150505
O 5.23346 4.57876 42.238
H 5.17245 5.30435 42.8797
H 5.07453 4.95818 41.4318
O 2.13506 5.56953 3.61766
H 3.06448 5.39565 3.39723
H 1.99391 6.28513 3.02591
O 2.46517 9.38821 45.0744
H 3.04617 8.72768 0.302282
H 2.00343 8.83043 44.4658
O 6.99217 9.20168 44.3632
H 7.01159 9.39011 43.4036
H 7.46724 9.97281 -0.480468
O 19.5263 30.6922 31.1417
H 19.584 29.7682 30.9875
H 18.7806 30.7488 31.779
O 2.28902 43.4962 4.41138
H 2.42975 43.3091 5.34035
H 1.38949 43.8969 4.44296
O 4.4422 44.3747 2.64383
H 4.428 43.4755 2.21825
H 3.64291 44.3535 3.18279
O 15.4486 42.4762 7.41207
H 15.6423 41.717 7.97545
H 16.1307 43.1681 7.52969
O 5.74144 5.09758 5.54642
H 5.22566 4.91272 6.34396
H 6.46617 4.51047 5.60455
O 44.5885 20.1961 39.125
H 44.1557 20.9962 38.7135
H 45.3282 20.0795 38.521
O 12.7399 0.571599 1.16864
H 12.6618 -0.211003 1.70961
H 13.4378 0.432115 0.552052
O 10.9833 4.47882 43.2229
H 11.624 5.18106 43.269
H 10.3647 4.82134 42.6101
O 15.6649 6.61012 4.45126
H 15.3466 7.21172 3.80609
H 15.0147 5.89563 4.4414
O 13.572 4.34313 4.89087
H 12.7044 4.7891 4.85912
H 13.5517 3.74593 4.08739
O 9.26266 0.854746 6.28037
H 8.77027 0.186594 5.79639
H 9.69957 0.384089 7.00252
O 7.94825 2.72204 1.86569
H 8.63807 2.42652 1.21445
H 7.03747 2.55236 1.61362
O 13.4174 42.0876 4.93285
H 13.8698 42.2873 5.76865
H 13.0555 41.178 5.09623
O 14.6587 2.89137 6.96831
H 14.1362 3.30179 6.21553
H 14.6487 3.56975 7.6362
O 8.87868 3.46571 4.30527
H 9.31282 2.75285 4.78156
H 8.41317 3.08785 3.52398
O 13.0672 2.90928 2.75143
H 13.1313 2.05438 2.14304
H 12.09 3.08606 2.62925
O 10.2805 2.15536 0.532204
H 10.3792 2.6548 44.8846
H 10.9566 1.47439 0.346226
O 13.8117 42.5687 2.15492
H 13.9787 41.7214 1.73905
H 13.78 42.3669 3.1078
O 16.9732 1.02705 7.45195
H 17.5242 1.11607 6.66807
H 16.2306 1.58658 7.1841
O 13.6264 0.323392 8.11074
H 14.2221 -0.398837 7.89928
H 13.9929 1.2011 7.73388
O 10.9786 5.0988 4.21758
H 10.7884 6.01214 4.39605
H 10.0843 4.68009 4.22894
O 11.0186 -0.148361 8.24539
H 11.9396 0.0240768 8.10299
H 10.9949 43.4506 9.01865
O 18.2464 1.41109 5.07063
H 18.9969 2.00134 5.02219
H 17.6999 1.64099 4.3042
O 16.6825 7.88614 44.6502
H 15.8543 7.39255 44.8462
H 17.2827 7.31652 45.1096
O 24.8376 5.08916 4.04821
H 24.6722 5.80993 3.45635
H 25.7524 5.20398 4.33348
O 22.6875 3.82658 5.26532
H 23.2008 4.41496 4.68082
H 23.2768 3.09109 5.42372
O 21.6125 0.0930854 9.90342
H 22.0534 0.104035 10.7561
H 22.3615 0.170975 9.24392
O 19.899 3.31993 5.49723
H 19.8641 3.66201 6.39967
H 20.8489 3.49272 5.2547
O 17.9455 10.4538 43.7836
H 18.3267 9.84878 43.1585
H 17.0638 10.1386 44.0552
O 23.2496 0.315072 7.91991
H 24.1954 0.395175 7.82903
H 23.0504 44.0708 7.05445
O 20.2286 4.35089 8.238
H 20.0094 3.44594 8.54172
H 19.6098 4.98634 8.61164
O 17.8792 4.92919 3.50746
H 17.1798 5.39606 4.04125
H 18.4045 4.5047 4.17471
O 17.6576 5.47501 0.725059
H 17.8203 5.33584 1.65605
H 17.9383 4.61315 0.336259
O 19.3512 12.1583 0.624668
H 18.5605 12.5063 0.221289
H 19.1864 11.2692 45.4896
O 27.3894 42.3615 6.48403
H 27.8232 42.9579 5.87461
H 28.0478 41.9283 7.01321
O 26.0038 0.62326 7.27061
H 26.6094 1.24253 7.75499
H 26.4627 43.862 7.06281
O 22.9405 5.25386 7.83155
H 22.0318 5.18522 8.2283
H 22.9586 4.65295 7.07442
O 19.6533 1.95779 9.13595
H 18.7877 1.67495 9.01012
H 20.2876 1.23931 9.44286
O 28.4275 44.0019 4.36963
H 27.7104 -0.199233 3.72146
H 28.2397 0.743279 4.84471
O 24.2558 8.45606 43.5767
H 23.3593 8.37603 43.2643
H 24.7551 9.05292 42.9952
O 25.741 10.564 41.8318
H 25.5206 10.776 40.8619
H 26.7268 10.485 41.7557
O 28.8105 7.37486 5.94712
H 29.4738 7.82168 6.48506
H 29.1127 6.50067 5.67889
O 29.3278 2.66713 6.51637
H 30.1278 2.21277 6.86077
H 28.7438 2.65096 7.30895
O 30.0185 4.93381 5.47011
H 29.6374 4.14017 5.95574
H 30.3952 4.68215 4.6637
O 24.9077 42.0228 0.654515
H 24.1261 42.3768 0.259989
H 24.7971 41.1022 0.453295
O 31.5738 1.93614 8.13367
H 32.5018 1.93891 7.9267
H 31.5157 1.21965 8.787
O 25.2607 4.586 8.80124
H 24.2906 4.49975 8.56802
H 25.3911 5.53309 8.94464
O 23.9252 6.6854 2.17777
H 23.5036 7.56376 2.08638
H 24.4182 6.444 1.33247
O 25.5565 6.51865 -0.112317
H 26.3242 6.73502 0.380839
H 25.4013 7.29983 44.5007
O 26.1215 43.4266 2.78747
H 25.4278 43.9301 3.24716
H 25.6118 42.8906 2.09232
O 24.6503 39.723 44.1677
H 24.9244 40.3225 43.4251
H 24.4601 38.934 43.6972
O 31.7602 27.5436 32.3799
H 32.2 26.8082 32.8991
H 30.8657 27.4777 32.7722
O 28.0668 9.54613 4.3898
H 28.1825 8.72895 4.92883
H 27.5218 10.1909 4.81102
O 27.3535 2.81116 8.95054
H 26.6198 3.40257 9.04845
H 27.9066 2.95087 9.68862
