192
Atoms. Timestep: 6050
O 1.12472 2.44803 7.04845
H 0.707922 2.22556 7.83071
H 1.07377 3.42056 6.83902
O 4.7901 2.42155 43.9135
H 4.58865 3.3584 43.6991
H 4.72643 2.07047 42.9921
O 5.83277 2.05335 1.14496
H 5.19473 1.52099 1.65862
H 5.49827 2.04326 0.271721
O 4.63287 4.78863 1.84555
H 5.36275 5.08617 2.4457
H 5.02547 3.91062 1.60076
O 0.929433 4.99454 5.54118
H 1.49571 5.0576 4.80353
H 0.649678 5.95769 5.54743
O 4.50524 6.58821 44.6838
H 4.81582 6.00459 0.21973
H 5.24799 6.95667 44.245
O 3.47974 4.83308 42.8118
H 3.76725 5.63695 43.2519
H 2.54994 4.91137 42.8926
O 2.3254 5.77147 2.98129
H 2.99891 5.35112 2.49428
H 2.43709 6.7056 2.89258
O 4.22449 9.74998 44.3596
H 3.81115 9.14285 45.0175
H 3.68085 10.5219 44.4361
O 6.65463 8.41466 43.9051
H 7.54059 8.61784 44.1772
H 6.02872 9.03262 44.3428
O 14.2201 34.9117 28.6387
H 13.3842 35.2483 28.8867
H 14.6265 35.6736 28.1884
O 1.20982 0.856812 4.49536
H 0.424098 0.74383 3.98208
H 0.869585 1.42551 5.21978
O 4.09369 0.502623 3.30618
H 4.19777 43.7652 2.95244
H 3.19536 0.652164 3.62977
O 15.5498 42.7062 6.54846
H 16.064 42.2703 7.21291
H 15.9595 43.5667 6.4573
O 6.79518 5.5336 3.19966
H 6.63897 6.13834 3.89318
H 7.45441 4.87097 3.50629
O 46.2997 15.1392 45.19
H 46.0591 15.9674 45.3447
H 45.9811 15.0224 44.3281
O 13.8731 -0.123078 0.260003
H 13.9172 43.3264 0.941139
H 14.5199 -0.377226 44.8143
O 10.2954 1.96347 42.4604
H 10.8108 1.98503 41.6581
H 9.64819 2.58727 42.1624
O 15.8748 5.47147 3.9569
H 15.3783 6.01071 4.61201
H 15.2533 4.75284 3.6992
O 13.1174 3.69399 4.61438
H 12.3141 4.15572 4.82232
H 13.0253 3.32197 3.69941
O 8.09787 1.48659 5.32426
H 7.6891 0.734739 4.87647
H 8.71628 0.986835 5.94723
O 9.1368 1.55553 1.95451
H 9.70258 1.42777 1.20156
H 8.1808 1.4747 1.69593
O 15.5598 41.3766 4.11384
H 15.368 41.694 4.99057
H 16.2429 40.7692 4.31071
O 13.8299 2.24507 6.95997
H 13.5225 2.51845 6.08147
H 13.6341 2.95027 7.53924
O 8.78468 3.56534 3.77879
H 8.5174 2.88616 4.43488
H 9.06482 2.95087 3.0621
O 13.1332 2.93776 1.94268
H 13.667 2.21014 1.66644
H 12.4494 3.00807 1.35171
O 11.1644 1.37136 45.165
H 11.0339 1.6548 44.218
H 11.9332 0.787095 45.0737
O 14.0456 41.2323 1.5512
H 13.2228 40.7517 1.72053
H 14.5665 41.2378 2.41295
O 16.7259 1.37425 6.15206
H 17.2927 1.50552 5.39969
H 16.0177 2.0339 6.23209
O 12.7274 43.4438 7.41744
H 13.598 43.2426 7.14415
H 12.8171 0.286917 7.55
O 10.6239 4.69132 5.12499
H 10.2024 4.69162 5.99746
H 9.89372 4.27542 4.53906
O 9.78582 43.5775 7.03316
H 10.763 43.5283 7.02967
H 9.56687 42.8653 7.63836
O 18.3123 2.03333 3.8425
H 18.6331 2.9217 4.00871
H 19.097 1.56609 3.68803
O 17.743 8.74815 45.3919
H 18.491 8.59726 44.881
H 17.6258 7.98314 0.815366
O 24.3868 6.85295 3.15164
H 23.9514 6.42141 2.40126
H 25.0235 7.48018 2.80075
O 23.5613 5.84908 5.67052
H 23.6986 6.51131 5.00551
H 23.92 5.09025 5.25363
O 20.9823 0.726078 9.26427
H 21.0587 -0.05269 9.81685
H 21.7489 0.520109 8.6661
O 20.3433 6.07793 5.66745
H 20.0262 5.81939 6.5592
H 21.2787 5.86779 5.55304
O 16.7465 11.2657 0.658144
H 16.0451 10.6483 0.551478
H 17.4364 10.6051 0.511185
O 23.2982 43.4376 8.17193
H 24.2182 43.748 8.38801
H 23.3086 43.1829 7.25816
O 19.7485 5.23108 8.13401
H 19.3837 4.39133 8.21926
H 19.4528 5.71751 8.87719
O 18.6395 4.93904 4.02657
H 17.77 5.11421 4.35615
H 19.2761 5.2977 4.65564
O 17.6292 6.63524 1.88751
H 18.3847 6.02148 1.97527
H 16.9928 6.27481 2.48358
O 17.7374 13.7889 1.97153
H 17.659 12.8674 2.23257
H 17.2946 13.9174 1.12691
O 27.9486 42.934 7.61554
H 28.0236 42.5445 6.74354
H 28.3831 42.3415 8.21244
O 25.8671 43.8049 8.89663
H 26.1029 0.647019 9.09861
H 26.5947 43.5507 8.24904
O 24.1897 5.4219 9.05151
H 23.5066 4.79013 8.78002
H 24.3043 6.0031 8.30506
O 18.9282 2.69016 8.29668
H 18.3447 2.22652 7.71116
H 19.5257 1.97138 8.67823
O 28.4042 42.0683 5.04993
H 27.9974 42.0329 4.20633
H 29.2638 41.7711 4.84202
O 23.3292 7.82003 42.2329
H 22.771 8.41184 41.7226
H 24.1011 8.45801 42.3178
O 24.3213 10.8131 42.6753
H 25.1088 11.1909 42.9926
H 23.6372 11.4198 42.8071
O 30.3226 7.71391 4.7946
H 31.0651 7.74673 5.41534
H 29.9233 6.81904 4.82597
O 30.3171 3.81029 7.72945
H 31.1456 3.41301 7.51887
H 29.8903 3.21423 8.33095
O 29.6524 5.11832 5.26624
H 29.6933 4.75398 6.14791
H 29.5882 4.27211 4.73451
O 25.3484 43.5371 0.437594
H 24.4476 43.0903 0.354758
H 25.172 0.294933 0.553356
O 32.6385 2.10761 7.76173
H 33.3067 1.94889 7.09576
H 33.1681 2.03699 8.54686
O 26.7085 4.24447 10.2794
H 25.8787 4.65868 9.95879
H 27.3388 4.97748 10.4707
O 24.0093 6.20824 0.465873
H 23.6038 6.69797 -0.268972
H 24.264 5.38666 45.202
O 24.2072 5.16485 42.9676
H 24.4649 4.5349 42.3262
H 23.8217 5.81464 42.401
O 26.7753 42.0896 2.86231
H 25.8641 42.0603 3.27529
H 26.6602 42.5416 2.04411
O 23.9666 40.8468 44.5104
H 23.9513 40.0911 45.0593
H 24.8501 40.9602 44.3451
O 29.6727 24.9853 36.1185
H 30.5829 25.0981 36.0159
H 29.6767 24.2561 36.7077
O 29.2106 9.49764 2.93739
H 29.4696 8.93674 3.68648
H 29.9088 9.38033 2.24805
O 28.0747 1.94368 9.50205
H 27.5787 2.75914 9.66051
H 28.5131 1.62381 10.3261
