192
Atoms. Timestep: 6950
O 2.34842 3.44917 6.44732
H 2.36609 3.40765 7.43457
H 2.66494 4.3078 6.16913
O 4.6086 0.702107 43.5082
H 4.2372 1.67054 43.4969
H 5.26162 0.628576 42.8247
O 5.71729 1.10418 1.23883
H 5.02962 0.698171 1.77784
H 5.59168 0.740773 0.353138
O 5.37245 4.6529 1.44709
H 6.27051 4.58219 1.87527
H 5.12082 3.74566 1.17874
O 2.95587 5.86443 5.6743
H 3.00841 6.12437 4.75655
H 3.27908 6.536 6.18543
O 3.54238 5.89616 44.3976
H 4.19085 5.89154 45.1247
H 3.58163 6.77848 43.9292
O 3.63696 3.46701 43.0299
H 3.72437 4.31546 43.4977
H 2.73544 3.56178 42.6127
O 3.09866 6.47426 2.79213
H 3.71436 5.81382 2.50613
H 2.23056 6.44699 2.29648
O 7.09735 10.4964 43.4038
H 7.68287 10.3131 42.7128
H 6.97123 11.4529 43.3369
O 3.69825 8.83507 43.8377
H 4.6117 9.06752 43.6433
H 3.30155 9.7061 44.087
O 8.76039 39.3773 26.0484
H 9.5006 40.0059 26.0791
H 9.19664 38.5574 26.0206
O 3.31468 1.2648 5.23941
H 4.05102 0.973197 5.81947
H 2.9161 1.97492 5.80081
O 3.30216 0.156692 2.47245
H 2.41524 0.554391 2.25076
H 3.27344 0.277925 3.4287
O 18.182 42.5308 4.80229
H 18.4976 41.9136 5.48838
H 17.93 43.3578 5.23821
O 8.26193 5.51642 2.23861
H 8.92017 6.17777 1.9897
H 8.61172 4.96578 2.93008
O 0.999155 10.148 6.10737
H 1.07572 11.0329 6.12797
H 47.1042 10.029 6.46874
O 12.0967 42.4242 1.12989
H 12.9674 41.9903 1.44666
H 11.6567 41.5925 0.892243
O 10.453 1.02498 42.7819
H 10.9039 1.75859 42.3518
H 10.7833 0.184739 42.4181
O 15.1156 6.05118 3.80986
H 14.3916 6.50827 4.14096
H 14.6723 5.17981 3.5648
O 13.8199 3.6867 3.35519
H 12.9655 4.07594 3.66045
H 13.7101 3.27665 2.47074
O 7.6962 2.36513 6.66569
H 7.93879 2.62063 7.51386
H 8.29302 1.65005 6.47568
O 8.40767 1.92585 2.04966
H 9.00999 1.33139 1.57974
H 7.56857 1.41105 1.96919
O 16.8452 40.7846 3.02267
H 17.0197 41.4365 3.73772
H 17.6879 40.7009 2.51706
O 14.3358 1.60909 5.80203
H 14.0854 2.05715 4.94389
H 13.9922 2.21453 6.4749
O 8.85035 3.62176 4.56949
H 8.59188 3.11828 5.37182
H 8.82498 2.9539 3.85808
O 13.4253 2.55543 0.79785
H 14.194 2.09155 0.568378
H 12.6628 1.95439 0.595515
O 11.2489 0.70389 0.427483
H 11.0896 0.96061 44.727
H 11.6178 43.8842 0.563572
O 14.4161 40.7635 1.59845
H 14.4809 39.9084 2.05076
H 15.2809 41.1036 1.81868
O 17.4275 0.912239 5.92168
H 17.8672 1.75996 5.60655
H 16.4909 1.13694 5.99171
O 11.3567 0.546483 4.57273
H 11.3025 0.322606 3.60647
H 12.2791 0.747406 4.74544
O 11.4768 4.7202 4.6093
H 11.2733 5.29007 5.37332
H 10.6814 4.1556 4.59339
O 9.21611 43.9041 6.04422
H 9.99276 44.1234 5.51705
H 8.61925 43.5207 5.38384
O 18.5586 2.88253 4.31203
H 18.4915 3.85757 4.20788
H 18.8462 2.49594 3.43685
O 18.3057 10.7628 1.10453
H 19.1245 10.8197 1.67924
H 18.0473 9.86553 1.26415
O 23.3497 6.45174 3.26107
H 23.2135 6.77499 2.4001
H 23.479 5.54728 3.05961
O 22.8397 7.36343 5.70931
H 22.6279 8.25816 5.60507
H 23.1135 7.24423 4.81071
O 21.5007 0.0272076 8.99975
H 22.2146 43.9516 8.40561
H 21.8657 0.160327 9.87529
O 20.0577 6.07246 6.23292
H 19.9403 5.47411 7.00623
H 21.0128 6.24507 6.06802
O 16.5899 12.6512 2.04226
H 15.8011 12.3462 1.64309
H 17.3063 12.0835 1.73257
O 24.0585 44.0973 10.5941
H 24.9468 0.117711 10.2062
H 24.2789 43.4973 11.2989
O 19.4325 3.9932 8.20425
H 19.2381 3.02257 8.02222
H 19.4426 3.94395 9.18751
O 18.322 5.83026 4.06331
H 17.4251 5.8899 4.45202
H 18.9793 6.03026 4.79505
O 17.2663 8.07548 2.14096
H 17.5526 7.48288 2.84883
H 16.3055 8.01383 2.18722
O 15.6609 14.9978 3.2912
H 16.2391 14.3525 2.81651
H 15.7868 15.7169 2.66111
O 27.168 41.7987 7.73172
H 27.7175 41.55 6.9595
H 26.9986 41.01 8.1986
O 26.4256 0.0149952 9.05899
H 26.7389 0.750321 8.54904
H 26.6193 43.3557 8.57643
O 25.3448 7.08123 7.0853
H 26.0872 6.82721 6.49699
H 24.5439 7.13064 6.51572
O 19.1417 1.31235 8.74694
H 18.4052 0.99938 8.26173
H 19.8243 0.617857 8.74792
O 28.681 40.5182 5.38698
H 28.5663 40.5682 4.43111
H 29.4975 39.9813 5.45999
O 22.4148 7.42944 41.9612
H 21.891 7.43101 41.2221
H 22.697 8.34536 42.1551
O 23.1154 10.2349 41.8969
H 23.2368 10.7881 41.0973
H 23.4471 10.8707 42.5767
O 31.8418 6.70119 4.08035
H 31.2897 6.13633 4.59605
H 32.3957 6.0388 3.65987
O 29.9174 3.54492 7.36855
H 30.7135 3.18535 7.80164
H 29.0912 3.53257 7.90094
O 29.7629 5.54565 5.52533
H 29.9937 4.87331 6.24641
H 29.2103 6.17223 5.94447
O 25.8 42.8575 1.02142
H 25.0886 43.2989 0.496532
H 26.5691 43.1298 0.591176
O 32.5065 2.67835 8.33769
H 32.969 3.31418 8.89866
H 33.1187 2.08112 7.92997
O 25.2684 4.98143 8.93075
H 25.1643 5.75286 8.32533
H 24.4104 4.95937 9.36048
O 22.801 5.81476 0.707151
H 22.0186 5.82493 0.216959
H 23.5254 5.78118 45.229
O 23.8768 5.58835 43.3359
H 24.3972 4.93859 42.8582
H 23.4847 6.09236 42.6369
O 27.7559 40.6038 2.42544
H 27.0012 41.1864 2.3998
H 27.4373 39.8307 1.90521
O 23.7614 43.3615 44.4752
H 23.0098 43.9093 44.1981
H 23.317 42.5014 44.5997
O 27.6319 22.323 39.9234
H 27.6258 23.2437 39.7671
H 28.5544 22.1598 39.9379
O 31.5789 9.1167 2.62363
H 31.7944 8.54719 3.2985
H 30.8571 8.71094 2.11555
O 27.6861 3.4857 8.88906
H 26.9646 4.09499 8.89032
H 27.7284 3.16393 9.80876
