192
Atoms. Timestep: 2300
O 1.70969 0.995591 45.1662
H 0.993507 0.801966 44.5417
H 1.26365 0.962816 0.821387
O 4.49443 5.00047 45.0434
H 4.69017 5.87349 44.6406
H 5.07739 4.40741 44.6034
O 5.06544 4.24753 2.71286
H 5.19651 3.32242 2.37385
H 4.68734 4.70735 1.92391
O 2.77091 4.28366 5.02963
H 3.33793 4.51905 5.76612
H 3.3706 4.0848 4.31812
O 0.1655 1.11187 2.30707
H 0.0839891 1.77917 2.93355
H 46.2251 0.787423 2.31084
O 1.75226 7.00646 4.3935
H 2.18728 6.19652 4.63052
H 1.19227 7.20626 5.12742
O 5.82607 2.60195 43.9435
H 5.36041 1.81597 43.9133
H 6.3708 2.64957 43.1495
O 0.154883 2.99423 4.28435
H 0.940927 3.44349 4.61872
H 46.4283 2.78658 4.96063
O 3.1856 9.01132 2.88863
H 2.8259 8.35346 3.53336
H 4.04669 8.69265 2.63383
O 46.6106 7.52968 6.5037
H 45.9087 7.02619 6.88464
H 46.1612 8.36854 6.44041
O 36.688 16.5993 39.3589
H 36.0417 16.0197 39.681
H 36.4544 17.3966 39.8669
O 4.14981 44.0685 0.219954
H 4.4354 43.1452 0.333882
H 3.20479 0.0382854 0.13331
O 5.77973 1.85973 1.64029
H 6.1983 2.18249 0.826687
H 5.16277 1.17908 1.44421
O 13.4064 42.9523 9.08132
H 13.3404 42.01 9.01943
H 14.0993 43.0592 9.76006
O 4.2631 5.18448 7.2506
H 5.15175 4.92958 7.13159
H 4.17333 6.13263 7.35837
O 41.753 35.8494 20.1461
H 41.9886 36.5308 19.403
H 41.7763 36.4195 20.9096
O 9.72258 1.27693 3.93322
H 9.02196 1.03728 3.33659
H 10.4919 0.658379 3.67948
O 9.9164 7.11944 43.2117
H 9.81775 8.03557 43.4493
H 10.1522 7.28134 42.3165
O 14.2519 5.70033 5.16388
H 14.416 6.67787 5.29347
H 13.3166 5.58897 5.33222
O 11.5191 5.99567 5.12777
H 10.7953 5.67101 5.70292
H 11.2654 5.66169 4.33346
O 8.84166 1.99051 7.0238
H 8.77122 1.5721 6.16807
H 8.75453 1.24295 7.64118
O 7.79986 4.90217 3.85581
H 8.57429 4.48689 3.48858
H 7.08399 4.80616 3.24754
O 13.3748 43.326 5.92934
H 12.9704 43.0857 6.77348
H 13.9368 44.1418 6.21554
O 11.5618 2.83538 7.72269
H 10.7139 2.53309 7.36441
H 11.373 3.77669 7.81513
O 7.06204 4.39066 6.63288
H 7.45862 3.57826 6.85738
H 7.30616 4.50347 5.71086
O 10.5921 3.85107 2.97428
H 10.5204 2.95825 3.26818
H 10.6589 3.80358 2.00556
O 10.3311 4.33661 44.6573
H 10.0353 3.76882 43.916
H 10.2436 5.18744 44.1989
O 11.7435 43.56 3.7976
H 12.2357 43.3044 3.01059
H 12.3458 43.426 4.57859
O 14.7214 1.18876 7.46487
H 15.6742 1.17702 7.39146
H 14.3402 2.05589 7.36239
O 11.5959 1.04337 9.98184
H 12.3096 0.471347 9.6452
H 11.6478 1.76681 9.38415
O 9.67104 5.24074 8.11242
H 9.56073 5.84761 8.86797
H 8.87627 5.38339 7.54192
O 9.37585 44.0462 9.19375
H 10.1793 0.298002 9.62153
H 9.48153 43.1262 9.37313
O 17.333 0.996004 6.4861
H 17.8984 1.74417 6.2785
H 18.0336 0.318932 6.67794
O 19.435 5.59148 0.675702
H 20.2013 5.36585 1.16669
H 18.6615 5.21766 1.09494
O 22.3184 4.60422 2.03915
H 22.9343 4.132 1.45565
H 22.7727 5.36979 2.4074
O 21.4537 2.98655 4.73691
H 21.6747 3.29776 3.84895
H 21.9511 2.20684 4.92639
O 20.8862 43.5535 6.67315
H 21.574 43.8166 6.07424
H 20.769 42.6383 6.43624
O 19.0422 3.51325 6.25667
H 19.516 3.56981 7.066
H 19.718 3.29904 5.59711
O 19.6236 4.54192 43.3464
H 18.7128 4.80098 43.2051
H 19.6706 4.85362 44.2772
O 22.7882 0.514042 4.91682
H 23.4137 0.482223 5.60327
H 23.2305 0.216853 4.11615
O 20.7852 3.53738 8.59231
H 20.8089 2.55635 8.82106
H 20.266 3.87236 9.34826
O 16.7766 4.97355 4.47098
H 15.9346 5.04613 4.90038
H 17.4172 4.75103 5.12888
O 17.1585 4.67069 1.71442
H 16.8701 3.81586 1.39697
H 17.1352 4.68368 2.69157
O 21.4738 5.03669 41.2711
H 20.7551 5.10444 41.9042
H 22.2855 5.09111 41.7349
O 24.9924 43.9815 3.08517
H 25.8999 0.260841 3.08298
H 25.2605 43.1469 2.68082
O 24.1061 0.598855 7.36369
H 24.8511 1.23604 7.26103
H 24.2729 44.072 7.9342
O 22.7372 5.02515 6.84474
H 22.4052 4.49972 7.62172
H 22.4047 4.65683 5.97461
O 20.7861 0.574191 9.20723
H 21.5364 0.2495 9.66074
H 20.7075 0.125128 8.34104
O 27.5403 1.16093 3.32788
H 28.3866 0.678954 2.99654
H 27.9131 1.58257 4.10897
O 27.8544 7.81662 0.892628
H 27.7201 8.15624 1.88279
H 28.7894 8.09521 0.70633
O 30.0207 9.6402 0.288292
H 29.8429 10.018 44.6151
H 30.9251 9.80307 0.446384
O 28.9795 6.90671 8.37591
H 28.1354 7.03096 8.82164
H 28.7583 6.61581 7.50326
O 28.386 2.74016 5.64703
H 29.1296 2.25421 6.06133
H 27.6763 2.49202 6.25642
O 28.25 5.93871 5.52819
H 28.4834 5.06353 5.34282
H 28.5248 6.41326 4.80701
O 30.2126 41.6736 0.796899
H 30.148 40.8714 1.3301
H 29.9357 41.3688 45.1315
O 30.6047 1.6355 7.22479
H 31.3665 2.06344 7.61659
H 30.4576 0.973265 7.88859
O 25.4646 5.5188 7.43215
H 24.5463 5.4078 7.13642
H 25.9324 5.91014 6.68656
O 24.8177 4.00702 0.207649
H 24.7196 3.08252 0.018762
H 25.577 4.44778 45.0416
O 27.1509 5.34696 44.5333
H 26.9457 6.0187 43.8638
H 27.7024 5.82699 45.1543
O 30.2299 43.9702 2.64197
H 30.9612 43.6847 3.12759
H 30.3463 43.3734 1.8988
O 28.9769 40.5478 43.3544
H 28.3014 41.043 42.7869
H 29.6345 40.2942 42.6883
O 35.7304 36.3934 19.6057
H 34.8235 36.6591 19.6515
H 36.127 37.2545 19.4205
O 31.2162 8.9059 9.15553
H 30.4676 8.41991 8.68924
H 31.7987 9.1619 8.42456
O 26.2178 2.79968 7.6502
H 25.9663 3.79242 7.61267
H 26.4275 2.6777 8.59105
