192
Atoms. Timestep: 8950
O 3.89136 3.29293 6.48303
H 3.27139 3.50144 7.19544
H 4.28309 4.09722 6.13141
O 5.99134 1.86761 43.2118
H 5.14544 2.15054 42.8253
H 6.3408 1.17911 42.5789
O 6.64479 2.21558 0.792154
H 6.35794 1.49044 1.40716
H 6.32583 2.01919 45.104
O 4.7866 4.17602 1.50173
H 5.64396 3.71305 1.38542
H 4.35909 3.88119 0.694667
O 4.62271 6.20361 5.87017
H 4.4668 6.16064 4.88665
H 5.39196 6.72978 5.97728
O 3.43089 5.37876 41.0535
H 3.36583 5.84576 41.8917
H 4.32515 5.61655 40.6643
O 3.28608 3.00051 42.2238
H 3.29065 3.79659 41.6585
H 2.46478 3.0395 42.6554
O 4.68432 6.43363 3.00778
H 5.5237 6.76323 2.95147
H 4.66476 5.64369 2.42614
O 8.05047 7.78076 40.3383
H 8.86409 7.25652 40.7015
H 8.12401 8.61825 40.8258
O 5.81013 5.84618 39.9257
H 6.35324 6.57353 40.2124
H 6.03112 5.84362 38.9787
O 43.7358 5.0925 20.2934
H 43.1539 4.36928 20.3377
H 43.0934 5.82158 20.4064
O 3.80419 0.981553 4.96963
H 2.91441 1.18503 4.71238
H 4.09516 1.86293 5.33008
O 5.70256 0.62863 2.81875
H 6.27166 0.320425 3.5162
H 4.83875 0.518507 3.32344
O 17.5124 42.3829 43.8631
H 17.5865 42.2115 42.9312
H 17.993 43.2198 44.056
O 7.72142 6.48361 4.06928
H 7.98474 7.38511 4.01225
H 8.48684 5.99715 3.75378
O 5.0077 2.16121 21.4778
H 4.07714 2.30196 21.4478
H 5.04394 1.24984 21.2959
O 11.5032 42.4716 1.62196
H 12.045 41.7541 1.18251
H 11.8984 42.5552 2.49266
O 10.3196 44.1932 42.55
H 9.91838 43.3361 42.5784
H 9.65036 0.69596 42.7056
O 14.1073 5.88193 4.1219
H 13.4484 5.30019 4.57891
H 14.2737 5.31511 3.37803
O 13.7529 2.99047 3.26708
H 13.0281 2.95223 3.8302
H 13.5938 2.40933 2.5335
O 12.368 4.14259 7.87125
H 11.9844 4.89291 8.39824
H 12.7752 3.54481 8.52516
O 9.07953 3.29899 1.52107
H 9.7524 2.89759 1.01855
H 8.30763 2.77689 1.37284
O 15.6994 40.7262 45.2272
H 15.884 41.4174 44.5908
H 16.5823 40.4406 0.299862
O 16.5607 2.63847 4.00626
H 15.6023 2.58319 3.82981
H 16.754 3.58294 3.92345
O 9.46528 4.29889 4.01566
H 8.60939 4.02378 4.46136
H 9.51028 3.81515 3.17596
O 14.0379 1.95399 0.642639
H 14.1705 2.78646 45.2916
H 13.104 1.62441 0.363659
O 11.3333 0.832431 0.25232
H 11.2172 0.642361 44.4822
H 11.4887 44.0714 0.719637
O 13.0062 40.5543 0.440743
H 12.6363 39.6849 0.510748
H 13.96 40.467 0.533933
O 19.1187 0.328824 44.6684
H 18.7777 0.844051 0.207
H 19.2694 0.877074 43.9054
O 16.6879 1.99933 7.13105
H 16.4631 1.08692 6.94207
H 16.6617 2.34222 6.23674
O 11.94 3.83162 5.24616
H 12.1351 3.70809 6.17927
H 10.9554 3.9146 5.17029
O 14.0193 2.04162 9.29581
H 14.8603 2.04271 8.8119
H 14.2319 2.05836 10.2064
O 17.7914 1.42045 1.78787
H 16.8964 1.46863 1.94162
H 18.049 1.92852 2.58128
O 13.8175 11.2838 4.24068
H 13.3406 10.4921 4.61492
H 14.3138 10.879 3.51513
O 19.1241 7.57945 2.72873
H 19.8669 7.39508 2.09461
H 18.5793 6.81948 2.86597
O 20.0819 8.12887 5.22021
H 19.7064 8.98067 5.40987
H 19.7496 7.86613 4.37053
O 21.3204 0.494725 9.26894
H 21.1132 -0.18912 9.87624
H 22.2521 0.621182 9.33627
O 18.5736 6.27419 6.37793
H 19.1358 5.55731 6.65167
H 19.2184 6.94236 6.28377
O 14.7559 13.3867 5.55516
H 14.4145 12.556 5.16414
H 14.4357 13.5116 6.44835
O 23.9841 0.953723 9.4666
H 24.6722 1.30701 8.89024
H 24.487 0.494022 10.1031
O 20.5218 4.37976 7.62712
H 19.9591 3.58772 7.60393
H 20.3855 4.68861 8.51105
O 17.3016 5.39828 4.18113
H 16.4542 5.73741 4.45444
H 17.8508 5.66023 4.93574
O 12.7231 8.64386 4.74261
H 11.8046 8.42397 4.57051
H 13.2569 7.92459 4.36693
O 15.3493 15.6687 4.02207
H 14.9722 15.0844 4.70764
H 15.434 15.2609 3.14723
O 28.22 42.572 8.12535
H 28.925 42.1626 8.64353
H 28.0598 41.8312 7.57916
O 26.6171 0.942206 8.40192
H 27.1397 1.6866 8.04997
H 26.9389 0.177347 7.91782
O 22.6566 5.91551 5.97399
H 21.9513 5.35862 6.32237
H 22.1962 6.60668 5.55437
O 19.3247 2.2373 8.77424
H 18.585 1.54362 8.6466
H 20.0346 1.64661 9.09664
O 28.4348 40.731 6.05342
H 27.7696 40.808 5.3763
H 28.4165 39.7626 6.24106
O 22.5242 8.44595 41.2018
H 23.1526 8.81022 40.6579
H 21.6262 8.39356 40.7217
O 20.184 8.54501 39.5955
H 19.4077 8.84381 40.14
H 19.6659 8.09031 38.9184
O 33.8348 4.67043 3.32104
H 33.4137 5.13482 4.06271
H 33.1776 4.83796 2.65636
O 30.5268 3.96529 7.248
H 30.8887 3.45696 7.93871
H 29.5764 4.14369 7.34896
O 32.0376 5.54159 5.28252
H 31.7656 4.97855 5.98203
H 31.4641 6.32108 5.31946
O 26.6848 41.2316 1.23807
H 26.5665 40.9752 0.326086
H 26.7465 42.2435 1.22645
O 31.7512 2.3156 9.28206
H 32.5606 2.02001 8.89948
H 31.697 1.90588 10.1618
O 25.3012 5.98488 6.86462
H 24.4069 5.81172 7.10133
H 25.2183 6.11276 5.92083
O 21.2614 7.24366 0.996542
H 21.7775 7.75913 0.40649
H 21.8279 6.48842 1.17699
O 22.6434 8.32558 43.9025
H 22.5756 9.30737 44.0312
H 22.5775 8.18781 42.8831
O 26.7554 39.7845 3.89461
H 26.5914 40.3553 3.14097
H 27.0442 38.9804 3.55743
O 28.4071 43.4229 0.892136
H 28.3735 0.232467 0.802018
H 28.6753 43.1984 1.76494
O 23.0648 16.524 3.21746
H 23.0028 17.4796 3.16712
H 23.8878 16.3478 2.71882
O 36.4968 5.18765 3.07042
H 35.4972 5.09148 3.20716
H 36.9667 4.45106 3.36802
O 27.3124 4.34966 8.09275
H 26.6637 4.9261 7.62652
H 27.4632 4.71935 8.9074
