192
Atoms. Timestep: 8500
O 3.67541 3.32026 6.29482
H 2.99194 3.1808 6.88335
H 3.79879 4.31133 6.14802
O 5.22967 1.4695 44.0124
H 4.33742 1.72788 43.5827
H 5.51714 0.735216 43.5044
O 6.65323 2.7146 1.08602
H 6.13513 2.18523 1.73399
H 6.26969 2.33838 45.4408
O 4.2602 4.86593 0.558952
H 4.7774 4.07085 0.370143
H 3.49487 4.88814 -0.00479672
O 3.77281 5.9104 5.53675
H 3.98485 6.3091 4.63537
H 3.76012 6.59433 6.17429
O 3.12766 5.51146 41.7994
H 2.44057 6.17472 41.6599
H 3.91483 6.01196 41.68
O 2.98669 2.52034 42.7445
H 3.07681 3.45705 42.5616
H 2.01575 2.38201 42.9817
O 4.54226 6.95903 3.13352
H 5.43744 6.81695 3.1442
H 4.21598 6.3038 2.49013
O 8.09057 8.22401 41.2276
H 8.40253 8.83099 41.8443
H 8.90967 7.88127 40.9363
O 5.51117 6.97621 40.9729
H 6.18532 7.51297 41.3564
H 6.0428 6.4703 40.3636
O -0.551217 2.82799 21.5616
H -0.629375 3.69895 21.9471
H 0.374394 2.85719 21.2753
O 4.91947 1.16916 4.99627
H 4.22085 0.862866 5.57974
H 4.94637 2.06357 5.33593
O 5.87651 0.549546 2.4378
H 5.31369 0.194633 1.73586
H 5.41137 0.553535 3.27076
O 17.5113 42.8426 -0.280361
H 17.901 43.2826 -1.00637
H 18.0852 43.1486 0.450424
O 7.53537 6.81988 3.9081
H 7.41698 6.92865 4.86384
H 8.13951 6.0646 3.7617
O 3.96553 3.84904 17.8899
H 4.10916 3.01347 17.4756
H 4.65001 3.83435 18.5333
O 11.1363 42.2976 1.6132
H 11.6864 41.5794 1.25802
H 10.9885 42.0731 2.51833
O 10.8091 42.945 42.8678
H 10.4415 42.0545 42.7346
H 11.7464 42.6895 43.0269
O 14.6142 6.13283 3.50704
H 14.4882 5.60006 4.31977
H 14.321 5.51373 2.80054
O 14.4636 2.95883 3.16144
H 13.579 2.97072 3.61743
H 14.2686 2.37354 2.40133
O 11.8681 3.2483 7.71626
H 12.0178 3.77524 8.50128
H 12.1112 2.33976 7.98941
O 9.68483 3.26981 1.19256
H 10.1804 2.43521 1.00845
H 8.77306 3.08381 1.03552
O 15.563 40.5848 44.7441
H 16.251 41.144 -0.0492439
H 15.9229 40.2498 43.9272
O 16.2404 2.26843 5.38917
H 15.606 2.3523 4.68918
H 16.9768 2.77997 5.07443
O 9.14661 4.55685 3.52801
H 8.52364 3.89302 3.72762
H 9.54241 4.2578 2.70689
O 13.5488 2.04182 0.696215
H 14.0169 1.90083 -0.098199
H 12.6949 1.47314 0.610881
O 10.8769 0.602678 0.348925
H 10.6387 0.275619 44.6389
H 10.9818 43.9031 0.911079
O 12.8908 40.2512 0.99748
H 12.6359 39.343 1.16658
H 13.6778 40.1621 0.397645
O 19.257 44.3012 1.78845
H 19.1264 1.11504 2.00203
H 19.832 43.9479 2.47972
O 15.7375 44.894 7.6636
H 16.4938 44.4526 8.0218
H 16.1034 1.39148 7.01851
O 12.4699 4.60205 5.43219
H 12.2049 4.22476 6.24936
H 11.6511 4.94307 5.0016
O 12.9667 0.734857 8.45592
H 13.951 0.700772 8.43586
H 12.7892 44.1956 9.134
O 18.05 2.66685 2.37467
H 18.0174 3.49586 2.83594
H 17.4362 2.76995 1.69429
O 15.3997 10.918 4.21921
H 14.978 10.4357 4.89165
H 14.8805 10.6856 3.42932
O 19.9081 6.74773 3.00334
H 20.4672 6.58098 2.22937
H 19.2026 6.08407 2.89462
O 20.9524 7.25339 5.58437
H 21.2602 8.20623 5.70073
H 20.8416 7.22306 4.63392
O 20.834 44.1068 9.01
H 20.6294 43.3323 9.49744
H 21.6952 44.4215 9.35734
O 18.3665 6.18789 6.19603
H 18.7245 5.72595 6.9737
H 19.1297 6.73644 5.95881
O 16.0937 13.6009 4.37793
H 15.6319 12.7859 4.38748
H 16.6887 13.4686 5.11895
O 23.1915 0.71892 10.0462
H 23.9797 0.743857 9.46121
H 23.2914 -0.139903 10.4969
O 20.5499 4.99756 8.06664
H 20.31 4.09188 8.15531
H 20.139 5.37871 8.85451
O 17.5993 4.97073 3.80052
H 16.8579 5.4288 3.47585
H 17.8274 5.36948 4.6845
O 13.1269 9.02744 4.05736
H 12.1793 9.04066 4.09126
H 13.3875 8.16911 3.68595
O 14.6361 16.1308 3.99171
H 14.9335 15.2328 4.26127
H 15.0766 16.4568 3.20243
O 27.4384 43.2089 7.69333
H 27.0067 42.7152 8.39499
H 27.5873 42.5598 6.9194
O 25.3841 1.11066 8.37241
H 25.756 1.97938 8.14856
H 26.034 0.4834 8.0207
O 22.9298 5.66489 7.01691
H 22.2391 5.38316 7.64624
H 22.4261 6.09262 6.30893
O 19.9552 2.27343 7.80211
H 20.1619 1.99244 6.92681
H 20.1576 1.52736 8.4199
O 28.0353 41.2399 5.91514
H 27.5446 41.1338 5.02602
H 27.8362 40.3818 6.36141
O 22.4076 8.30977 41.7298
H 22.8219 7.66667 41.1285
H 21.7115 8.65769 41.2444
O 20.7018 9.11977 39.5585
H 20.7177 8.47429 38.8439
H 19.9529 9.65884 39.2423
O 33.7701 5.36518 3.0111
H 33.1363 5.40674 3.71864
H 33.3688 4.90361 2.29955
O 30.401 3.93439 7.13843
H 30.5366 3.55295 7.9733
H 29.461 4.0022 7.18498
O 31.7406 5.59193 5.17375
H 31.488 5.05955 5.9869
H 31.5157 6.49222 5.3704
O 26.4329 40.9465 0.626854
H 25.6107 40.8098 0.320837
H 26.3986 41.9144 46.0543
O 31.1528 2.26879 9.58576
H 30.5264 1.5741 9.85698
H 31.2952 2.79412 10.3528
O 25.6252 5.51869 6.60536
H 24.6795 5.60499 6.86282
H 25.8526 6.25718 6.01253
O 21.6993 6.21995 1.07117
H 22.2482 6.70994 0.438344
H 21.6097 5.27855 0.777604
O 22.9119 7.65972 44.4243
H 23.8186 7.81904 44.1494
H 22.3717 7.79797 43.5272
O 27.0851 40.4024 3.5237
H 27.7847 40.0934 2.97827
H 26.372 40.6674 2.94518
O 27.3999 43.3561 1.64851
H 27.6942 -0.485485 2.51999
H 27.2567 0.0516783 1.1803
O 24.0786 17.8801 1.31022
H 24.6351 18.5454 0.978873
H 24.5811 17.0939 46.3371
O 36.1427 6.73011 2.35086
H 35.2271 6.6427 2.48928
H 36.357 6.09213 2.97057
O 27.5585 3.9283 7.7117
H 26.879 4.39949 7.19315
H 27.3471 4.17068 8.6257
