192
Atoms. Timestep: 8600
O 3.74252 3.38401 6.30088
H 2.86597 3.56151 6.45263
H 4.15806 4.26123 6.27877
O 5.47458 1.45944 43.971
H 4.62452 1.68309 43.6265
H 5.99821 1.37979 43.2327
O 6.81492 2.72845 1.26504
H 6.49821 1.81993 1.4718
H 6.60525 2.77094 0.339765
O 4.25823 4.81724 0.676231
H 4.8928 4.22262 1.07005
H 4.14761 4.36679 45.0303
O 3.93909 6.18099 5.76913
H 3.92186 6.26671 4.78435
H 4.6373 6.75318 6.00315
O 3.14149 5.59451 41.6981
H 2.8547 5.66141 40.7737
H 4.04828 5.92341 41.6816
O 2.9211 2.63943 42.6447
H 2.88813 3.48725 42.1764
H 2.50855 1.97064 42.0157
O 4.51424 6.64368 3.01269
H 5.44581 6.79359 3.20053
H 4.43339 6.29668 2.10537
O 8.20654 8.17101 41.0287
H 8.58267 9.05511 41.0534
H 8.94763 7.54329 41.3201
O 5.48829 6.63855 40.7693
H 5.86442 7.44895 41.1376
H 6.11438 6.36988 40.0762
O 45.8038 3.30654 21.2716
H 45.3654 3.9871 21.762
H -0.331749 3.76525 20.968
O 4.7117 1.17235 4.83301
H 5.03452 0.470869 5.41182
H 4.62863 1.92304 5.45159
O 5.81736 0.329227 2.46962
H 4.96075 0.156194 2.05779
H 5.49862 0.594395 3.37046
O 17.6096 42.9639 44.7244
H 17.5054 43.5532 44.0052
H 18.3683 43.2498 0.104229
O 7.40355 6.83277 3.99075
H 7.92071 7.16382 4.74391
H 7.87825 6.00054 3.77335
O 4.15374 3.4127 18.7073
H 4.87114 2.87129 18.5011
H 4.54497 4.22348 18.7725
O 11.1472 42.5079 1.77081
H 11.6544 41.7723 1.43525
H 10.354 42.1608 2.14536
O 10.7643 43.0721 42.8908
H 9.85205 42.8648 42.7566
H 11.1127 43.3457 42.0342
O 14.5383 5.88434 3.54534
H 13.8286 5.60744 4.10209
H 14.5235 5.17953 2.93261
O 14.382 3.10247 3.08275
H 13.7281 3.19586 3.75605
H 14.0883 2.54344 2.33088
O 12.0204 3.4668 8.05483
H 11.8743 3.96286 8.86356
H 12.4162 2.63105 8.28666
O 9.69268 3.40735 1.07608
H 10.2367 2.62285 0.916963
H 8.79783 3.05889 1.06124
O 15.5292 40.3907 44.7934
H 16.0678 41.209 44.754
H 15.8418 39.8545 44.0519
O 16.3816 2.44668 5.23362
H 15.7575 2.55299 4.49064
H 17.1781 2.84594 4.87912
O 9.13412 4.39158 3.65208
H 8.55855 3.68295 3.79114
H 9.57698 4.1431 2.7906
O 13.5424 1.88838 0.625365
H 13.8687 2.04423 44.9403
H 12.6096 1.46486 0.461256
O 11.0942 0.747773 0.248566
H 10.9957 0.257727 44.6028
H 11.0947 44.1862 0.970786
O 12.8685 40.1064 0.803768
H 12.9656 39.1628 0.856647
H 13.7316 40.4506 0.51951
O 19.4722 0.178324 1.15731
H 19.2144 0.998677 1.54933
H 19.9668 43.8234 1.82686
O 15.9466 1.13502 7.72122
H 16.7448 0.631143 7.75034
H 16.0633 1.76195 6.98243
O 12.4144 4.53025 5.34716
H 12.5067 4.47895 6.31347
H 11.4551 4.32149 5.211
O 13.1761 0.889022 8.56094
H 13.9672 0.849738 7.99033
H 13.4911 1.03326 9.44518
O 17.8712 2.37571 2.25068
H 17.967 3.31993 2.55551
H 17.0191 2.34911 1.80187
O 15.2739 10.8906 4.13423
H 14.7885 10.489 4.85863
H 14.6072 10.7399 3.3958
O 19.7571 7.04147 3.18502
H 20.3615 6.67423 2.53321
H 18.8767 6.6019 3.08191
O 20.7369 7.58498 5.49994
H 20.7436 8.56399 5.3875
H 20.4359 7.18922 4.67081
O 20.8091 0.0980994 9.14064
H 20.9415 43.3239 8.90341
H 21.6938 44.4648 9.47521
O 18.3298 5.99683 6.04692
H 18.6837 5.66183 6.87232
H 18.8991 6.77242 5.92503
O 15.7493 13.6672 4.85292
H 15.4841 12.81 4.49031
H 16.6803 13.6398 5.09594
O 23.5296 0.65242 9.87012
H 24.2217 0.541188 9.21454
H 23.5374 1.57678 10.1238
O 20.5392 4.92535 8.06695
H 20.3303 3.96976 7.95581
H 20.8198 5.09656 8.98118
O 17.4593 4.91097 3.72426
H 16.516 5.21423 3.73676
H 17.7433 5.17593 4.57503
O 12.651 8.86237 4.25335
H 11.8172 9.05264 4.65535
H 12.705 7.91061 4.37062
O 14.8066 16.087 3.93178
H 15.2288 15.2153 3.89667
H 15.1492 16.4242 3.09962
O 27.4451 43.1855 7.95514
H 28.3263 42.9314 8.21473
H 27.4353 42.7376 7.14937
O 25.7687 1.19448 8.3301
H 26.2678 2.01768 8.17783
H 26.4524 0.475334 8.37436
O 22.8608 5.75444 6.48893
H 22.2055 5.28854 6.97235
H 22.3101 6.42017 6.06573
O 19.6665 2.33852 7.955
H 19.386 1.96558 7.18395
H 20.0524 1.55905 8.32217
O 28.1362 41.1578 5.99095
H 27.7391 41.0269 5.14016
H 28.5462 40.2826 6.13446
O 22.5542 8.37469 41.6379
H 22.6138 7.67343 40.932
H 21.7369 8.80537 41.3663
O 20.435 8.95306 39.4048
H 20.6123 9.03463 38.4602
H 19.7328 9.57727 39.6068
O 33.7504 5.16567 3.04459
H 33.1494 5.44492 3.82225
H 33.1927 4.52139 2.6137
O 30.4846 3.85537 7.08948
H 30.8865 3.14832 7.54078
H 29.4914 3.82103 7.11403
O 31.8662 5.8567 5.00745
H 31.3729 5.05056 5.31618
H 32.1822 6.27387 5.79668
O 26.3049 41.0407 0.774363
H 26.574 40.4756 45.1666
H 26.9187 41.7722 0.843101
O 31.1902 2.18422 9.74071
H 31.3729 1.25837 9.48982
H 31.7262 2.23949 10.5235
O 25.5482 5.4832 6.6976
H 24.6042 5.36789 6.5483
H 25.6144 6.43258 6.89854
O 21.5336 6.2532 1.17487
H 21.6261 6.97354 0.558477
H 22.4613 6.32142 1.55089
O 22.9398 7.86284 44.3345
H 23.8301 8.05901 44.5733
H 22.8507 7.97971 43.4468
O 27.0786 40.1928 3.48629
H 27.4387 39.797 2.65993
H 26.1674 40.2114 3.18604
O 27.6185 43.4132 1.47511
H 27.8203 43.0288 2.32604
H 28.3419 -0.138543 1.37925
O 23.9275 17.5411 1.7549
H 23.1491 17.9986 1.66301
H 24.3659 17.8253 0.987544
O 36.2579 6.42921 2.54832
H 35.4143 5.90795 2.73306
H 36.9852 5.84248 2.48348
O 27.4654 3.91268 7.95522
H 26.8481 4.43845 7.41059
H 27.6862 4.51084 8.74999
