192
Atoms. Timestep: 9200
O 3.58892 3.18462 6.90877
H 3.99254 3.11957 7.82075
H 4.21925 3.7491 6.47685
O 5.96915 1.62552 42.9287
H 5.15083 1.92004 42.5026
H 5.98734 0.695675 42.5989
O 6.43814 1.8844 0.583436
H 6.09844 1.11318 1.03798
H 6.22841 1.73377 44.7832
O 4.45328 4.10464 1.69675
H 5.26061 3.61747 1.6088
H 4.31845 4.24347 0.776485
O 4.89178 5.39683 5.60232
H 5.21699 5.79279 4.78844
H 5.42969 5.75499 6.30138
O 3.77024 5.47856 40.6949
H 3.02639 5.86312 40.2205
H 4.57434 5.51531 40.0786
O 3.57465 3.06707 41.9497
H 3.50472 3.87644 41.3861
H 2.73662 2.86262 42.2918
O 5.29836 6.70916 3.34865
H 6.27228 6.67961 3.17959
H 4.85422 6.10045 2.71462
O 7.96294 7.61351 39.9955
H 8.39099 7.34262 40.8034
H 8.34991 8.50121 39.8181
O 6.00713 5.39025 38.9516
H 6.84564 5.86372 38.8238
H 5.77346 4.98904 38.0767
O 42.1736 6.36831 19.6248
H 42.5647 5.67569 19.1468
H 41.3204 5.94161 19.8909
O 3.42446 1.1966 5.0563
H 3.69165 1.62591 5.91254
H 3.0648 1.98094 4.55863
O 5.58221 0.484659 3.09189
H 5.86831 43.8 3.48712
H 4.87985 0.958607 3.63271
O 17.7115 41.6907 43.1264
H 17.393 41.8357 42.2202
H 18.1255 42.5265 43.4145
O 7.84728 7.10711 4.13756
H 8.0487 8.01578 3.94531
H 8.66446 6.61626 4.16465
O 5.45698 1.19556 23.3538
H 5.8382 0.535881 23.8035
H 5.50994 1.86016 23.9594
O 11.6529 42.8064 1.4082
H 12.2738 42.1783 1.08358
H 10.9061 42.2892 1.71213
O 10.403 0.970019 42.7493
H 10.6732 1.05033 41.8188
H 9.45523 1.16686 42.8048
O 13.6399 5.80975 4.67154
H 12.9017 5.478 5.15062
H 13.6388 5.23007 3.8612
O 14.3941 3.36748 3.10838
H 13.7003 3.21304 3.68388
H 14.1473 3.17341 2.19108
O 12.4839 4.15635 7.90808
H 11.9322 3.90546 8.67207
H 13.3749 3.95446 8.1962
O 9.27983 2.39377 1.71602
H 9.91232 1.91775 1.17135
H 8.43102 2.28396 1.30784
O 16.0139 40.8896 0.276278
H 16.5427 41.2079 44.7473
H 16.444 40.0795 0.584378
O 17.1897 2.96435 3.90214
H 16.2842 3.23008 3.60062
H 17.5825 3.81103 4.1918
O 9.17147 3.66444 4.19585
H 8.43485 3.383 4.67672
H 9.15091 3.10795 3.35898
O 13.6109 2.21069 0.758224
H 14.0233 2.21166 -0.109582
H 12.7315 1.93257 0.622833
O 11.0985 0.977475 0.236421
H 10.9318 1.01129 44.4781
H 11.5092 0.16984 0.495601
O 13.2301 40.7229 0.287351
H 13.0251 39.7937 0.191054
H 14.1394 40.7965 0.0259229
O 18.1932 0.493255 43.6313
H 17.9392 0.869145 44.4612
H 18.8525 1.14297 43.4409
O 16.832 1.79318 6.41312
H 16.8628 0.852107 6.23898
H 16.8577 2.16764 5.54108
O 11.8694 3.6509 5.29276
H 11.927 3.72247 6.26525
H 10.9483 3.497 5.02535
O 15.1838 3.37073 9.03222
H 15.9939 3.23381 8.4986
H 15.2761 2.70866 9.70398
O 17.6972 0.814554 1.64343
H 17.0345 1.26473 2.13808
H 18.5299 0.883322 2.20569
O 12.9367 11.506 4.23922
H 13.0814 10.5317 4.26042
H 12.3145 11.6809 3.60464
O 18.7645 7.72961 2.52395
H 19.2477 7.37025 1.74872
H 18.4017 6.94158 2.95265
O 20.2412 8.14284 4.88158
H 20.6502 9.0251 5.05558
H 19.8344 8.21609 4.04717
O 21.6849 0.182091 9.44761
H 21.9384 43.5046 9.00093
H 22.4883 0.571253 9.70465
O 18.3126 6.67818 6.68814
H 18.8086 6.0715 7.27123
H 18.933 7.22403 6.24271
O 13.9413 13.3716 5.93077
H 13.646 12.6742 5.30509
H 13.1504 13.4761 6.47832
O 24.331 0.799212 9.63614
H 25.0935 0.549879 9.11826
H 24.6342 1.63917 9.92685
O 20.4124 4.68503 7.74257
H 20.5989 3.83232 7.32029
H 20.1661 4.32994 8.62706
O 16.9364 6.01555 4.47467
H 15.9914 6.06001 4.60481
H 17.391 6.14828 5.34854
O 13.0698 8.65269 4.66777
H 12.4996 8.51516 5.4358
H 13.444 7.7473 4.53235
O 15.8516 15.3898 4.26288
H 15.0788 14.892 4.51704
H 16.5493 14.7591 4.53385
O 28.5874 42.5202 7.73757
H 29.2425 42.1198 8.29113
H 28.272 41.8765 7.13359
O 26.9365 0.68931 8.48295
H 27.167 1.37004 7.78566
H 27.4246 -0.127321 8.23129
O 22.6762 6.05667 6.39639
H 22.028 5.68577 6.9922
H 22.15 6.41299 5.69735
O 19.4224 2.31176 8.95376
H 18.7123 2.1773 8.30127
H 19.9298 1.49922 8.94614
O 28.3009 40.1893 6.3791
H 27.6265 39.8807 5.76715
H 28.969 39.4835 6.47911
O 22.4641 8.32085 40.971
H 22.9533 8.90766 40.4218
H 21.6692 8.19744 40.4326
O 19.8842 8.15235 39.6606
H 19.1127 7.78939 40.0735
H 19.6152 8.76109 38.9523
O 33.6425 4.43785 3.63734
H 32.989 4.45417 4.40114
H 33.2529 3.82054 3.02354
O 30.0653 4.49239 7.53498
H 30.4665 3.80927 8.11241
H 29.1409 4.25633 7.62225
O 31.8704 5.05951 5.64425
H 31.1435 4.4801 6.04473
H 31.799 5.95136 6.07194
O 27.004 41.3038 1.85906
H 26.4257 42.0397 1.49785
H 27.9098 41.6857 1.63459
O 32.3572 2.65064 8.77543
H 33.1106 3.01991 8.36275
H 32.6236 1.78243 9.1061
O 25.5461 6.18893 6.52967
H 24.6768 6.05255 6.14336
H 25.3783 6.872 7.17809
O 20.7221 7.59482 0.470774
H 20.5331 8.54443 0.441034
H 21.4571 7.57976 -0.189741
O 22.4452 9.0957 43.8152
H 23.3727 9.05963 43.9147
H 22.3198 8.82954 42.9239
O 26.7789 39.7797 4.21904
H 26.8374 40.213 3.35671
H 26.1761 39.0843 4.10935
O 28.8205 43.6099 0.27015
H 29.374 44.3136 0.55671
H 29.4709 43.224 -0.380949
O 22.5389 15.9153 4.2066
H 23.109 15.2168 3.92505
H 22.0219 15.4978 4.87582
O 36.8265 4.30132 3.41533
H 35.9275 4.60211 3.61361
H 36.971 3.59249 3.94883
O 27.3087 4.40272 7.72512
H 26.7378 4.90956 7.09765
H 27.3225 4.98591 8.50309
