192
Atoms. Timestep: 4650
O 46.9146 0.525287 2.93905
H 46.1562 0.13695 2.49884
H 46.717 1.41328 2.72319
O 4.67719 3.15148 44.2458
H 5.00037 3.65725 43.496
H 3.72835 3.337 44.2678
O 5.61332 2.45041 1.79177
H 5.2924 1.58712 2.07331
H 5.40926 2.58518 0.828986
O 3.8827 5.5138 3.2321
H 4.55253 5.36766 3.95227
H 3.94725 4.81681 2.5493
O 46.1764 3.17707 3.31129
H 46.9561 3.78661 3.50003
H 45.4147 3.76955 3.03426
O 4.14641 8.10637 1.66396
H 4.25264 7.32835 2.22171
H 5.04393 8.50596 1.59273
O 5.3232 4.39277 41.4777
H 5.61578 5.20295 41.1124
H 4.96335 3.97048 40.6308
O 1.23507 5.21972 3.95787
H 2.15647 5.27162 3.64228
H 0.922704 6.15613 3.89564
O 1.65199 9.12924 -0.0552094
H 2.35445 9.33676 0.572788
H 1.37251 8.29124 45.3507
O 7.15916 8.69575 0.967356
H 7.55505 8.53897 0.14613
H 7.65444 8.20727 1.60631
O 22.4819 28.1389 32.622
H 21.7101 28.6964 32.746
H 23.0686 28.7194 32.1338
O 2.21254 43.0584 3.70002
H 1.83055 42.7757 4.55707
H 1.50314 43.5938 3.36771
O 4.67332 -0.199605 2.40862
H 5.36319 43.224 2.40722
H 4.09451 43.6173 3.07555
O 15.345 42.9773 7.7258
H 15.8198 42.657 8.47684
H 15.9399 43.5798 7.17313
O 5.84675 4.88896 5.06154
H 6.01832 5.58275 5.67502
H 6.52294 4.18656 5.25048
O 43.5989 23.1003 35.6306
H 44.2946 23.5761 36.1538
H 44.1413 22.3479 35.2531
O 13.6576 1.05287 1.52058
H 13.6022 0.259399 2.09022
H 14.5079 1.09879 1.02973
O 11.3763 5.34389 43.9908
H 11.647 6.24654 44.1729
H 10.8061 5.34166 43.2111
O 15.752 5.95006 5.33226
H 15.4783 6.86221 5.59135
H 14.9365 5.46617 5.19678
O 13.4502 4.54961 4.89499
H 12.5565 4.81579 5.22403
H 13.1553 4.24436 4.03639
O 8.02322 1.41857 7.40624
H 7.9876 0.498658 7.1264
H 8.58147 1.39241 8.19039
O 8.27474 2.59657 2.35803
H 8.82283 2.6252 1.57418
H 7.31976 2.36038 2.21774
O 13.6513 41.266 5.78974
H 14.138 41.9487 6.22597
H 13.2085 40.8231 6.48632
O 14.8551 3.23188 7.23189
H 14.5078 3.60258 6.3956
H 15.1657 3.99091 7.69792
O 8.15731 3.67924 5.19871
H 8.17394 2.83357 5.62785
H 8.14273 3.55101 4.24223
O 12.6814 3.6309 2.35848
H 12.9778 2.68365 2.09375
H 11.7605 3.566 2.09199
O 10.4757 2.71932 0.384526
H 10.6661 3.51465 -0.0697512
H 10.8639 1.91395 -0.0073883
O 12.8772 42.851 2.96185
H 12.4778 42.1719 2.39682
H 13.2591 42.2613 3.68181
O 16.8781 0.966999 6.33653
H 17.5788 1.06874 5.69677
H 16.3256 1.72301 6.29
O 13.3762 0.949155 8.72534
H 14.0072 0.215376 8.64071
H 13.7011 1.58309 8.06686
O 10.7622 5.35003 5.53316
H 10.7343 5.80234 6.38524
H 9.92631 4.85362 5.43083
O 10.5308 0.686439 9.41992
H 11.3848 0.581098 8.9141
H 10.839 1.34329 10.0435
O 19.0684 1.29233 4.44463
H 19.5384 2.1661 4.58737
H 19.6666 0.698165 4.03429
O 16.7962 7.13664 44.5282
H 15.8574 7.08757 44.7739
H 17.2588 6.6383 45.2155
O 24.1126 3.92493 3.79367
H 23.9787 4.8067 3.41886
H 24.7906 3.42445 3.33396
O 22.3393 2.58164 5.37365
H 23.0216 2.99267 4.7962
H 22.6867 1.70754 5.67192
O 21.5266 44.0423 9.93347
H 21.6479 43.3649 10.6007
H 21.9126 43.6533 9.13023
O 19.9101 3.9617 5.10441
H 19.7541 3.89163 6.06393
H 20.8489 3.66367 5.00648
O 18.7098 8.95769 43.4116
H 19.0306 8.1609 43.8247
H 17.7644 8.90337 43.5077
O 22.9988 43.7833 7.53164
H 23.8933 -0.0265943 7.83281
H 23.2209 43.0557 6.9503
O 19.5344 3.75484 7.84829
H 19.8197 2.95941 8.41691
H 18.9076 4.30032 8.32989
O 18.0112 5.25298 3.35234
H 17.2828 5.55804 3.8908
H 18.6282 4.79254 3.9419
O 18.2715 5.12928 0.626326
H 18.2259 5.22114 1.60851
H 19.1508 5.36242 0.389997
O 20.0461 11.2567 44.441
H 19.5502 10.4896 44.0989
H 20.2378 11.9096 43.7575
O 27.2514 42.8169 6.63338
H 27.3284 43.2429 5.7498
H 28.0039 42.2749 6.74827
O 25.4629 0.120928 8.43128
H 25.7493 0.980613 8.58703
H 26.0029 43.8093 7.83771
O 22.729 4.2441 7.94431
H 21.8533 4.5635 8.00106
H 22.6073 3.69689 7.14593
O 19.3696 1.6483 9.61541
H 18.7349 0.943763 9.23889
H 20.1687 1.14534 9.80852
O 27.9941 43.8641 4.04034
H 27.3388 44.0009 3.32931
H 28.3668 0.529925 4.35834
O 25.3239 9.24304 43.3284
H 24.6478 8.79685 42.7334
H 26.0437 9.45218 42.81
O 26.4471 10.5524 40.94
H 27.3578 10.6996 40.8923
H 26.0685 11.4006 40.9192
O 28.5468 7.22743 6.43945
H 28.3248 7.0887 7.34463
H 29.0497 6.4104 6.02307
O 29.3348 2.53332 5.71254
H 30.0875 2.13856 6.21746
H 28.7042 2.57329 6.43157
O 29.9676 5.22321 4.98232
H 29.8478 4.33819 5.15804
H 30.1468 5.40232 4.02934
O 25.2326 42.1041 0.656979
H 25.1655 41.4054 45.1405
H 24.2689 42.2727 0.787054
O 30.649 1.58371 8.05634
H 30.7743 1.99782 8.92084
H 31.1983 0.816833 8.14898
O 25.1939 5.40415 8.95526
H 24.2854 5.10863 8.68287
H 25.3593 6.27167 8.52692
O 24.0753 6.42783 2.68724
H 23.5812 7.20796 2.82878
H 24.5089 6.76404 1.88932
O 25.8201 7.80046 0.658467
H 26.5038 7.22629 0.362446
H 25.6183 8.45026 0.0409654
O 27.0271 44.2096 0.920639
H 26.6021 43.3739 0.760664
H 26.6669 44.7462 0.310536
O 25.168 39.2343 44.4462
H 24.2786 39.19 44.2425
H 25.5411 38.7567 43.679
O 32.9134 28.8861 30.3071
H 32.305 28.8374 31.1037
H 32.7216 29.8147 30.0299
O 28.0116 9.99057 5.80923
H 28.3538 9.09673 6.05171
H 28.7127 10.2914 5.3007
O 26.6638 3.00424 8.22614
H 26.065 3.78904 8.33823
H 27.1736 3.17512 8.96804
