192
Atoms. Timestep: 7800
O 3.12452 3.43091 6.81184
H 3.39269 3.88664 7.63116
H 3.124 4.06833 6.057
O 4.30803 1.32694 43.4536
H 3.76776 2.01239 43.0237
H 4.84025 0.912582 42.7358
O 5.9954 2.22441 0.800552
H 5.82759 2.07255 1.75695
H 5.28344 1.81661 45.4365
O 5.89486 5.619 0.723212
H 6.75592 5.70174 1.13313
H 5.74407 4.66293 0.753949
O 2.66517 5.25209 4.53419
H 3.43222 5.72668 4.22066
H 1.96885 5.95174 4.65207
O 3.4309 5.66575 43.3477
H 4.17811 5.57155 43.9284
H 3.59762 6.44548 42.7455
O 2.68708 3.40767 42.3096
H 3.08877 4.24098 42.595
H 1.935 3.60566 41.8371
O 5.00398 6.49218 3.49355
H 6.01543 6.40701 3.63748
H 5.0684 6.3857 2.53395
O 7.17046 8.52622 42.9491
H 7.99593 8.70496 42.5883
H 7.26721 7.80122 43.5167
O 4.48604 7.9265 41.7724
H 5.3318 8.44657 41.9561
H 4.2825 7.99375 40.8396
O 3.79863 43.5671 23.6126
H 3.6825 42.66 23.2393
H 2.92152 43.7273 23.8927
O 4.3733 1.04231 5.50159
H 4.46506 0.500854 6.24584
H 4.08722 1.83013 5.92975
O 6.11542 0.85556 3.26172
H 7.03823 0.52459 3.22752
H 5.91844 0.852036 4.23415
O 18.0106 42.2707 2.43785
H 18.9374 42.0824 2.61051
H 17.9563 43.1098 2.93861
O 7.9151 6.8585 3.02829
H 8.45126 7.64344 2.84816
H 8.58471 6.16154 3.05366
O 2.62183 6.47445 12.3282
H 1.9618 6.66252 11.5924
H 3.16392 5.73821 11.9009
O 11.286 42.0259 2.01975
H 12.1669 41.6056 1.91625
H 11.0946 41.5868 2.85295
O 10.802 43.9339 43.0778
H 10.1606 43.3479 42.6693
H 11.6474 43.7095 42.6239
O 15.5889 6.59819 3.76195
H 14.8275 6.84439 4.2034
H 15.3742 5.70552 3.41642
O 14.36 3.03188 3.65114
H 13.5577 3.42999 3.97738
H 14.037 2.64169 2.80229
O 9.93354 2.76689 6.38015
H 9.51378 3.1054 7.18399
H 10.2392 1.85691 6.58444
O 8.57405 1.90512 1.74324
H 9.30451 1.52551 1.24361
H 7.8201 1.75396 1.15743
O 15.9701 41.7537 0.473729
H 16.8058 41.927 0.922349
H 16.1301 41.7016 44.7562
O 15.0704 0.939398 5.66256
H 14.613 1.39078 4.94194
H 15.6156 1.63587 6.05304
O 9.24652 4.12771 3.29432
H 8.94183 3.7822 4.13342
H 9.2586 3.45183 2.65145
O 12.968 2.38766 1.11852
H 13.7855 2.08733 0.644358
H 12.2734 1.75701 0.955922
O 10.6532 0.39948 0.564074
H 10.617 -0.132726 44.9388
H 10.7769 43.8601 1.25835
O 13.9139 40.8549 1.82539
H 14.1626 39.9527 1.92447
H 14.6362 41.1723 1.24605
O 17.6224 0.629254 3.69918
H 17.932 1.53102 3.50381
H 16.8855 0.830352 4.27934
O 13.4863 42.5086 6.49276
H 13.1533 41.7897 5.92245
H 14.1506 42.9908 5.94935
O 12.0297 4.36606 4.47224
H 11.5075 4.16487 5.28057
H 11.3417 4.33559 3.75649
O 11.2496 0.387393 7.28682
H 11.9341 43.8886 7.03823
H 11.524 0.66235 8.17323
O 18.2601 3.28578 3.22962
H 18.1088 4.054 3.83991
H 17.8169 3.56503 2.44004
O 16.8595 11.478 3.69992
H 17.1258 11.4697 4.60575
H 16.9581 10.5714 3.37896
O 21.6337 5.42924 3.49578
H 22.4355 5.15482 3.03904
H 20.9529 5.39619 2.80193
O 21.5255 7.71529 5.36836
H 21.144 8.38302 4.72341
H 21.7212 6.8787 4.84019
O 20.7868 43.8715 8.90038
H 20.0933 43.8738 9.59461
H 21.6545 43.8516 9.41397
O 19.3359 6.4769 7.06535
H 19.4037 6.00744 7.88494
H 20.1717 6.80877 6.82127
O 16.5274 13.9239 2.35512
H 16.7206 13.0698 2.76944
H 17.3156 14.4849 2.39886
O 23.1675 43.9586 10.3334
H 24.0104 0.202382 9.97881
H 23.252 44.0751 11.2835
O 19.8075 4.10981 8.86217
H 20.1758 3.40445 8.28459
H 19.1895 3.78469 9.52547
O 18.1274 5.43915 4.64371
H 17.3732 6.0747 4.73949
H 18.7128 5.59618 5.41274
O 16.9792 8.783 2.53843
H 17.117 8.73835 1.57613
H 16.4242 8.0083 2.73939
O 14.7122 15.5664 4.29499
H 15.2888 15.1677 3.62318
H 14.0026 15.7193 3.6856
O 26.2945 42.3975 7.94878
H 26.5609 42.0914 7.099
H 26.1653 41.6281 8.5825
O 25.5582 0.923388 9.07907
H 25.859 1.78317 8.75376
H 25.7852 0.164215 8.5231
O 23.4163 7.02146 7.44103
H 23.0267 6.82327 8.26257
H 22.7517 7.3977 6.85815
O 20.9485 1.91995 7.33021
H 20.7796 1.5288 6.52827
H 20.8667 1.17719 7.99233
O 27.7117 41.1113 5.80219
H 27.387 40.9482 4.91946
H 28.6465 41.0808 5.70273
O 22.381 7.74528 41.6771
H 21.5999 7.27419 41.3168
H 22.1502 8.75575 41.4635
O 21.8197 9.94888 40.2586
H 21.4012 9.80935 39.4024
H 22.0313 10.8485 40.3333
O 33.2002 6.04412 2.99342
H 32.5935 6.05289 3.74618
H 33.3421 5.10263 3.005
O 29.8465 3.72376 7.05488
H 30.1282 3.47551 7.94225
H 28.9556 3.96981 7.19646
O 31.2758 5.62669 5.13894
H 31.2499 4.79954 5.76265
H 30.6674 6.1279 5.65656
O 26.0445 41.3292 0.702635
H 25.8845 40.8166 45.0709
H 26.0331 42.2866 0.464227
O 31.4168 2.69933 9.44742
H 31.6324 1.79416 9.59428
H 32.3058 3.01623 9.19387
O 25.5142 5.49468 6.43213
H 24.7441 5.95719 6.86429
H 25.8839 6.13338 5.82269
O 22.4373 4.98293 0.770662
H 22.5905 4.11583 0.293604
H 22.6785 5.60058 0.0836405
O 23.2776 6.80813 43.9901
H 24.158 7.14157 43.7964
H 22.7191 7.14769 43.2662
O 27.4882 40.6688 2.84783
H 26.8795 40.1375 2.37804
H 28.0177 40.9533 2.1456
O 25.8079 43.9841 1.0081
H 24.9391 0.179761 0.636864
H 25.4724 43.4772 1.72335
O 25.7495 19.8552 43.5149
H 24.9978 20.4961 43.3153
H 26.5382 20.3354 43.1607
O 34.4832 8.51257 2.0793
H 34.1306 7.62814 2.34319
H 34.7866 8.83499 2.95206
O 26.8607 3.66221 7.9961
H 26.4059 4.03526 7.20006
H 26.8824 4.44114 8.51971
