192
Atoms. Timestep: 1000
O 0.745957 -0.242894 1.08107
H 46.9443 0.246743 1.5251
H 1.39597 -0.314931 1.74244
O 5.8207 3.87892 45.3694
H 5.38319 4.59049 44.9537
H 5.35944 3.03519 -0.0140924
O 6.50977 5.13073 2.54399
H 7.37474 4.79877 2.75791
H 6.23807 4.60361 1.81845
O 4.28913 4.98503 4.95793
H 5.00633 5.07721 5.66575
H 4.71107 5.12374 4.11801
O 1.97478 44.4641 3.47651
H 2.16319 1.11284 4.05883
H 2.38529 43.664 4.00628
O 1.45621 6.40556 6.74202
H 2.37704 6.26019 6.51741
H 0.914797 6.1225 6.02251
O 4.71851 1.41034 -0.0288271
H 3.81377 1.42979 44.8053
H 5.18332 0.721274 44.584
O 3.9572 1.93982 5.24318
H 3.97535 2.90064 5.10756
H 4.26577 1.81502 6.11728
O 0.468871 9.00027 7.21218
H 0.782846 8.10378 7.17683
H 0.180683 9.06083 8.12008
O -0.165458 5.82625 4.36407
H 45.9418 6.28624 4.45561
H 0.0628807 6.04777 3.4577
O 44.4065 10.2922 43.0649
H 43.9651 9.56234 43.4859
H 44.0376 11.0413 43.5205
O 2.22881 1.05039 44.349
H 1.58875 1.59095 43.8661
H 1.69632 0.630912 45.0263
O 5.86538 1.27642 2.87317
H 5.45086 1.25346 2.01671
H 5.23917 1.32822 3.59863
O 10.1381 43.0158 12.5202
H 10.3701 43.2321 13.4224
H 10.9305 43.2308 12.0068
O 6.11723 5.12344 7.24307
H 7.02108 4.83124 7.36914
H 5.82179 5.53532 8.06629
O 45.6883 41.7913 12.9084
H 44.8308 42.1534 12.6287
H 46.2729 42.034 12.1337
O 8.714 1.30597 3.55521
H 7.7743 1.17237 3.35482
H 9.37481 0.984252 2.92369
O 12.533 5.83491 44.5893
H 12.6977 5.27188 43.8005
H 13.4487 6.12264 -0.33643
O 14.5117 7.71359 5.39867
H 14.7285 8.59825 5.6896
H 13.5661 7.63483 5.56592
O 11.7521 7.75465 5.96348
H 11.4822 7.95064 6.8807
H 11.0262 7.23204 5.60816
O 9.49122 1.46132 6.22271
H 9.11969 1.36393 5.35275
H 9.15876 0.806307 6.83773
O 9.79551 5.58227 5.47475
H 9.70866 5.05774 4.65989
H 8.90907 5.95112 5.4486
O 13.0451 -0.199419 1.60232
H 13.7262 -0.388405 0.958898
H 13.4383 0.169338 2.47697
O 12.0867 0.770754 5.86179
H 11.1248 1.00495 5.77539
H 12.3207 1.18132 6.68364
O 8.77617 4.47728 8.15207
H 8.72164 3.53432 8.29999
H 9.35063 4.49175 7.34486
O 9.28168 4.08086 3.24897
H 9.21393 3.12541 3.30988
H 9.68446 4.22968 2.36659
O 10.2745 5.17178 0.969593
H 9.74235 5.57854 0.328142
H 11.1984 5.30197 0.754581
O 10.3618 0.245845 1.60404
H 10.0925 44.4647 0.694448
H 11.3543 0.0502286 1.56241
O 14.2377 0.662155 3.91036
H 15.0436 1.21581 4.05727
H 13.6235 0.82477 4.657
O 12.0113 42.926 9.06408
H 12.7351 42.3647 9.32861
H 12.1241 43.0836 8.12862
O 10.2614 7.48361 8.72258
H 9.85572 7.95708 9.41775
H 9.96136 6.58279 8.82498
O 8.85306 0.246219 8.52801
H 9.53895 43.9756 9.0695
H 8.01559 44.0656 8.91209
O 16.8643 1.81953 4.41965
H 17.259 2.67663 4.25433
H 17.5449 1.34212 4.94516
O 19.7099 3.56988 0.891438
H 20.5004 3.82027 1.34953
H 19.0915 4.22612 1.15762
O 22.524 4.79772 2.62366
H 23.4634 4.528 2.50589
H 22.7025 5.74233 2.40008
O 21.4812 4.15377 5.00469
H 21.8067 4.34415 4.15556
H 21.5134 3.21207 5.14457
O 19.1156 0.318749 5.84999
H 19.9398 0.594072 5.5201
H 19.092 -0.625226 5.88117
O 18.739 5.06253 5.91167
H 18.6908 5.10624 6.91263
H 19.6362 4.86567 5.57786
O 20.3337 1.81749 43.5462
H 20.4128 2.62754 43.0433
H 20.0244 2.13948 44.4338
O 21.7066 1.27013 5.36287
H 22.15 1.13178 6.18966
H 22.3251 1.17103 4.64652
O 18.7552 4.81032 8.64794
H 18.9033 3.8552 8.7155
H 17.9909 5.05803 9.17997
O 16.8753 6.4566 4.35365
H 16.0834 6.68369 4.79533
H 17.4406 6.10203 4.98708
O 17.7448 5.68789 1.6787
H 17.7607 6.56071 1.27362
H 17.3647 5.96478 2.56776
O 20.4481 43.275 42.2162
H 20.2959 44.1118 42.675
H 20.6466 43.6031 41.3386
O 23.3283 0.89113 3.12933
H 24.2662 1.21175 3.1451
H 23.2796 -0.0394616 2.88858
O 22.4719 1.07735 7.85902
H 23.401 1.40336 8.04675
H 22.4485 0.171584 8.21409
O 22.5108 5.46044 7.14575
H 21.8937 6.14099 7.42061
H 22.249 5.04118 6.29569
O 19.3649 1.94614 8.65098
H 20.3147 1.75827 8.62474
H 19.0113 1.37432 7.90583
O 26.1354 1.74173 3.3823
H 26.6389 1.31886 2.68821
H 26.3988 1.71138 4.28936
O 29.1888 5.96679 44.7817
H 29.5842 6.49093 43.9891
H 29.541 5.11685 44.6228
O 30.0699 7.19725 2.34313
H 29.8579 6.79457 1.51536
H 29.4155 7.9116 2.46791
O 29.8213 6.6776 7.07534
H 29.9127 7.01672 6.20227
H 28.9273 6.32118 7.06384
O 26.7631 1.47547 6.05134
H 27.6376 1.59432 6.22471
H 26.2638 1.69706 6.7823
O 27.0586 6.1207 6.24091
H 26.9103 5.45682 5.60268
H 26.5193 6.81493 5.82421
O 29.9726 42.78 45.1102
H 30.9123 42.6803 -0.00147016
H 29.785 42.6674 44.1579
O 29.4699 1.64335 6.6521
H 30.2615 2.19263 6.54602
H 29.8308 0.857303 7.05672
O 24.6143 4.69162 8.47036
H 23.7725 4.90665 8.01112
H 25.2386 5.32543 8.13482
O 25.137 4.29499 2.57947
H 25.5601 3.47938 2.79465
H 25.5718 4.75061 1.8914
O 26.2857 5.92493 0.756814
H 25.7798 6.62121 0.394072
H 27.1096 5.92725 0.257784
O 27.7356 0.902877 1.2709
H 28.2918 0.105144 1.30794
H 27.3665 0.890616 0.418033
O 32.6697 41.6829 -0.40483
H 33.4504 42.284 -0.332372
H 33.0194 40.9454 44.2418
O 32.2459 41.6756 12.6117
H 33.1043 42.0636 12.4453
H 32.4347 40.7631 12.5407
O 31.6089 6.81846 9.58862
H 31.0447 6.9863 8.85339
H 31.3974 7.51506 10.3013
O 25.2714 2.0851 8.27157
H 25.1361 2.98654 8.38995
H 25.7488 1.80806 9.01474
