192
Atoms. Timestep: 8550
O 3.71647 3.41221 6.31512
H 2.88145 3.4911 6.67099
H 3.79994 4.29069 5.88276
O 5.34114 1.45996 43.9688
H 4.52919 1.88477 43.6111
H 5.81224 1.01571 43.3139
O 6.7076 2.72882 1.21723
H 6.77042 2.04293 1.94476
H 6.41048 2.28213 45.5789
O 4.23376 4.83838 0.58715
H 4.96435 4.22118 0.692977
H 3.79608 4.48229 -0.180585
O 3.86286 6.0006 5.67368
H 4.22223 6.41313 4.88904
H 4.06118 6.66855 6.29721
O 3.16808 5.6349 41.7645
H 2.66049 5.65293 40.9477
H 4.01463 5.9271 41.4808
O 2.95314 2.53368 42.707
H 2.96249 3.39914 42.2574
H 2.05415 2.1504 42.4236
O 4.51015 6.80621 3.06609
H 5.41695 6.89534 2.94492
H 4.21566 6.24627 2.34063
O 8.15786 8.22646 41.1202
H 8.62188 8.92452 41.5405
H 8.81997 7.51367 41.0943
O 5.45786 6.78517 40.8726
H 5.95919 7.36031 41.4477
H 6.1488 6.41513 40.3156
O -0.839167 3.0643 21.4178
H -1.10937 3.85815 21.8674
H 0.0482186 3.30176 21.1033
O 4.87418 1.19104 4.93656
H 4.45844 0.347326 5.06645
H 4.32386 1.86208 5.26183
O 5.84962 0.404748 2.4542
H 5.22226 0.302824 1.72265
H 5.31997 0.869832 3.11046
O 17.5763 42.8971 -0.377773
H 17.6995 43.551 -1.03509
H 18.0082 43.4299 0.331021
O 7.48744 6.84181 3.95827
H 7.60401 6.93252 4.92272
H 8.06484 6.05089 3.78785
O 4.05045 3.63055 18.2937
H 4.51806 2.92021 17.9737
H 4.68369 4.08743 18.6874
O 11.1194 42.4633 1.66761
H 11.7453 41.7763 1.49051
H 10.625 42.0955 2.37708
O 10.77 43.0059 42.8862
H 10.2179 42.2775 42.5876
H 11.626 42.9033 42.4266
O 14.5834 6.01648 3.49544
H 14.0731 5.73228 4.25163
H 14.3487 5.39141 2.81688
O 14.4552 3.00321 3.11672
H 13.6953 3.31968 3.63098
H 14.0677 2.6968 2.30197
O 11.9349 3.38038 7.87059
H 11.9762 3.88935 8.68254
H 12.2654 2.48304 8.04989
O 9.71433 3.35304 1.15963
H 10.0849 2.462 0.972049
H 8.80643 3.28216 0.901063
O 15.5548 40.4552 44.764
H 15.9499 41.3519 -0.387891
H 15.9613 40.1621 43.943
O 16.3262 2.38473 5.32866
H 15.6679 2.3111 4.64512
H 17.0782 2.70985 4.84207
O 9.12171 4.45971 3.57852
H 8.7234 3.63112 3.54538
H 9.52447 4.40075 2.71006
O 13.552 1.96565 0.653146
H 14.0412 2.00811 -0.123536
H 12.7933 1.53223 0.438929
O 10.9767 0.620925 0.342004
H 10.758 0.349215 44.6257
H 10.919 43.9152 0.808744
O 12.8805 40.1594 0.892132
H 12.6539 39.2633 1.13157
H 13.7324 40.1318 0.390349
O 19.3948 44.3222 1.48283
H 18.8885 0.787231 2.0282
H 19.9536 43.7535 2.01307
O 15.8811 45.1077 7.6846
H 16.4795 44.4426 7.98891
H 16.1758 1.2998 6.80409
O 12.411 4.57686 5.43477
H 12.6154 4.13807 6.26416
H 11.4298 4.49061 5.42556
O 13.0381 0.793383 8.51952
H 13.9146 0.728163 8.01394
H 13.2727 44.6219 9.41007
O 17.9656 2.54022 2.31406
H 17.8455 3.31973 2.89715
H 17.2499 2.61646 1.70415
O 15.3458 10.9346 4.18453
H 15.027 10.333 4.83605
H 14.8337 10.6075 3.4055
O 19.8415 6.89751 3.1216
H 20.406 6.78265 2.33033
H 19.1792 6.15954 3.15562
O 20.8249 7.407 5.52834
H 21.0232 8.39392 5.47271
H 20.5206 7.14006 4.59705
O 20.8252 44.1674 9.07298
H 20.3943 43.3368 9.09587
H 21.7684 44.0825 9.34394
O 18.3462 6.13147 6.12728
H 18.8302 5.44739 6.61801
H 18.9903 6.8715 6.10855
O 15.9046 13.6345 4.60383
H 15.803 12.7108 4.46428
H 16.7171 13.6704 5.11469
O 23.4015 0.695169 9.88692
H 24.0869 1.00024 9.31212
H 23.7809 0.856884 10.7585
O 20.5813 5.01052 8.0466
H 20.4099 4.01703 8.02754
H 20.477 5.30427 8.97042
O 17.5365 4.89438 3.7245
H 16.6292 5.17065 3.65682
H 17.8562 5.22532 4.61046
O 12.8598 8.92516 4.1378
H 11.982 9.15028 4.4051
H 12.9639 7.99795 4.36756
O 14.722 16.104 3.96151
H 15.1524 15.2329 4.16943
H 15.1195 16.4738 3.16117
O 27.4672 43.17 7.776
H 27.6252 42.7463 8.60751
H 27.6094 42.5909 7.06806
O 25.4829 1.14726 8.41459
H 26.0878 1.90317 8.36241
H 26.003 0.413365 8.02666
O 22.8875 5.6812 6.76933
H 22.2351 5.33934 7.35689
H 22.3999 6.34903 6.28196
O 19.795 2.27472 7.88684
H 19.8553 2.03626 6.99062
H 20.1624 1.50042 8.45653
O 28.1032 41.228 5.96678
H 27.6864 41.1965 5.08586
H 28.016 40.3327 6.35176
O 22.4794 8.32924 41.7145
H 22.7818 7.69241 41.0281
H 21.8036 8.83896 41.3004
O 20.5593 9.03899 39.4819
H 20.683 8.72387 38.5752
H 19.8207 9.64698 39.3014
O 33.7799 5.27199 3.01211
H 33.1278 5.50147 3.73778
H 33.3162 4.61906 2.49499
O 30.4258 3.86827 7.1273
H 30.8907 3.53913 7.86398
H 29.4856 3.85009 7.39113
O 31.8302 5.74728 5.06941
H 31.2826 5.03447 5.56096
H 31.7307 6.44018 5.71757
O 26.3855 41.0388 0.716889
H 26.0499 40.6884 -0.0570251
H 26.6732 41.9185 45.6703
O 31.1741 2.22528 9.66163
H 30.8714 1.30076 9.71291
H 31.4548 2.51115 10.5168
O 25.5719 5.4925 6.65031
H 24.5882 5.44316 6.74699
H 25.7224 6.43596 6.4451
O 21.5808 6.24979 1.12827
H 22.0148 6.68737 0.371489
H 22.2268 5.60151 1.52583
O 22.928 7.76921 44.3578
H 23.8699 7.91402 44.3794
H 22.7299 7.99851 43.3957
O 27.0621 40.2526 3.53248
H 27.7563 40.2914 2.8667
H 26.3752 40.6391 2.98786
O 27.4816 43.3345 1.55315
H 27.7605 -0.913686 2.45098
H 27.8373 0.0183625 1.25314
O 23.998 17.7001 1.54448
H 23.8323 18.5365 1.22645
H 24.6323 17.3861 46.1221
O 36.19 6.57666 2.45744
H 35.259 6.39021 2.4581
H 36.6742 5.85916 2.76508
O 27.5205 3.93554 7.80225
H 26.8858 4.52854 7.41913
H 27.6702 4.25097 8.7339
