192
Atoms. Timestep: 4000
O 46.3971 43.7596 2.17708
H 46.2703 43.4733 3.06441
H 46.2599 0.628855 2.0873
O 5.17626 3.7504 44.1113
H 4.49875 4.20659 43.5596
H 5.77678 3.4465 43.4696
O 5.42359 3.31591 1.85711
H 5.17198 2.32462 1.83111
H 5.27817 3.52923 0.942868
O 3.85459 4.94249 3.47329
H 4.42619 5.04795 4.29316
H 4.32738 4.32545 2.85079
O 46.1623 2.39354 1.94199
H -0.200721 2.95246 2.46842
H 45.428 2.90548 2.14845
O 2.86008 7.35196 2.64571
H 3.10155 6.50718 3.01519
H 3.62745 7.93396 2.89092
O 5.61158 3.30835 40.9113
H 4.77451 3.20561 40.4015
H 6.22483 3.34104 40.1675
O 1.007 3.94026 3.65683
H 1.92773 4.33727 3.47688
H 1.02587 3.54836 4.54057
O 1.94307 9.07248 0.688369
H 2.30259 8.28864 1.09569
H 2.21081 9.1454 -0.196353
O 5.68789 8.30644 4.13999
H 5.99813 7.48837 4.58819
H 6.21273 8.41612 3.34353
O 26.3889 25.0506 34.4707
H 27.2085 24.5102 34.3947
H 25.7975 24.4559 34.8742
O 2.2179 43.4336 1.80425
H 2.33862 42.7683 1.12013
H 1.24914 43.569 1.86305
O 4.67757 0.556876 1.99671
H 5.31549 44.1046 1.65762
H 3.76819 0.173276 1.98238
O 14.3354 43.1557 8.21861
H 15.0328 42.8151 8.74359
H 14.7928 43.5072 7.45003
O 5.83935 5.77027 5.56172
H 5.22347 5.81829 6.31169
H 6.52597 5.15473 5.84478
O 42.4698 26.7918 31.1609
H 42.3443 27.7786 31.2835
H 41.9437 26.6574 30.3335
O 13.4744 0.321988 2.18272
H 13.0575 43.7395 2.70589
H 13.3829 -0.100987 1.34278
O 10.7765 5.41406 44.1501
H 11.5234 5.43035 43.5515
H 10.2093 6.01529 43.7015
O 15.9566 6.14305 6.13956
H 16.0511 7.12374 6.35521
H 15.0123 6.0627 5.97109
O 13.4858 4.43313 5.12561
H 12.6282 4.76486 5.43502
H 13.3181 3.89489 4.36897
O 7.94436 2.43295 8.49014
H 7.84605 1.49118 8.25087
H 8.72237 2.46562 9.05951
O 7.99356 3.56694 3.30064
H 8.58292 4.13275 2.85381
H 7.27414 3.56462 2.66214
O 13.5661 40.9183 5.43445
H 13.3328 41.18 6.31129
H 14.4927 40.9914 5.39308
O 14.7713 3.00175 6.91605
H 14.2322 3.45069 6.21706
H 15.481 3.649 7.00507
O 7.84155 4.29796 6.2211
H 7.69343 3.56932 6.86092
H 7.9948 3.87557 5.39392
O 13.0062 3.32402 2.7845
H 13.1197 2.35947 2.73029
H 12.1712 3.54525 2.35331
O 10.2601 4.69768 1.85208
H 10.4527 5.68317 1.93887
H 10.2032 4.5994 0.893961
O 12.0722 42.4717 3.26534
H 11.1901 42.1404 3.17649
H 12.4008 41.9413 3.98469
O 15.182 0.0408323 5.83692
H 16.1189 0.127885 5.602
H 14.894 0.945316 6.0117
O 12.9928 1.51664 8.87187
H 13.421 0.69875 8.62999
H 13.3705 2.14467 8.30425
O 11.004 4.75934 6.24074
H 11.0402 5.02008 7.1571
H 10.0568 4.70343 6.16527
O 10.2306 1.97416 9.88137
H 10.922 1.95288 9.2287
H 10.7543 2.16052 10.652
O 17.7039 0.596607 4.99296
H 18.2496 1.31432 5.36659
H 17.752 0.784898 4.03022
O 18.2205 6.23659 43.8436
H 17.803 5.48181 43.4643
H 18.1831 6.00172 44.7868
O 23.448 3.38427 3.08251
H 23.7935 4.27946 2.88657
H 23.271 3.01251 2.242
O 22.0459 2.66831 5.25212
H 22.615 2.9214 4.4403
H 22.4152 1.86012 5.75141
O 20.557 0.128203 8.26463
H 20.7604 43.4263 8.70493
H 21.2533 0.280739 7.63758
O 19.0988 2.97377 5.69699
H 19.1098 3.46469 6.56709
H 20.0252 2.94771 5.45531
O 19.5637 8.04084 41.9542
H 19.177 7.56631 41.2009
H 19.3985 7.43293 42.6841
O 23.0184 0.260797 6.50878
H 23.8638 0.280826 6.99295
H 23.2918 43.7455 5.83611
O 19.5158 4.02791 8.46742
H 19.4239 3.44703 9.17741
H 19.2532 4.85658 8.83124
O 18.1088 5.1466 4.23522
H 17.4022 5.48684 4.76812
H 18.4963 4.50966 4.83839
O 17.8325 5.30697 1.32568
H 18.3415 5.29789 2.13811
H 17.0462 4.90493 1.69105
O 20.6844 10.5499 42.7849
H 20.7385 9.62159 42.5892
H 21.6242 10.7098 42.869
O 25.9658 43.0586 5.04734
H 26.6111 43.7845 4.7048
H 26.4575 42.2704 5.3757
O 25.5609 0.0713544 7.49246
H 26.1389 0.936515 7.59681
H 25.7748 43.8502 6.6459
O 22.8505 4.74774 7.42829
H 22.1392 4.48875 8.04328
H 22.6591 4.20057 6.64289
O 19.7637 1.91988 10.4063
H 19.3959 1.35207 11.0364
H 20.0162 1.34472 9.63209
O 28.0122 0.40009 4.37875
H 27.9813 0.488393 3.42481
H 28.219 1.23287 4.80622
O 26.433 9.03885 44.0026
H 27.3199 8.71344 44.0983
H 26.4011 9.74049 43.3555
O 27.3337 10.2128 41.2887
H 26.9802 9.66378 40.6183
H 27.3308 11.0626 40.8769
O 29.5336 8.13541 6.59611
H 30.3313 8.19374 6.06769
H 28.9395 7.45873 6.32752
O 28.7589 2.61136 6.07226
H 29.6279 2.31078 6.12537
H 28.431 2.52324 6.96245
O 28.9391 5.4589 5.19502
H 28.7377 4.53512 5.47013
H 29.1415 5.33331 4.31554
O 26.4813 42.1542 45.173
H 25.6395 41.7342 0.145628
H 26.7533 41.5046 44.4598
O 31.2606 1.4917 7.2042
H 32.1718 1.59254 6.95785
H 31.1685 0.534929 7.34833
O 25.3398 4.7629 9.15532
H 24.579 4.77054 8.58371
H 25.2783 5.67279 9.41369
O 25.0848 5.43401 1.95508
H 26.0123 5.47859 2.22716
H 24.9246 6.26698 1.56277
O 25.099 8.15273 1.17494
H 24.4245 8.66885 1.61127
H 25.1989 8.55142 0.346215
O 28.2885 43.8744 1.48596
H 27.436 43.6229 1.0941
H 28.9767 43.5795 0.790253
O 25.4177 38.9982 44.9956
H 24.7514 38.3999 44.5362
H 26.1602 38.4233 -0.21522
O 34.3487 30.8913 27.5547
H 34.9822 30.2684 27.2568
H 33.9561 30.3759 28.2516
O 28.1405 10.3871 7.58366
H 28.7451 9.77792 7.13085
H 28.2554 11.2606 7.26939
O 27.0918 2.50661 8.51817
H 26.5448 3.27186 8.65094
H 27.245 2.11082 9.35248
