192
Atoms. Timestep: 6200
O 1.4975 2.77675 6.90572
H 0.880834 2.63891 7.56796
H 1.48191 3.68367 6.59427
O 4.9273 2.34964 43.3755
H 4.22934 2.99259 43.3975
H 4.58478 1.63666 42.8046
O 6.06019 2.01212 1.39606
H 5.50987 1.40907 1.92754
H 5.78291 1.92142 0.461215
O 4.80046 4.74713 1.74243
H 5.61933 5.03412 2.14991
H 5.00998 3.83539 1.61464
O 1.10841 5.18288 5.67903
H 1.81064 5.31008 5.01825
H 0.338195 5.67742 5.20025
O 4.21005 6.55707 44.491
H 4.1973 5.89853 0.0493539
H 5.13037 6.78877 44.3514
O 3.28345 4.5595 42.9458
H 3.49534 5.45058 43.2475
H 2.37753 4.64982 42.9281
O 2.39511 5.75522 3.26546
H 3.18181 5.37226 2.75407
H 1.6871 5.75388 2.64229
O 4.43936 10.1412 44.1931
H 4.08634 10.1278 43.2971
H 4.14799 10.955 44.5133
O 6.59983 8.00591 44.132
H 7.44123 7.96646 44.5593
H 6.03137 8.63372 44.602
O 13.4036 35.6286 28.2227
H 12.5073 35.3773 28.3021
H 13.2944 36.5772 28.0909
O 1.19718 1.11867 4.73514
H 0.367122 0.707934 4.58101
H 1.18834 1.73413 5.47774
O 3.95609 0.367644 3.20932
H 3.65808 43.6863 3.67963
H 3.29451 1.01426 3.50227
O 15.8787 42.7044 6.52723
H 16.5441 42.5273 7.15447
H 16.0495 43.6285 6.40822
O 7.1028 5.59824 3.13115
H 7.02665 5.80476 4.03665
H 7.7724 4.91873 2.95512
O 46.5686 14.3554 0.880235
H 46.6325 15.1708 1.4315
H 45.9017 13.7708 1.46947
O 13.6188 43.6064 0.271193
H 13.7123 42.859 0.891926
H 14.3235 43.502 44.8163
O 10.2593 1.80778 42.4647
H 10.4619 1.58255 41.5343
H 9.31702 1.61783 42.5
O 15.5866 5.88382 4.09801
H 15.4048 6.74725 4.35272
H 14.7577 5.43732 4.27793
O 13.2161 4.10244 4.63844
H 12.3494 4.43832 4.87742
H 13.1699 3.80447 3.73013
O 7.61061 1.74597 5.48334
H 6.79228 1.35033 5.74542
H 8.25252 1.22823 5.92191
O 9.04049 1.18152 1.8127
H 9.60581 1.17898 1.0485
H 8.11489 1.13824 1.47561
O 15.8422 41.2491 3.77989
H 16.0048 41.7495 4.63608
H 16.7301 40.9872 3.57153
O 13.9973 1.91453 6.22971
H 13.6874 2.58923 5.60575
H 13.8868 2.28631 7.08917
O 8.77143 3.42031 3.37298
H 8.3787 2.69861 3.97284
H 8.92843 2.85444 2.61841
O 13.2821 2.93379 1.78406
H 14.1329 2.70792 1.29906
H 12.5498 2.35613 1.41025
O 11.3667 0.899248 0.0616662
H 11.3376 0.951981 44.2456
H 12.0787 0.296495 0.212966
O 14.1259 41.3342 1.67866
H 13.3555 40.7932 1.65159
H 14.5286 41.2391 2.54673
O 16.6818 1.10174 6.07651
H 17.2686 1.3618 5.35833
H 15.82 1.44924 5.8734
O 12.6852 43.6319 6.89542
H 13.5133 43.2715 7.12794
H 12.9826 0.357487 6.50964
O 10.675 4.90812 5.54732
H 10.3727 4.77439 6.44312
H 10.0418 4.39535 5.02244
O 9.57987 43.7094 6.5535
H 10.5262 43.835 6.67095
H 9.34977 43.1868 7.31844
O 18.1725 2.14831 3.91163
H 18.422 3.07545 4.07825
H 18.816 1.79757 3.34786
O 17.7621 8.92735 0.720427
H 18.6053 8.79374 0.354295
H 17.6824 8.11395 1.27884
O 24.4529 7.09624 2.96758
H 24.1034 6.79471 2.12434
H 25.3805 7.36712 2.89199
O 23.3683 6.28738 5.62527
H 23.8196 6.76267 4.81271
H 23.2347 5.37914 5.36603
O 20.8235 0.555457 9.14677
H 20.6078 0.0608058 9.92651
H 21.764 0.437701 9.14339
O 20.3907 6.25078 5.6705
H 20.0168 5.92695 6.46299
H 21.3291 6.39086 5.79918
O 16.699 11.4882 0.914158
H 15.9161 11.1024 0.543289
H 17.2115 10.6954 1.17357
O 23.2977 43.4914 8.59029
H 24.2782 43.6206 8.83707
H 23.2185 43.4672 7.63907
O 19.6192 5.48085 8.35445
H 19.3995 4.57347 8.38114
H 18.9072 5.92954 8.77914
O 18.6075 4.95205 4.11701
H 17.8725 5.56473 4.23111
H 19.2819 5.40562 4.60073
O 18.0074 6.58898 1.93561
H 18.7545 6.07225 2.22106
H 17.2797 6.01955 1.99132
O 17.395 13.8172 2.08986
H 17.1846 13.1429 1.46089
H 16.8524 14.6104 2.01025
O 28.3897 42.7588 7.67569
H 28.3719 42.2271 6.82764
H 29.0781 42.31 8.15063
O 25.9953 44.0052 9.26043
H 26.3517 0.72045 9.54185
H 26.7429 43.5763 8.92339
O 24.4977 5.46921 8.82402
H 23.6334 5.80732 9.08099
H 24.4988 5.37461 7.85697
O 18.927 2.53831 8.19652
H 18.271 2.16328 7.66773
H 19.4481 1.81285 8.47915
O 28.466 41.5155 5.0542
H 27.7436 41.7285 4.36464
H 29.2498 41.7391 4.54092
O 23.2889 7.75212 42.268
H 22.6885 8.01414 41.6586
H 23.7823 8.57648 42.4555
O 24.0787 10.7451 42.7101
H 24.7413 10.9467 42.0175
H 23.7018 11.6616 42.8833
O 30.6751 7.54295 4.5196
H 30.4795 8.18194 5.20876
H 30.3135 6.66588 4.74757
O 30.2896 4.00118 7.71102
H 31.1372 3.49704 7.83656
H 29.7263 3.7235 8.43956
O 29.6414 5.1503 5.40822
H 29.7257 4.55593 6.16738
H 29.6654 4.42705 4.73464
O 25.3327 43.3582 0.563518
H 25.0818 42.7548 45.0118
H 25.7052 44.0709 0.0460624
O 32.6718 2.24612 7.784
H 32.8264 1.82519 6.95066
H 33.4158 1.99303 8.33802
O 26.6135 4.23753 10.1811
H 25.8763 4.49175 9.65308
H 27.0187 5.07683 10.5076
O 23.7747 6.1278 0.212125
H 22.8668 6.3783 0.0249069
H 23.9854 5.56405 44.6501
O 24.0131 5.02034 42.8515
H 24.789 4.70271 42.3861
H 23.8802 5.93387 42.4154
O 26.7902 41.9987 2.52576
H 26.3293 41.2676 2.00476
H 26.5459 42.7513 1.99662
O 24.0982 41.2479 44.6088
H 23.5271 41.8501 45.1239
H 23.6447 41.3184 43.6849
O 29.406 24.4923 36.7893
H 28.7627 25.2277 36.7535
H 29.9651 24.6492 35.9734
O 29.5729 9.56819 2.83974
H 29.9585 8.78373 3.21574
H 30.043 9.76124 1.99556
O 27.9134 1.80682 9.71835
H 27.6042 2.65513 10.0692
H 28.4224 1.36157 10.4841
