192
Atoms. Timestep: 3900
O 46.4459 43.5773 2.03594
H 45.7527 43.2941 2.54412
H 46.2376 0.392191 2.05439
O 5.26742 3.93361 44.2719
H 4.30889 3.88603 44.0923
H 5.64499 3.73365 43.4485
O 5.42972 3.17669 1.82024
H 5.11462 2.28127 1.82968
H 5.40612 3.61205 0.954372
O 3.96095 4.88095 3.38535
H 4.47912 4.92182 4.20609
H 4.48491 4.2623 2.78062
O -0.524219 2.39163 1.88468
H 0.107066 2.66212 2.56676
H 45.7624 2.99728 1.64351
O 2.93748 7.45792 2.73568
H 3.1887 6.5185 2.75679
H 3.44098 7.83385 3.50223
O 5.67234 3.12518 40.8745
H 4.98464 2.95767 40.2658
H 6.31263 3.65535 40.4049
O 0.983338 3.81897 3.74378
H 1.93381 3.93424 3.58959
H 0.979796 3.65834 4.67654
O 1.93854 9.08506 0.762812
H 2.38287 8.58387 1.49561
H 2.14037 8.51483 0.0510396
O 5.20798 8.34365 4.42188
H 5.85118 7.66691 4.51604
H 5.60501 9.06915 4.87708
O 26.9876 24.5786 34.7345
H 27.4813 23.7192 34.712
H 26.2924 24.3354 35.3035
O 2.21029 43.2807 1.46409
H 1.79799 42.5882 46.1262
H 1.38644 43.5233 1.90004
O 4.574 0.68632 1.8883
H 4.94811 44.102 2.36032
H 3.65451 0.356161 1.81365
O 14.2542 42.9775 8.37667
H 14.9064 42.6994 8.99781
H 14.7135 43.4573 7.63378
O 5.47638 5.67724 5.84623
H 5.68268 6.59693 6.04854
H 6.33007 5.20602 6.00512
O 42.2133 27.3341 30.4877
H 42.2375 28.3264 30.7516
H 42.8939 27.3136 29.7451
O 13.1372 0.566928 2.1535
H 12.8819 -0.202678 2.71413
H 13.8677 44.4861 1.59265
O 10.5958 5.42766 44.2634
H 10.38 4.65386 43.7131
H 10.695 6.14025 43.6314
O 16.0184 6.16572 6.1554
H 15.7091 6.95279 6.67837
H 15.2511 5.76936 5.76088
O 13.6106 4.56997 5.10579
H 12.8111 4.92126 5.50785
H 13.2618 4.21675 4.2611
O 7.97619 2.64928 8.43888
H 7.35937 2.03297 8.87474
H 8.84734 2.33737 8.7224
O 7.95093 4.08806 3.54051
H 8.80551 4.15235 3.06089
H 7.30484 3.58284 3.04348
O 13.4016 40.9351 5.4672
H 13.19 41.055 6.40443
H 14.1887 41.501 5.45036
O 14.7827 2.77704 7.02629
H 14.3368 3.37576 6.40722
H 15.5432 3.23785 7.3833
O 8.05937 4.11076 6.30448
H 7.82131 3.42514 6.94813
H 8.02283 3.79203 5.36326
O 12.8026 3.30945 2.58267
H 12.8513 2.36742 2.60253
H 12.0341 3.54993 2.10987
O 10.3095 4.84127 1.78507
H 10.1228 5.56163 2.42396
H 10.3159 5.31552 0.934572
O 11.9652 42.1446 3.32898
H 11.1579 41.6789 3.11631
H 12.3297 41.7953 4.239
O 15.149 44.2774 5.99506
H 16.0778 44.2529 5.65516
H 15.015 1.06623 6.17056
O 12.7469 1.42675 9.14006
H 12.9106 0.500641 8.83305
H 13.2913 1.9856 8.55444
O 10.9727 4.97502 6.15396
H 10.8047 5.05763 7.08732
H 10.1625 4.63951 5.76086
O 10.3016 2.07273 9.78179
H 11.1837 2.08607 9.34519
H 10.2182 2.7579 10.4354
O 17.7485 0.514611 5.0785
H 18.2232 1.27335 5.4256
H 17.7315 44.7148 4.10203
O 18.4861 6.12169 43.8361
H 19.0172 5.34535 43.9791
H 18.1206 6.27208 44.7231
O 23.3792 3.58805 2.90508
H 23.8935 4.33489 2.53418
H 23.8429 2.89295 2.47353
O 21.7967 2.8986 5.41453
H 22.2437 3.19066 4.65292
H 22.205 2.07258 5.59636
O 20.6427 44.3454 8.25349
H 20.2594 -0.49553 7.73858
H 21.395 44.62 7.69923
O 18.9225 2.96418 5.89705
H 19.1124 3.18631 6.80831
H 19.8625 2.83949 5.588
O 19.6909 7.81495 41.9622
H 18.8754 8.08537 41.513
H 19.445 7.13323 42.6117
O 22.9831 0.323854 6.11237
H 23.8 0.457289 6.65113
H 23.0966 -0.444607 5.55706
O 19.749 3.75171 8.32073
H 19.7958 2.98467 8.9905
H 19.0835 4.39697 8.67245
O 17.6725 4.93517 4.06939
H 17.3279 5.66477 4.60876
H 18.1062 4.28841 4.69475
O 17.8915 5.48148 1.44677
H 18.15 5.30033 2.34603
H 16.9681 5.23774 1.45705
O 20.7175 10.4239 42.4865
H 20.4291 9.66297 42.9348
H 21.4698 10.2284 41.9452
O 25.7802 43.0546 5.11968
H 26.6303 43.4345 4.76276
H 25.7124 42.2699 4.53554
O 25.2414 0.1843 7.55329
H 25.7435 0.888539 7.89773
H 25.7779 43.8881 6.88224
O 22.9004 4.85443 7.42268
H 21.9847 5.05736 7.71498
H 22.7182 4.08524 6.84553
O 19.9321 1.89716 10.2687
H 19.2911 1.65894 10.9113
H 20.0646 1.07646 9.7608
O 28.0003 0.372109 4.19071
H 27.9965 0.659277 3.26499
H 28.5624 0.98331 4.65923
O 26.6178 8.89771 44.2835
H 27.3635 8.53997 -1.29192
H 26.3997 9.54428 43.5972
O 27.3122 10.0343 41.6145
H 27.937 9.65331 41.0117
H 27.0829 10.835 41.1885
O 29.7324 8.29349 6.57361
H 30.4519 8.40871 5.94195
H 29.3207 7.62252 6.10296
O 29.0534 2.59635 6.07243
H 29.8665 2.28477 6.51201
H 28.2639 2.50485 6.72293
O 28.7952 5.68334 5.38686
H 29.0256 4.76514 5.73106
H 28.8987 5.65162 4.47921
O 26.8003 41.9794 45.0494
H 25.9096 41.9189 45.4066
H 27.1645 41.0209 44.9994
O 31.5002 1.49351 7.04283
H 32.3919 1.82246 6.97173
H 31.6237 0.642324 7.51906
O 25.364 4.6257 9.17576
H 24.5341 4.67729 8.70532
H 25.5971 5.47259 9.574
O 25.2164 5.31504 1.73125
H 26.1964 5.29493 1.82725
H 24.9895 6.29304 1.57288
O 24.9208 7.99458 1.12484
H 24.163 8.58231 1.04636
H 25.4685 8.10204 0.278761
O 28.3274 43.9541 1.61884
H 27.7967 43.8653 0.837965
H 28.7186 43.0622 1.77302
O 25.5249 39.1525 44.9996
H 24.7104 38.8443 44.5914
H 25.8263 38.4224 0.286831
O 34.6434 31.1192 27.1709
H 34.2663 30.3157 27.3515
H 33.8975 31.6574 27.0389
O 28.1748 10.32 7.77872
H 28.6305 9.66117 7.27613
H 28.2208 11.055 7.2292
O 26.9498 2.3687 8.4555
H 26.2996 3.10429 8.69412
H 27.3929 2.30279 9.26468
