192
Atoms. Timestep: 2900
O 1.21432 0.473171 45.214
H 0.778609 0.759913 44.4001
H 0.775556 0.821554 0.772044
O 5.23571 4.42521 44.5274
H 5.06858 5.29773 44.2238
H 5.42875 3.94202 43.7207
O 4.9426 3.40419 2.20836
H 5.23957 2.48979 2.0245
H 5.08802 3.88 1.40722
O 3.3028 4.60238 4.11281
H 3.77317 4.32144 4.98779
H 3.88613 4.18161 3.46365
O 46.6143 1.65409 2.01713
H 0.000785831 2.10518 2.82516
H 45.687 1.53386 2.19484
O 3.19569 7.77825 4.7552
H 3.22505 6.83485 4.63111
H 2.51753 7.9508 5.3531
O 5.89704 2.16431 42.7789
H 5.43183 1.35128 42.7779
H 6.44008 2.18824 41.968
O 0.587327 3.09064 4.31222
H 1.47308 3.30202 4.34834
H 47.0265 3.90824 4.36162
O 2.32999 8.48715 2.15999
H 2.53081 8.14152 3.02892
H 1.54092 7.99061 1.93927
O 1.24457 9.73055 6.04404
H 47.504 9.80982 6.74237
H 1.70511 10.5656 6.21429
O 32.9237 19.6358 37.6806
H 33.7648 20.0133 37.4427
H 33.0042 18.7754 37.2989
O 3.82575 43.6753 0.281063
H 3.82715 43.2524 -0.560979
H 3.00245 0.0382571 0.288594
O 5.94165 1.10929 1.28104
H 6.28572 1.52577 0.448602
H 5.32805 0.508341 0.836245
O 13.2873 43.0498 8.68242
H 12.9824 42.3523 9.27986
H 14.2122 43.2568 8.92246
O 4.54157 4.54545 6.84121
H 5.00518 3.80733 7.27274
H 5.11098 5.30532 7.06147
O 40.7655 33.0015 23.6299
H 39.9061 33.3761 23.5331
H 40.6842 32.6074 24.5092
O 9.67511 0.679599 2.93555
H 9.09721 0.336328 2.24297
H 10.5435 0.263885 2.9454
O 9.38924 6.37452 43.4191
H 8.87924 6.44636 42.6174
H 10.1242 6.8625 43.0624
O 14.8421 4.68907 5.97164
H 14.8824 5.60215 5.97958
H 14.0215 4.43503 5.48289
O 11.8967 4.19762 5.13238
H 11.159 4.86713 5.42822
H 11.5359 3.80408 4.35686
O 9.79448 2.56227 7.05802
H 9.58012 2.14104 6.21708
H 9.42163 2.07937 7.80841
O 6.96779 4.17216 4.28604
H 7.8162 4.09669 3.85729
H 6.37274 3.87242 3.62353
O 13.5137 42.8908 5.70285
H 13.0896 42.8541 6.5748
H 14.1164 43.6051 5.95485
O 13.2873 2.58626 7.89894
H 12.51 2.85659 7.38846
H 13.9131 3.32603 7.83482
O 7.62132 4.43483 6.75725
H 8.18031 3.72292 6.97647
H 7.33444 4.22494 5.8999
O 9.79867 3.53062 3.30465
H 9.54802 2.58621 3.07494
H 9.88032 4.01048 2.53682
O 10.1368 5.47249 1.30973
H 10.9589 5.89274 1.46315
H 9.90391 5.66256 45.561
O 12.2085 43.58 3.40596
H 12.8962 43.2142 2.82025
H 12.5588 43.2891 4.27325
O 15.1652 0.264643 7.35548
H 16.0965 0.571532 7.17813
H 14.5461 1.00385 7.57818
O 11.8823 1.41857 10.5809
H 12.2908 0.759436 10.0143
H 11.9795 2.2292 10.137
O 9.99812 5.96382 6.17294
H 10.3365 5.61302 6.98359
H 9.13658 5.58188 6.15986
O 8.92248 1.85726 9.57134
H 9.58871 1.6711 10.2215
H 8.1088 1.5118 9.95253
O 17.9757 0.81851 6.90231
H 18.3089 1.44249 6.26176
H 18.6952 0.224626 6.94591
O 20.2398 4.88135 -0.111899
H 20.9246 4.85181 0.621031
H 19.3817 5.1543 0.297824
O 22.1128 4.77575 2.16289
H 22.8227 4.44924 1.5557
H 22.4187 5.65035 2.2661
O 21.9046 2.63601 4.91764
H 22.1031 2.99442 3.99859
H 22.3718 1.7842 5.02692
O 20.8855 43.5537 6.80517
H 21.719 43.6269 6.30275
H 20.9246 42.6206 7.0846
O 19.2724 3.34961 5.56851
H 19.4392 3.59155 6.49232
H 20.1384 3.16967 5.21258
O 20.0494 6.43414 42.4536
H 19.1538 6.66999 42.7371
H 20.2381 5.81064 43.1723
O 23.3373 0.414127 5.48745
H 23.9921 0.428111 6.20734
H 23.8355 44.1411 4.74089
O 20.6205 3.63281 8.2203
H 20.8656 2.69209 8.49231
H 20.5585 4.08618 9.07371
O 17.2912 4.41466 4.07375
H 16.5296 4.39498 4.64112
H 18.0662 4.24361 4.6226
O 17.8569 5.56899 1.5839
H 17.1265 5.02263 1.31762
H 18.0284 5.27699 2.47537
O 21.1226 7.83115 40.0232
H 20.6312 7.36407 40.7053
H 21.4601 8.6438 40.3765
O 25.1009 43.573 3.45375
H 25.8915 44.0997 3.46389
H 24.805 43.5768 2.54914
O 24.9581 0.554406 7.77076
H 25.563 1.33798 7.97972
H 24.5728 0.232221 8.52681
O 22.8471 4.51514 6.84076
H 22.0718 4.35027 7.47143
H 22.6461 3.80994 6.19379
O 21.1054 1.06676 9.21418
H 20.3539 0.873725 9.86602
H 21.03 0.438262 8.47921
O 27.3235 0.740201 3.7531
H 28.1628 0.482093 3.29733
H 27.5021 1.14917 4.62341
O 27.7001 8.33111 1.2524
H 28.3754 7.85517 1.85681
H 28.2033 8.53375 0.445922
O 28.486 9.367 43.7758
H 28.7162 9.10967 42.8983
H 29.0285 10.1295 43.9809
O 29.987 7.1594 7.50327
H 30.738 6.90766 6.93573
H 29.2229 6.77339 7.03786
O 28.4322 2.59673 6.33713
H 29.3815 2.48495 6.41263
H 28.1326 2.49228 7.24812
O 27.9172 5.20082 5.94277
H 27.8872 4.22981 6.05645
H 27.8686 5.47222 5.05626
O 29.832 41.7412 0.35521
H 28.9231 41.6274 0.0363652
H 30.361 41.0658 0.0586091
O 31.373 2.29604 6.24497
H 31.963 2.71097 5.62544
H 31.8978 1.52632 6.48176
O 25.4886 5.207 8.19099
H 24.7042 4.98591 7.65697
H 26.1096 5.61991 7.60377
O 23.9891 4.18789 0.347449
H 23.7401 4.38641 -0.56461
H 24.7572 4.77354 0.505483
O 25.8376 6.37041 45.4129
H 25.5486 6.89106 44.6347
H 26.4291 6.81844 45.9998
O 29.6977 43.8886 2.14014
H 30.5548 -0.146915 2.62661
H 29.8087 43.0495 1.65949
O 26.8032 40.4152 44.4734
H 25.9984 40.4387 45.0239
H 26.4641 40.7038 43.6314
O 36.4918 34.1163 22.9126
H 36.7116 34.7962 22.317
H 36.6921 33.3555 22.465
O 29.7702 9.87293 9.0094
H 29.8881 9.04331 8.43295
H 28.8457 9.97564 9.07336
O 26.5087 2.6091 8.86823
H 26.228 3.58042 8.65224
H 26.6353 2.52765 9.85514
