192
Atoms. Timestep: 7950
O 3.37336 3.29071 6.49317
H 3.80403 3.76701 7.25461
H 3.01889 3.96407 5.90553
O 4.47788 1.03378 43.6107
H 4.01176 1.71237 43.079
H 5.15636 0.649371 43.0067
O 5.72686 2.42155 0.631771
H 5.77917 1.98081 1.53651
H 5.45708 1.76304 -0.0198908
O 5.50601 5.72116 0.938831
H 6.00826 6.23038 0.288783
H 5.83795 4.8284 0.750856
O 2.6911 5.07398 4.61689
H 3.46468 5.63317 4.40418
H 1.9019 5.65676 4.50243
O 3.47695 5.99279 43.1451
H 3.55523 5.98182 44.0794
H 4.01618 6.61392 42.692
O 2.56048 2.80888 42.3153
H 2.83319 3.79246 42.2927
H 1.67304 2.87327 42.607
O 4.85501 6.57276 3.70014
H 5.71186 7.00868 4.05257
H 5.20035 6.32954 2.83373
O 7.40699 8.37938 42.6232
H 8.08408 8.96365 42.2312
H 7.63868 8.43184 43.61
O 4.76696 7.8405 41.5102
H 5.61268 8.12332 41.7687
H 4.8387 7.58126 40.624
O 2.83972 0.22116 23.177
H 3.30365 43.6643 22.6438
H 2.14668 43.8175 23.5398
O 4.59187 1.23896 5.49811
H 3.89104 0.656178 5.68699
H 4.09075 2.10072 5.57791
O 6.1502 1.02767 3.05758
H 7.08845 1.26014 3.19315
H 5.61148 1.03919 3.82149
O 17.917 42.4269 1.8784
H 18.8552 42.354 1.87801
H 17.79 43.2085 2.48781
O 8.11744 7.30776 3.02527
H 8.90828 7.73803 2.68081
H 8.4517 6.46403 3.30423
O 2.86765 5.91416 13.4661
H 2.83643 5.05266 13.7507
H 3.77041 6.05282 13.4282
O 11.1174 41.8883 1.79183
H 12.0585 41.7256 1.79465
H 10.8234 41.6186 2.65426
O 10.8688 43.4415 43.0802
H 10.0998 43.1573 42.6276
H 11.5339 43.667 42.4482
O 15.3739 6.24016 3.88246
H 14.885 6.36819 4.71876
H 14.9565 5.41783 3.56353
O 14.406 3.02029 3.69218
H 13.5775 3.34495 4.08849
H 14.1565 2.79057 2.81389
O 10.7141 2.86663 6.34326
H 10.1511 3.31536 6.95254
H 10.9991 2.02947 6.7878
O 8.59733 2.13328 1.43234
H 9.21139 1.66977 0.882214
H 7.80741 2.30038 0.912487
O 15.8619 41.7841 0.048853
H 16.634 42.0051 0.602781
H 16.1947 41.304 44.5183
O 15.3245 1.05339 5.47062
H 14.9533 1.44728 4.65178
H 15.5496 1.8473 5.9693
O 9.40667 4.12209 3.43125
H 9.22031 3.42234 3.99211
H 9.06797 3.852 2.55799
O 13.1159 2.37903 1.10702
H 13.4487 2.82605 0.314484
H 12.4606 1.74353 0.86206
O 10.8992 0.36753 0.783383
H 10.8979 44.0289 45.0961
H 10.8861 43.7048 1.30822
O 13.6841 40.61 1.79377
H 14.0834 39.9722 2.3502
H 14.4783 40.931 1.36447
O 17.6305 0.414478 3.39791
H 17.7755 1.3694 3.29316
H 16.9359 0.383784 4.06465
O 14.1148 42.8183 6.94408
H 14.736 42.1351 7.1408
H 14.5291 43.4999 6.44997
O 12.0928 4.401 4.64395
H 11.6733 3.83968 5.33772
H 11.4339 4.42183 3.99093
O 11.6761 0.403572 7.57272
H 11.9685 43.7489 7.11321
H 12.3135 0.433592 8.29109
O 18.19 3.26127 3.11216
H 18.0854 3.97876 3.76971
H 18.0136 3.77935 2.27706
O 16.5415 11.5675 4.06947
H 15.8733 11.3362 4.66421
H 16.6899 10.6839 3.61497
O 21.378 5.68266 3.24843
H 21.6454 5.12089 2.48832
H 20.7322 5.14177 3.75564
O 21.6128 7.45137 5.3455
H 21.6496 8.36522 4.95893
H 21.7256 6.76557 4.62327
O 20.7099 44.0186 8.95299
H 19.9869 43.5946 9.43144
H 21.4513 43.8942 9.56578
O 19.2098 6.1642 7.03832
H 19.406 5.54587 7.79496
H 19.9782 6.49947 6.54776
O 16.4776 13.9535 2.76575
H 16.4326 13.0141 3.08829
H 17.3435 14.1573 2.39143
O 23.0662 43.9697 10.4285
H 23.6539 0.339468 9.83535
H 23.2535 0.0812346 11.3446
O 19.7381 4.1733 8.72795
H 20.0915 3.45069 8.1322
H 19.0027 3.69925 9.11228
O 18.0855 5.51326 4.82836
H 17.4452 6.07834 4.45762
H 18.4176 5.78018 5.71601
O 16.1934 9.22668 2.58579
H 15.7955 9.25958 1.71966
H 15.9147 8.38883 2.93582
O 14.7646 15.4232 4.19484
H 15.3774 14.8893 3.64654
H 14.2224 15.8454 3.5344
O 26.4467 42.7382 8.063
H 26.7067 42.3441 7.23832
H 25.6156 42.286 8.3212
O 25.0981 0.98923 8.80411
H 25.3187 1.85784 8.43162
H 25.766 0.400758 8.47726
O 23.3353 6.66704 7.64621
H 22.804 6.13971 8.22048
H 22.7779 7.20451 6.9854
O 20.9422 2.27318 7.19129
H 20.8343 1.92779 6.30929
H 20.8783 1.46994 7.8019
O 27.6594 41.1994 5.6703
H 27.3732 40.987 4.74051
H 28.5682 40.9874 5.80128
O 22.415 7.65769 41.6461
H 21.605 7.27614 41.4923
H 22.3319 8.50426 41.2421
O 21.4051 10.0322 39.8255
H 20.7032 10.1034 39.1469
H 21.942 10.7694 39.5229
O 33.3447 5.95394 2.9881
H 32.7605 5.5919 3.64642
H 33.4844 5.11408 2.57391
O 29.8746 3.96188 7.1447
H 30.1726 3.65799 8.03354
H 28.9213 3.99395 7.23374
O 31.4098 5.37936 5.20721
H 31.1103 4.97969 6.01391
H 31.5693 6.19926 5.50416
O 26.0516 40.8169 0.465562
H 26.0065 40.9452 44.7452
H 25.8477 41.7657 0.842378
O 31.2856 2.65307 9.33248
H 30.6771 2.44796 10.02
H 32.1735 2.6776 9.72806
O 25.5571 5.63902 6.22614
H 24.747 5.747 6.7415
H 25.2422 5.62052 5.3155
O 22.2662 4.94233 0.653286
H 22.134 4.20135 0.0487409
H 22.7676 5.57259 0.139978
O 23.3692 7.11969 44.4483
H 24.2913 7.29629 44.2486
H 22.8803 7.21362 43.6076
O 27.4965 40.6643 3.00739
H 26.7579 40.2059 2.54737
H 27.7999 41.2334 2.31551
O 26.1401 44.0678 1.44832
H 26.4327 0.283016 0.606826
H 26.884 0.247397 1.97693
O 25.4312 19.4958 44.0666
H 25.6974 18.8216 44.6905
H 24.6695 19.8315 44.5228
O 34.9959 8.28741 1.99673
H 34.3875 7.56024 2.24729
H 35.4054 8.68294 2.7738
O 26.9885 3.73381 7.85962
H 26.537 4.08797 7.10451
H 26.7846 4.46847 8.52371
