192
Atoms. Timestep: 0
O 1.37 1.8 3.37
H 0.46 1.45 3.4
H 1.77 1.46 4.15
O 5.3 4.59 1.08
H 4.4 4.86 1.07
H 5.26 3.61 1.07
O 6.48 5.45 3.37
H 7.4 5.14 3.34
H 6.09 5.12 2.58
O 5.23 4.46 5.64
H 5.71 4.81 6.37
H 5.69 4.8 4.86
O 2.55 0.88 5.65
H 3.47 1.17 5.65
H 2.6 44.061 5.64
O 2.59 5.55 5.7
H 3.49 5.19 5.67
H 2.18 5.22 4.91
O 5.3 1.78 1.11
H 4.38 1.44 1.08
H 5.69 1.46 0.33
O 5.25 1.71 5.6
H 5.27 2.69 5.63
H 5.68 1.44 6.38
O 1.31 4.56 7.95
H 1.77 4.87 7.14
H 1.34 3.62 7.89
O 1.34 4.62 3.41
H 1.8 4.89 2.61
H 1.35 3.66 3.39
O 2.73 5.46 1.1
H 2.66 6.4 1.08
H 2.24 5.16 0.31
O 2.62 0.79 1.08
H 2.16 1.15 0.33
H 2.15 1.14 1.85
O 6.59 0.78 3.41
H 6.12 1.12 2.64
H 6.12 1.13 4.15
O 6.51 0.88 7.78
H 6.08 1.14 8.6
H 6.52 44.051 7.82
O 6.55 5.48 7.77
H 7.44 5.16 7.83
H 6.13 5.15 8.58
O 1.39 1.9 7.87
H 0.47 1.54 7.86
H 1.79 1.53 7.12
O 9.13 1.83 3.42
H 8.25 1.47 3.39
H 9.56 1.48 2.64
O 13 4.49 1.08
H 13.48 4.82 0.33
H 13.49 4.82 1.84
O 14.41 5.39 3.3
H 14.37 6.35 3.34
H 13.94 5.1 4.08
O 13.06 4.46 5.53
H 13.5 4.8 6.33
H 12.19 4.81 5.57
O 10.47 0.81 5.63
H 10 1.15 4.87
H 10.01 1.17 6.39
O 10.52 5.43 5.63
H 10.05 5.15 4.85
H 10.47 6.38 5.62
O 13.03 1.75 1.11
H 13.06 2.71 1.13
H 13.48 1.48 1.89
O 13.06 1.71 5.61
H 12.14 1.44 5.62
H 13.03 2.67 5.6
O 9.17 4.63 7.9
H 9.17 3.68 7.88
H 9.62 4.9 7.1
O 9.14 4.62 3.41
H 9.13 3.66 3.39
H 9.61 4.88 2.62
O 10.5 5.45 1.14
H 10.06 5.12 0.33
H 11.38 5.11 1.08
O 10.43 0.91 1.16
H 10.48 44.071 1.15
H 11.34 1.19 1.16
O 14.29 0.81 3.3
H 15.19 1.15 3.34
H 13.87 1.14 4.08
O 14.32 0.78 7.92
H 15.2 1.14 7.88
H 13.89 1.12 7.13
O 14.44 5.39 7.83
H 14.38 6.33 7.85
H 13.98 5.1 8.62
O 9.17 1.9 7.85
H 9.58 1.55 8.62
H 8.27 1.53 7.86
O 16.96 1.74 3.33
H 16.97 2.7 3.36
H 17.42 1.47 4.12
O 20.87 4.43 1.1
H 21.3 4.8 1.89
H 20 4.79 1.12
O 22.11 5.43 3.38
H 23.04 5.15 3.36
H 22.15 6.37 3.37
O 20.88 4.59 5.62
H 21.33 4.86 4.84
H 20.91 3.62 5.6
O 18.24 0.94 5.63
H 19.16 1.2 5.64
H 18.26 44.101 5.61
O 18.27 5.51 5.56
H 17.87 5.17 6.35
H 19.18 5.16 5.59
O 20.88 1.69 1.02
H 21.31 1.41 1.84
H 20.87 2.64 1.08
O 20.86 1.8 5.65
H 21.35 1.46 6.4
H 21.32 1.45 4.89
O 17.07 4.62 7.82
H 17.02 3.65 7.84
H 16.16 4.9 7.84
O 17 4.51 3.32
H 16.11 4.84 3.36
H 17.42 4.86 4.11
O 18.36 5.4 1.05
H 18.33 6.35 1.08
H 17.89 5.11 1.84
O 18.27 0.85 1.03
H 19.17 1.17 1.08
H 17.86 1.18 1.84
O 22.07 0.88 3.38
H 22.99 1.16 3.39
H 22.12 44.041 3.37
O 22.19 0.83 7.86
H 23.06 1.19 7.89
H 21.76 1.17 8.66
O 22.23 5.48 7.87
H 21.77 5.12 8.62
H 21.76 5.15 7.11
O 16.87 1.85 7.87
H 17.35 1.52 8.64
H 17.35 1.53 7.13
O 24.72 1.81 3.41
H 25.2 1.48 2.64
H 25.22 1.49 4.16
O 28.64 4.53 1.13
H 29.11 4.81 0.32
H 28.68 3.59 1.11
O 30.05 5.41 3.4
H 29.61 5.07 2.59
H 30.92 5.08 3.35
O 28.73 4.51 5.68
H 29.16 4.82 4.88
H 27.83 4.84 5.61
O 26.08 0.88 5.62
H 26.96 1.19 5.67
H 25.65 1.23 6.42
O 26.11 5.39 5.6
H 25.68 5.13 4.82
H 26.08 6.37 5.59
O 28.68 1.84 1.11
H 29.13 1.47 1.85
H 29.16 1.48 0.34
O 28.62 1.69 5.71
H 28.66 2.65 5.67
H 29.07 1.41 4.91
O 24.84 4.51 7.92
H 23.94 4.83 7.89
H 25.25 4.83 7.12
O 24.82 4.59 3.36
H 24.83 3.63 3.33
H 25.27 4.85 2.56
O 26.09 5.53 1.11
H 25.66 5.19 0.32
H 26.97 5.16 1.08
O 25.99 0.92 1.08
H 26.03 44.101 1.09
H 26.92 1.21 1.09
O 29.89 0.84 3.35
H 29.96 44.031 3.35
H 30.82 1.15 3.36
O 29.94 0.84 7.9
H 29.52 1.16 7.12
H 30.84 1.2 7.85
O 30.02 5.36 7.89
H 29.56 5.11 7.11
H 29.98 6.35 7.88
O 24.74 1.81 7.84
H 24.78 2.74 7.88
H 25.22 1.51 8.64
192
Atoms. Timestep: 50
O 1.3249 1.77436 3.35086
H 0.379795 1.55891 3.52993
H 1.8279 1.48101 4.16551
O 5.36816 4.57896 1.0703
H 4.46313 4.85328 1.06678
H 5.36465 3.59629 1.07519
O 6.45216 5.44967 3.41913
H 7.40468 5.21519 3.40775
H 6.05806 5.15365 2.5359
O 5.25749 4.44927 5.60379
H 5.73932 4.82978 6.41887
H 5.70851 4.81778 4.77759
O 2.61523 0.834956 5.60987
H 3.57486 1.21819 5.63948
H 2.70974 44.015 5.65389
O 2.59003 5.56595 5.69736
H 3.50459 5.20921 5.65019
H 2.13015 5.26789 4.88985
O 5.25076 1.74348 1.07502
H 4.32259 1.40224 1.03848
H 5.70276 1.3791 0.348762
O 5.15611 1.76929 5.56655
H 5.17094 2.775 5.51118
H 5.7323 1.55828 6.29816
O 1.29222 4.64352 7.97662
H 1.72706 5.05095 7.19904
H 1.41457 3.68964 7.95508
O 1.31776 4.6311 3.43685
H 1.8066 4.88261 2.64713
H 1.3078 3.66065 3.44588
O 2.65849 5.51188 1.04294
H 2.74145 6.45217 1.08743
H 2.18206 5.32389 0.207219
O 2.67904 0.818652 1.05342
H 2.04167 0.863348 0.347974
H 2.18005 1.06734 1.85695
O 6.64718 0.778421 3.39827
H 6.16347 1.071 2.59905
H 6.10678 1.09086 4.15972
O 6.53746 0.828636 7.8844
H 5.94126 1.05002 8.61378
H 6.48215 43.9999 7.78113
O 6.55605 5.46392 7.77226
H 7.54451 5.20742 7.83881
H 6.19634 5.45187 8.68272
O 1.35931 1.82689 7.92938
H 0.40735 1.51392 7.97025
H 1.71747 1.47746 7.11125
O 9.12119 1.83012 3.38959
H 8.16236 1.44947 3.3932
H 9.58562 1.47341 2.56399
O 13.062 4.53493 1.05478
H 13.6168 4.72424 0.303188
H 13.5618 4.8437 1.86166
O 14.3691 5.41489 3.31284
H 14.3783 6.37197 3.45069
H 13.8869 5.02645 4.13193
O 13.0766 4.49638 5.50109
H 13.5221 4.68056 6.35124
H 12.1328 4.86149 5.56484
O 10.5053 0.811588 5.6051
H 10.0295 1.11199 4.78889
H 10.0198 1.18712 6.34649
O 10.5195 5.46161 5.57988
H 9.99497 5.07326 4.76224
H 10.3887 6.40849 5.52029
O 12.9926 1.6826 1.10215
H 13.0672 2.6519 1.13636
H 13.5005 1.31539 1.93313
O 13.0273 1.68847 5.59718
H 12.0693 1.3369 5.57896
H 12.9762 2.66319 5.51158
O 9.12568 4.66686 7.92676
H 9.18116 3.7024 7.95258
H 9.66975 4.94437 7.17257
O 9.19265 4.60515 3.41028
H 9.1479 3.60075 3.38966
H 9.65104 4.88844 2.55676
O 10.4202 5.44829 1.16664
H 10.0171 5.28893 0.280704
H 11.3423 5.12235 1.0934
O 10.4271 0.914005 1.18574
H 10.5234 44.0882 1.0206
H 11.3865 1.28407 1.15851
O 14.2898 0.807974 3.27334
H 15.2388 1.05988 3.32825
H 13.8659 1.0634 4.1331
O 14.2778 0.743803 7.9575
H 15.1344 1.16974 7.90269
H 13.7995 1.00188 7.15784
O 14.3559 5.43836 7.85913
H 14.3955 6.3795 7.97955
H 14.0522 5.07642 8.70364
O 9.18011 1.8614 7.89278
H 9.59893 1.50704 8.65627
H 8.26049 1.54306 7.9161
O 16.9295 1.76863 3.34155
H 16.9657 2.75951 3.29171
H 17.4057 1.54171 4.1514
O 20.8868 4.4142 1.05977
H 21.2656 4.74354 1.89872
H 19.9543 4.75634 1.00095
O 22.1772 5.46649 3.38193
H 23.1309 5.15228 3.35707
H 22.1995 6.40706 3.3363
O 20.8861 4.55725 5.6498
H 21.3468 4.83161 4.81232
H 20.8506 3.57046 5.642
O 18.2753 0.913185 5.66929
H 19.2456 1.26254 5.65007
H 18.3303 44.0886 5.48435
O 18.2174 5.49589 5.50421
H 17.8088 5.21525 6.38223
H 19.1738 5.26982 5.54008
O 20.8773 1.70676 0.977376
H 21.2947 1.47077 1.82537
H 20.8929 2.70738 0.928675
O 20.8407 1.78 5.67479
H 21.344 1.45712 6.49762
H 21.3396 1.4674 4.86843
O 17.1274 4.62545 7.82452
H 17.1253 3.64467 7.8623
H 16.2104 4.89261 7.83891
O 17.0539 4.53204 3.35549
H 16.1193 4.80223 3.41004
H 17.5308 4.87393 4.205
O 18.3384 5.42224 1.04704
H 18.2127 6.36752 1.05786
H 17.8273 5.08276 1.82995
O 18.2672 0.807769 0.988118
H 19.1913 1.13141 0.971544
H 17.8298 1.14838 1.7835
O 22.1353 0.856483 3.42903
H 23.0861 1.20131 3.40338
H 22.1884 44.0241 3.29449
O 22.147 0.847726 7.82985
H 23.1032 1.13979 7.86898
H 21.8157 0.941179 8.74564
O 22.2555 5.46678 7.89183
H 21.6211 5.41579 8.60552
H 21.749 5.20778 7.06855
O 16.9404 1.85023 7.89317
H 17.3607 1.41532 8.66153
H 17.4019 1.47856 7.08011
O 24.7254 1.79525 3.41508
H 25.1953 1.44672 2.61942
H 25.2342 1.47164 4.25238
O 28.6792 4.55748 1.10142
H 29.13 4.84556 0.267524
H 28.6656 3.54408 1.06775
O 30.0454 5.39048 3.44083
H 29.6346 5.18416 2.56787
H 30.9654 5.38619 3.3109
O 28.7226 4.47444 5.6084
H 29.2058 4.84216 4.81709
H 27.7893 4.82172 5.60184
O 26.0086 0.873669 5.53752
H 26.9615 1.149 5.64493
H 25.5403 1.13764 6.35846
O 26.1112 5.42636 5.58375
H 25.6144 5.05147 4.73054
H 26.0601 6.41258 5.49957
O 28.6906 1.81773 1.06163
H 29.1171 1.47268 1.87517
H 29.187 1.4035 0.315547
O 28.6262 1.76422 5.69008
H 28.6296 2.77059 5.69668
H 29.0146 1.50589 4.8487
O 24.8141 4.45008 7.93481
H 23.9188 4.8746 7.95417
H 25.3082 4.82722 7.18185
O 24.8032 4.5965 3.34632
H 24.7803 3.59008 3.35347
H 25.2658 4.88978 2.48237
O 26.0267 5.50607 1.14185
H 25.6726 5.45449 0.244152
H 26.9748 5.23593 1.07507
O 25.9652 0.909267 1.12741
H 25.9026 44.1538 0.795435
H 26.8914 1.1791 0.998744
O 29.9566 0.801065 3.32425
H 29.8788 43.9965 3.48784
H 30.9007 1.02263 3.51226
O 29.983 0.796613 7.96274
H 29.5432 1.1629 7.19463
H 30.8268 1.28591 8.01102
O 30.0581 5.38456 7.94993
H 29.5721 5.11835 7.16488
H 30.0147 6.38316 7.93978
O 24.7513 1.85618 7.89685
H 24.7063 2.88742 7.85285
H 25.3355 1.66424 8.66615
192
Atoms. Timestep: 100
O 1.21434 1.70747 3.3447
H 0.279619 1.48324 3.54084
H 1.75557 1.37736 4.08865
O 5.51702 4.54303 1.05919
H 4.6511 4.86141 0.854703
H 5.51013 3.58323 0.98614
O 6.42241 5.46708 3.51024
H 7.35107 5.24556 3.47776
H 6.02076 5.1472 2.66908
O 5.29891 4.42848 5.54476
H 5.69154 4.85164 6.32903
H 5.7264 4.84324 4.75089
O 2.72639 0.713053 5.52489
H 3.54498 1.21654 5.47959
H 2.96915 43.924 5.50091
O 2.58732 5.62477 5.70511
H 3.49879 5.30096 5.65696
H 2.12178 5.3134 4.88278
O 5.19614 1.65319 0.981751
H 4.25021 1.41075 0.983611
H 5.57977 1.266 0.219718
O 5.01891 1.92523 5.50919
H 5.12116 2.97434 5.48015
H 5.49332 1.64823 6.32845
O 1.25099 4.83156 8.06044
H 1.72021 5.09372 7.25756
H 1.22618 3.85893 8.12407
O 1.26555 4.65557 3.4902
H 1.52772 5.0128 2.63866
H 1.31501 3.6885 3.42575
O 2.52075 5.66137 0.889512
H 2.70201 6.57287 1.084
H 1.98925 5.66537 0.0660512
O 2.74765 0.847909 1.00061
H 2.27985 0.301118 0.384037
H 2.10854 1.13228 1.67091
O 6.73277 0.772199 3.35867
H 6.22748 0.943801 2.55042
H 6.20024 1.16786 4.1089
O 6.54363 0.702047 8.09275
H 5.91111 0.834418 8.81681
H 6.56412 43.8835 7.88654
O 6.55778 5.45093 7.77369
H 7.45555 5.20576 7.87076
H 6.3053 6.00615 8.52633
O 1.29286 1.68832 8.0775
H 0.312512 1.39484 8.09713
H 1.65965 1.29477 7.25299
O 9.1186 1.82749 3.32178
H 8.24345 1.48318 3.32059
H 9.57098 1.47822 2.53604
O 13.1978 4.61931 0.977208
H 13.8386 4.78232 0.289177
H 13.5932 4.91325 1.81852
O 14.3088 5.48372 3.36602
H 14.3238 6.43301 3.49288
H 13.8848 5.09541 4.1185
O 13.0811 4.57235 5.45955
H 13.4721 4.89289 6.27055
H 12.1402 4.83641 5.44315
O 10.5421 0.811177 5.52023
H 10.0328 1.15859 4.76847
H 10.0612 1.06717 6.31368
O 10.5092 5.53966 5.46645
H 10.0105 5.08805 4.66073
H 10.3644 6.47671 5.33414
O 12.9235 1.53836 1.09194
H 13.0129 2.48382 1.02079
H 13.4389 1.23255 1.81394
O 12.9633 1.62208 5.54784
H 12.0607 1.32974 5.51404
H 12.9895 2.5918 5.60285
O 9.08108 4.74914 8.00465
H 9.19283 3.77677 8.04321
H 9.49765 5.01394 7.15958
O 9.2809 4.53089 3.42033
H 9.23968 3.55588 3.40057
H 9.62938 4.82368 2.56063
O 10.2907 5.45885 1.19112
H 9.79434 5.59498 0.349445
H 11.2141 5.22388 0.968511
O 10.4149 0.927869 1.22188
H 10.3744 44.142 0.898245
H 11.3783 1.17762 1.19996
O 14.2946 0.764543 3.21672
H 15.1732 1.16955 3.28218
H 13.8199 1.00233 4.04006
O 14.1771 0.655283 8.06137
H 15.0565 1.04046 8.00056
H 13.7026 0.945025 7.26558
O 14.1968 5.54462 7.98039
H 14.1736 6.5011 8.11543
H 13.8654 5.13112 8.80724
O 9.20931 1.77509 8.01607
H 9.75334 1.42877 8.70536
H 8.30413 1.42778 8.11165
O 16.8741 1.85322 3.37394
H 17.0124 2.83156 3.37445
H 17.3591 1.52539 4.15773
O 20.9111 4.41567 0.950535
H 21.4229 4.75981 1.68321
H 20.0137 4.83223 0.936901
O 22.3136 5.54204 3.38734
H 23.1966 5.16814 3.37693
H 22.3938 6.47769 3.32911
O 20.8916 4.50133 5.70314
H 21.397 4.87466 4.91883
H 20.8675 3.55366 5.59935
O 18.3723 0.844506 5.72689
H 19.2605 1.19822 5.66613
H 18.3865 44.0425 5.47466
O 18.134 5.49359 5.42476
H 17.7741 5.20486 6.2825
H 19.0536 5.24389 5.44789
O 20.8804 1.72864 0.876177
H 21.3483 1.43069 1.6622
H 20.8748 2.69923 0.908575
O 20.8013 1.73911 5.72268
H 21.2318 1.46726 6.52064
H 21.3073 1.40829 4.95822
O 17.2565 4.65148 7.82977
H 17.3247 3.70894 7.98139
H 16.3233 4.85306 7.88571
O 17.1329 4.56439 3.3922
H 16.2037 4.89008 3.37073
H 17.5812 4.92427 4.27726
O 18.275 5.47069 1.02999
H 18.0611 6.39426 0.970061
H 17.893 5.16989 1.87554
O 18.2609 0.682716 0.8699
H 19.1791 1.0308 0.845384
H 17.7683 1.04588 1.61777
O 22.2936 0.817201 3.53277
H 23.1759 1.22346 3.48378
H 22.3828 44.0085 3.31862
O 22.1147 0.866125 7.79407
H 22.9996 1.25602 7.97955
H 21.7554 0.508177 8.62539
O 22.2941 5.4705 7.93149
H 21.6997 5.94009 8.50864
H 21.7327 5.10409 7.21594
O 17.1077 1.82546 7.9589
H 17.3877 1.31215 8.73788
H 17.5284 1.42625 7.16566
O 24.7101 1.7951 3.40174
H 25.1302 1.41431 2.60503
H 25.1755 1.42466 4.24687
O 28.7734 4.63934 0.996055
H 29.2044 4.8999 0.162013
H 28.7296 3.67572 1.00588
O 30.059 5.38435 3.48455
H 29.7645 5.19168 2.58999
H 30.7543 5.99076 3.45754
O 28.6982 4.4329 5.50464
H 29.2849 4.78216 4.81101
H 27.8391 4.85086 5.46685
O 25.8671 0.848781 5.41983
H 26.8225 1.16201 5.44081
H 25.4744 1.11644 6.26
O 26.087 5.5114 5.51585
H 25.6396 5.1946 4.76721
H 26.0836 6.48333 5.44858
O 28.7347 1.74242 0.93694
H 29.1519 1.42552 1.76715
H 29.2636 1.40058 0.181361
O 28.6059 1.91483 5.65714
H 28.6084 2.86365 5.67305
H 29.1535 1.62734 4.91946
O 24.763 4.39269 7.97625
H 23.8706 4.80145 8.13484
H 25.146 4.82541 7.19068
O 24.7578 4.56048 3.32923
H 24.7177 3.60051 3.36636
H 25.1343 4.85127 2.52286
O 25.9166 5.48423 1.18505
H 25.589 5.92398 0.394523
H 26.8295 5.20268 1.02257
O 25.9069 0.866232 1.19438
H 25.5485 44.5798 0.429047
H 26.8517 1.03179 1.01632
O 30.1186 0.679544 3.29868
H 29.8373 43.9211 3.56189
H 31.0843 0.737215 3.50631
O 30.0967 0.694523 8.09928
H 29.5898 1.08587 7.36373
H 30.5836 1.46344 8.48745
O 30.146 5.44046 8.09006
H 29.7127 5.13488 7.28148
H 30.0758 6.45085 8.05745
O 24.7735 1.88706 8.00349
H 24.7654 3.0047 7.90198
H 25.3528 1.71554 8.7749
192
Atoms. Timestep: 150
O 1.07193 1.60196 3.32373
H 0.175141 1.28092 3.49072
H 1.58866 1.18289 4.01084
O 5.68794 4.48219 1.04492
H 4.92017 4.89452 0.666812
H 5.45932 3.55312 1.02207
O 6.47981 5.52062 3.51019
H 7.37005 5.21819 3.50468
H 6.17685 5.19469 2.688
O 5.28164 4.53648 5.58295
H 5.79387 4.84483 6.35237
H 5.71597 4.93893 4.77867
O 2.7207 0.506405 5.39558
H 3.5152 1.16361 5.47168
H 3.15478 43.7971 5.19693
O 2.57202 5.71413 5.75347
H 3.43667 5.33311 5.69902
H 2.1147 5.3501 4.98666
O 5.30578 1.58113 0.847143
H 4.36323 1.30736 1.00464
H 5.46721 1.2342 -0.0354095
O 4.99689 2.01641 5.47414
H 5.07259 3.0102 5.50245
H 5.43709 1.75239 6.33942
O 1.18946 5.06081 8.18101
H 1.6601 5.17621 7.36159
H 1.19008 4.08706 8.26239
O 1.17493 4.68587 3.51037
H 1.46761 4.99355 2.65418
H 1.16189 3.73022 3.42089
O 2.35149 5.89074 0.686721
H 2.52178 6.80167 0.918655
H 1.78529 5.97146 -0.0991503
O 2.66186 0.825851 0.919146
H 2.53756 -0.099293 0.74305
H 2.04289 0.98883 1.64467
O 6.72306 0.765227 3.30082
H 6.29026 1.01512 2.48284
H 6.15321 1.16692 3.98417
O 6.49958 0.514301 8.34601
H 6.15647 0.594339 9.24523
H 6.5787 43.6872 8.19063
O 6.45636 5.45869 7.77358
H 7.45892 5.3104 7.90704
H 6.36912 6.4396 7.77413
O 1.18797 1.5373 8.27274
H 0.384578 0.926703 8.16998
H 1.75248 1.22411 7.5423
O 9.18057 1.84887 3.29832
H 8.22519 1.44975 3.29338
H 9.6063 1.46609 2.50863
O 13.3241 4.69071 0.833612
H 14.0052 5.08539 0.294325
H 13.5691 4.98859 1.71914
O 14.3409 5.62548 3.36204
H 14.2055 6.57984 3.41024
H 13.8868 5.24548 4.21916
O 13.0183 4.6615 5.51017
H 13.384 4.92451 6.34325
H 12.1368 5.05862 5.50486
O 10.4475 0.786738 5.40909
H 9.95867 1.17024 4.66182
H 9.96021 1.04931 6.20076
O 10.5028 5.64535 5.38282
H 10.076 5.18399 4.6931
H 10.4773 6.56194 5.11908
O 12.8951 1.39835 1.02661
H 13.0391 2.33381 0.864493
H 13.4932 1.16838 1.83216
O 13.0133 1.56504 5.51505
H 12.0205 1.3091 5.45863
H 13.0121 2.5235 5.40608
O 9.12729 4.82538 8.07773
H 9.17894 3.83592 8.12825
H 9.67553 5.03579 7.29205
O 9.2807 4.39618 3.45106
H 9.25481 3.40844 3.42279
H 9.59046 4.66814 2.59838
O 10.2165 5.53405 1.13752
H 9.62068 5.69701 0.381284
H 11.0456 5.25133 0.754327
O 10.3293 0.912684 1.19728
H 10.1778 44.1219 0.949033
H 11.2386 1.03027 1.12586
O 14.3076 0.704687 3.15132
H 15.1607 1.12014 3.22664
H 13.8895 0.964936 3.97926
O 14.0465 0.547671 8.20661
H 14.9748 0.788286 8.15206
H 13.7236 0.788318 7.31618
O 14.0044 5.68414 8.1659
H 13.8997 6.64358 8.29691
H 13.3933 5.27889 8.81414
O 9.28206 1.67321 8.18928
H 9.83025 1.35098 8.90368
H 8.38089 1.32522 8.34139
O 16.8264 1.92604 3.42395
H 16.939 2.87129 3.3908
H 17.3837 1.61789 4.17886
O 20.9428 4.5089 0.802028
H 21.3562 4.90751 1.551
H 20.0524 4.8401 0.869835
O 22.3567 5.64968 3.39957
H 23.2387 5.13997 3.3595
H 22.6361 6.56126 3.46128
O 20.8895 4.5026 5.73586
H 21.3919 4.72641 4.94753
H 20.8888 3.51561 5.75817
O 18.3968 0.710299 5.7495
H 19.3232 1.05725 5.69623
H 18.4659 43.8765 5.76223
O 18.1675 5.55487 5.48691
H 17.7894 5.2378 6.33426
H 19.069 5.27625 5.56961
O 20.8816 1.69781 0.763277
H 21.342 1.41475 1.55086
H 20.9322 2.64507 0.826991
O 20.8169 1.71238 5.68396
H 21.3434 1.41639 6.52259
H 21.3492 1.32462 4.95311
O 17.3835 4.68383 7.85486
H 17.3487 3.72478 7.90416
H 16.5501 4.95146 8.24146
O 17.0912 4.5853 3.268
H 16.178 4.93923 3.39535
H 17.5253 4.95304 4.08639
O 18.2441 5.53451 0.993603
H 17.9834 6.43837 0.879583
H 17.79 5.23865 1.7852
O 18.2574 0.486696 0.699299
H 19.1155 0.940083 0.740325
H 17.768 0.929467 1.40173
O 22.3744 0.746234 3.66036
H 23.2403 1.22231 3.51109
H 22.6229 43.94 3.74724
O 22.1631 0.867396 7.82097
H 23.0761 1.09232 8.0172
H 21.9003 0.216483 8.49386
O 22.2994 5.49982 7.99393
H 21.9932 6.33309 8.32075
H 21.7215 5.26876 7.29277
O 17.298 1.77736 8.09271
H 17.7492 1.37412 8.84134
H 17.6787 1.3838 7.32509
O 24.665 1.91215 3.3095
H 25.1948 1.52295 2.59433
H 25.1131 1.55639 4.04338
O 28.8824 4.74666 0.827891
H 29.3462 5.00738 0.0380106
H 28.9252 3.82363 0.817687
O 30.1624 5.44023 3.44
H 29.7142 5.34555 2.59817
H 30.1073 6.35714 3.61308
O 28.6549 4.56915 5.4947
H 29.0425 4.83227 4.64671
H 27.7556 4.93424 5.5269
O 25.8114 0.814027 5.44521
H 26.7261 1.07585 5.55612
H 25.4529 1.09426 6.26977
O 26.0526 5.63523 5.45687
H 25.5311 5.20774 4.62451
H 25.9623 6.59918 5.3413
O 28.8208 1.63987 0.773906
H 29.3437 1.2895 1.49207
H 29.239 1.28666 -0.0155102
O 28.5311 1.86614 5.64748
H 28.6209 2.88351 5.58386
H 29.2066 1.55222 5.02663
O 24.7352 4.48277 8.03468
H 23.8584 4.85421 7.9496
H 25.2191 4.78505 7.24392
O 24.727 4.44735 3.39177
H 24.6928 3.43943 3.35354
H 25.1741 4.71765 2.50967
O 25.8506 5.49722 1.15981
H 25.4896 6.27708 0.721519
H 26.7713 5.45379 0.892965
O 25.854 0.768154 1.18744
H 25.3473 45.3142 0.506501
H 26.7719 1.02866 0.990675
O 30.3262 0.492606 3.28317
H 30.0627 43.7029 3.48099
H 31.2823 0.430371 3.15592
O 30.2488 0.608115 8.26494
H 29.6503 0.900013 7.53948
H 29.9665 1.20059 9.01794
O 30.2696 5.51117 8.27555
H 29.7894 5.16596 7.51924
H 30.1347 6.51941 8.19818
O 24.7682 1.74584 8.09926
H 24.8009 2.853 8.07508
H 25.2836 1.52622 8.88748
192
Atoms. Timestep: 200
O 0.92302 1.45339 3.28248
H 0.0352417 1.10947 3.3906
H 1.40238 1.14038 4.08533
O 5.85479 4.41877 1.02815
H 5.14954 4.85754 0.543804
H 5.69094 3.47238 0.819716
O 6.64484 5.58826 3.42892
H 7.5337 5.18488 3.48296
H 6.2418 5.17142 2.5938
O 5.19057 4.77064 5.64749
H 5.66697 4.84866 6.48186
H 5.75157 5.06213 4.90724
O 2.66589 0.286339 5.22699
H 3.4391 0.79888 5.29543
H 2.94278 43.5102 5.05117
O 2.5097 5.79628 5.85651
H 3.40171 5.50729 5.76893
H 2.05817 5.48868 5.07894
O 5.42091 1.51381 0.700983
H 4.47012 1.2867 0.608582
H 5.84998 1.30036 -0.16199
O 5.05126 1.95245 5.46918
H 4.98295 2.9258 5.4963
H 5.54237 1.6821 6.30638
O 1.11967 5.31987 8.32051
H 1.59951 5.42479 7.48718
H 1.07047 4.34525 8.39757
O 1.07543 4.71945 3.4798
H 1.43907 4.91866 2.62527
H 0.914054 3.7779 3.44059
O 2.15025 6.17513 0.480497
H 2.22876 7.12802 0.567008
H 1.59451 6.10801 -0.29822
O 2.52839 0.738472 0.848842
H 2.52417 -0.197406 1.01607
H 2.01335 1.09901 1.58792
O 6.65726 0.797461 3.22672
H 6.21875 0.907548 2.40516
H 6.08891 1.17037 3.85924
O 6.49297 0.281882 8.67856
H 6.06209 0.376091 9.52039
H 6.287 43.4883 8.48521
O 6.38012 5.55187 7.77936
H 7.30753 5.26917 7.96033
H 6.49002 6.43738 7.3824
O 1.0726 1.35704 8.48237
H 0.477441 0.603803 8.46625
H 1.72733 1.08859 7.86285
O 9.17495 1.78895 3.30133
H 8.28859 1.48544 3.29216
H 9.62865 1.42903 2.48487
O 13.4025 4.75393 0.656579
H 14.0027 5.178 0.0372943
H 13.7689 5.00357 1.51083
O 14.4084 5.81002 3.34922
H 14.3472 6.75292 3.43997
H 13.9072 5.48081 4.04993
O 12.9758 4.75553 5.63115
H 13.2733 5.09336 6.47345
H 12.056 5.16388 5.526
O 10.3391 0.737318 5.37003
H 9.86518 1.16522 4.62286
H 9.91894 1.01837 6.20071
O 10.4957 5.78359 5.35664
H 10.0359 5.1899 4.70434
H 10.39 6.67329 5.02194
O 12.8902 1.27162 0.90051
H 13.1731 2.16238 0.704939
H 13.3946 1.04828 1.66849
O 13.0875 1.51327 5.49115
H 12.193 1.23707 5.45121
H 13.0484 2.46227 5.59486
O 9.20332 4.87477 8.1303
H 9.42454 3.93845 8.25272
H 9.67247 5.15966 7.33943
O 9.21082 4.36453 3.46064
H 9.19284 3.40309 3.39105
H 9.63086 4.70658 2.61788
O 10.1778 5.62693 1.04725
H 9.63443 5.6519 0.258932
H 11.0397 5.44812 0.716785
O 10.2042 0.843688 1.06483
H 10.21 43.9924 1.06411
H 11.2391 1.14957 0.970792
O 14.3526 0.637272 3.0893
H 15.2392 1.05079 3.19922
H 13.8622 0.862107 3.88718
O 13.9091 0.411241 8.36465
H 14.8315 0.633777 8.49062
H 13.738 0.843546 7.51057
O 13.7455 5.83538 8.37529
H 13.7418 6.79189 8.50512
H 13.1573 5.5409 9.06383
O 9.35592 1.59473 8.38448
H 9.8761 1.13818 9.05867
H 8.50305 1.138 8.45223
O 16.7946 1.88782 3.45575
H 16.8681 2.86764 3.4136
H 17.2938 1.57218 4.24887
O 20.9541 4.64399 0.65495
H 21.3113 5.04309 1.42998
H 20.0674 5.01588 0.643116
O 22.2829 5.75348 3.41246
H 23.1447 5.31441 3.46179
H 22.4259 6.67679 3.63546
O 20.9019 4.56506 5.75053
H 21.2711 4.91068 4.9581
H 20.898 3.55545 5.63868
O 18.3468 0.533462 5.78681
H 19.2964 0.908271 5.66881
H 18.4522 43.6994 5.69105
O 18.2604 5.63817 5.50538
H 17.8074 5.35402 6.37825
H 19.1776 5.33927 5.54937
O 20.8723 1.64996 0.648115
H 21.2479 1.39821 1.4999
H 20.8919 2.67126 0.667869
O 20.9102 1.69432 5.62878
H 21.3721 1.38282 6.40982
H 21.4622 1.37693 4.8895
O 17.4717 4.66249 7.97982
H 17.3565 3.67517 8.09676
H 16.7377 5.07958 8.43844
O 16.9618 4.71401 3.18041
H 16.0551 5.00891 3.18822
H 17.4205 5.0474 3.99789
O 18.2756 5.61403 0.876536
H 18.0249 6.53628 0.850936
H 17.8496 5.26439 1.71003
O 18.2719 0.255564 0.493569
H 19.0701 0.787283 0.537808
H 17.8138 0.633664 1.24382
O 22.3487 0.5971 3.78848
H 23.1675 1.08032 3.5713
H 22.6695 43.8986 4.1601
O 22.2375 0.828929 7.89217
H 23.1406 1.10269 8.0453
H 22.1433 -0.0328676 8.34394
O 22.2249 5.58704 8.07881
H 22.289 6.52726 7.88868
H 21.7599 5.19089 7.28649
O 17.4915 1.74322 8.28033
H 18.2871 1.63553 8.82384
H 17.7919 1.34918 7.3902
O 24.7385 1.91189 3.24494
H 25.2189 1.49522 2.47978
H 25.1788 1.5625 4.1702
O 29 4.8723 0.630007
H 29.5589 5.14566 -0.093284
H 28.9635 3.88642 0.503467
O 30.2312 5.58059 3.32688
H 29.9685 5.35649 2.39164
H 30.02 6.51292 3.35277
O 28.5915 4.77786 5.58061
H 29.2193 4.99182 4.85416
H 27.7659 5.2149 5.33938
O 25.7964 0.828226 5.51522
H 26.7098 1.08302 5.5364
H 25.4809 0.967162 6.41112
O 25.9919 5.76923 5.4192
H 25.5672 5.1951 4.80229
H 25.7571 6.64267 5.17399
O 28.9263 1.52761 0.590517
H 29.4294 1.13198 1.2953
H 29.2163 1.01547 -0.139128
O 28.4596 1.66858 5.66335
H 28.4293 2.64887 5.65623
H 29.0184 1.41997 4.92098
O 24.8009 4.49197 8.0764
H 23.926 4.94569 8.1419
H 25.3233 4.9777 7.42553
O 24.7726 4.45651 3.46391
H 24.7749 3.44011 3.34779
H 25.1879 4.79679 2.6596
O 25.8233 5.54192 1.07077
H 25.6005 6.47052 1.03374
H 26.7609 5.54211 0.940514
O 25.8119 0.740785 1.11714
H 25.5329 45.2844 0.302123
H 26.7694 0.758791 1.05434
O 30.552 0.248213 3.20921
H 30.4765 43.4137 3.39087
H 31.4733 0.357929 3.1257
O 30.382 0.541291 8.48748
H 29.923 0.836895 7.67826
H 29.5904 0.290175 9.04154
O 30.4091 5.5981 8.48862
H 29.9692 5.27315 7.71583
H 30.2108 6.58959 8.4038
O 24.7718 1.63709 8.19876
H 24.7599 2.51061 8.12681
H 25.2921 1.4248 8.95732
192
Atoms. Timestep: 250
O 0.75729 1.33245 3.23205
H -0.0669265 0.872414 3.28998
H 1.44322 0.824134 3.7673
O 6.02275 4.35813 0.95952
H 5.29863 4.76627 0.460642
H 5.8399 3.405 1.02381
O 6.79608 5.6271 3.40267
H 7.65371 5.18007 3.56093
H 6.4011 5.32608 2.5251
O 5.04316 4.92334 5.58447
H 5.57842 5.30524 6.34234
H 5.51142 5.19334 4.75876
O 2.5772 0.0631862 5.0534
H 3.38621 0.511729 5.12324
H 2.76437 43.2248 5.05798
O 2.37842 5.88611 5.98204
H 3.2978 5.56368 5.91081
H 1.8935 5.56991 5.21782
O 5.47878 1.4629 0.490363
H 4.58083 1.14804 0.394501
H 6.08723 0.931443 -0.102997
O 5.12817 1.85583 5.46782
H 5.06875 2.79418 5.45605
H 5.6059 1.63674 6.32305
O 1.04932 5.60445 8.45618
H 1.53386 5.67675 7.60287
H 0.833154 4.67915 8.68366
O 0.988928 4.75454 3.42346
H 1.13763 5.13233 2.56739
H 0.910506 3.80875 3.31871
O 1.91008 6.47986 0.277527
H 1.87373 7.43691 0.182259
H 1.45382 6.18952 -0.498501
O 2.46602 0.636078 0.807984
H 2.12589 -0.252164 0.861393
H 1.82549 1.157 1.31185
O 6.57572 0.843164 3.14848
H 6.1098 1.07357 2.30245
H 6.11346 1.23423 3.88371
O 6.51741 0.0229855 9.0603
H 5.92885 0.286869 9.74496
H 6.14377 43.303 8.80873
O 6.45032 5.71104 7.84727
H 7.24648 5.28546 7.97881
H 6.59654 6.61852 8.12091
O 0.95956 1.15209 8.71858
H 0.472704 0.421119 8.86783
H 1.44499 0.925549 7.97964
O 9.06103 1.69113 3.21711
H 8.06361 1.37233 3.15518
H 9.4726 1.38301 2.3797
O 13.4241 4.81103 0.464116
H 13.9214 5.06601 -0.327298
H 13.8794 5.19535 1.23269
O 14.4202 6.00897 3.35872
H 14.5879 6.93731 3.54993
H 13.991 5.5974 4.22737
O 13.0197 4.87496 5.75306
H 13.2523 5.11593 6.66545
H 12.0995 5.13883 5.56964
O 10.3731 0.666404 5.50538
H 9.85378 0.99709 4.72212
H 9.89163 0.907683 6.32089
O 10.4071 5.91257 5.35504
H 9.93282 5.36663 4.5472
H 10.2523 6.85448 5.19243
O 12.8631 1.16224 0.738357
H 13.1514 2.03113 0.445842
H 13.392 0.959133 1.59878
O 13.1042 1.4662 5.53398
H 12.132 1.18582 5.53661
H 13.145 2.42344 5.49013
O 9.24249 4.9146 8.15835
H 9.44354 4.00796 8.32879
H 9.62786 5.14133 7.3293
O 9.1961 4.48388 3.40835
H 9.13085 3.45235 3.40428
H 9.47948 4.76621 2.47598
O 10.1799 5.69557 0.98196
H 9.78746 5.58641 0.135898
H 11.0991 5.56405 0.8328
O 10.1531 0.746702 0.892696
H 10.1285 43.9157 0.923294
H 11.054 0.950192 0.885144
O 14.3695 0.564299 3.00042
H 15.2823 0.977131 3.06519
H 13.8943 0.747628 3.85179
O 13.7673 0.275395 8.53864
H 14.6425 0.528657 8.81607
H 13.7314 0.54878 7.61081
O 13.4385 6.00841 8.58647
H 13.6572 6.93252 8.72593
H 13.0853 5.74989 9.40907
O 9.39642 1.50829 8.559
H 10.0892 1.00865 9.02807
H 8.57055 1.1283 8.86091
O 16.8034 1.79081 3.46488
H 16.8965 2.76672 3.39353
H 17.2342 1.49025 4.28884
O 20.946 4.75712 0.510101
H 21.4913 5.08957 1.19992
H 20.033 5.09715 0.606757
O 22.1338 5.82031 3.4551
H 23.0189 5.47751 3.40325
H 22.1817 6.79829 3.51236
O 20.9476 4.63721 5.70964
H 21.4756 4.95647 4.97188
H 20.9064 3.67938 5.65052
O 18.3143 0.399972 5.81874
H 19.2672 0.747839 5.71807
H 18.295 43.6132 5.51019
O 18.2914 5.69784 5.44639
H 17.998 5.41636 6.30543
H 19.2069 5.35815 5.42414
O 20.8163 1.64201 0.533566
H 21.3189 1.3564 1.30169
H 20.8304 2.65451 0.467903
O 20.9241 1.72663 5.67886
H 21.365 1.47969 6.47302
H 21.4491 1.38072 4.92116
O 17.532 4.61338 8.16096
H 17.5636 3.64788 8.19113
H 16.7128 4.87238 8.57536
O 16.8827 4.89304 3.19773
H 16.0321 5.35201 3.23918
H 17.3924 5.14989 3.94682
O 18.3399 5.70715 0.720937
H 18.2173 6.65423 0.720067
H 17.7993 5.37676 1.47728
O 18.3226 0.0126507 0.265974
H 19.1158 0.528917 0.312522
H 17.7916 0.29036 1.00572
O 22.3918 0.384283 3.82732
H 23.215 0.877614 3.59838
H 22.6681 43.6415 4.12503
O 22.2195 0.745481 7.95749
H 23.1672 1.09896 8.15143
H 22.2622 -0.230445 8.05598
O 22.1983 5.71017 8.14662
H 22.0785 6.55975 7.70203
H 21.5864 5.12519 7.60884
O 17.7154 1.75788 8.47517
H 18.5654 1.66732 8.89596
H 17.7591 1.17866 7.66539
O 24.8053 1.72931 3.31151
H 25.1571 1.40767 2.46947
H 25.2521 1.424 4.09332
O 29.1283 4.97359 0.421342
H 29.5222 5.35211 -0.359869
H 29.0584 3.94812 0.260312
O 30.2538 5.78142 3.18396
H 29.9223 5.22447 2.42018
H 30.7255 6.52329 2.78037
O 28.6322 4.91767 5.70318
H 29.0139 5.32031 4.90232
H 27.7478 5.31153 5.82353
O 25.7758 0.858679 5.55529
H 26.7553 0.88914 5.67978
H 25.3041 1.18143 6.38316
O 25.9122 5.93269 5.46424
H 25.5723 5.41414 4.63389
H 25.8478 6.84855 5.3313
O 29.0158 1.3699 0.427625
H 29.6018 1.12355 1.16872
H 29.4116 0.980633 -0.321839
O 28.4366 1.49946 5.67737
H 28.5116 2.41643 5.77534
H 28.9694 1.21423 4.94713
O 24.89 4.39715 8.14539
H 23.9642 4.73883 8.26245
H 25.2057 4.80209 7.32365
O 24.8157 4.63377 3.44385
H 24.8161 3.68488 3.54946
H 25.2077 4.86516 2.61559
O 25.8409 5.60814 1.02231
H 25.8224 6.54991 0.872948
H 26.7099 5.34117 0.738019
O 25.8615 0.749701 0.962695
H 25.5576 44.6799 0.0616607
H 26.7999 0.559599 0.953593
O 30.773 -0.00995503 3.07822
H 30.941 43.151 3.24526
H 31.5384 0.385888 3.38057
O 30.4596 0.433525 8.75298
H 30.2202 0.892091 7.94333
H 30.1275 -0.464652 8.53026
O 30.5504 5.70216 8.6944
H 30.0373 5.46168 7.96465
H 30.3315 6.67447 8.74119
O 24.868 1.65452 8.29556
H 24.865 2.78375 8.26293
H 25.2754 1.40276 9.112
192
Atoms. Timestep: 300
O 0.618761 1.21942 3.11518
H -0.217656 0.907429 3.35929
H 1.21113 0.896802 3.82854
O 6.16914 4.31321 0.891719
H 5.55221 4.77502 0.298759
H 6.16204 3.39682 0.621762
O 6.76923 5.68498 3.43494
H 7.64633 5.32707 3.47737
H 6.53576 5.28841 2.59274
O 4.94423 5.03703 5.4545
H 5.42968 5.37201 6.29687
H 5.56763 5.31948 4.76154
O 2.48624 -0.149598 4.88458
H 3.28005 0.385311 5.10971
H 2.79651 43.0183 5.0475
O 2.19437 5.95225 6.0934
H 3.10692 5.69251 5.80821
H 1.67677 5.68624 5.32208
O 5.48512 1.37873 0.316879
H 4.58476 1.1521 0.323967
H 5.89284 0.67976 -0.275325
O 5.1945 1.786 5.46585
H 5.05718 2.78765 5.51118
H 5.68152 1.58538 6.31648
O 0.972934 5.90601 8.59005
H 1.4033 5.85362 7.71775
H 0.741657 5.00584 8.88839
O 0.917032 4.79822 3.37748
H 0.942989 5.30103 2.57301
H 0.861036 3.87732 3.12588
O 1.63322 6.77146 0.0886567
H 1.56061 7.70523 -0.141792
H 1.41701 6.33452 -0.711872
O 2.44489 0.540005 0.743326
H 1.85752 -0.132997 0.409078
H 1.98255 0.814012 1.54535
O 6.43176 0.884551 3.067
H 5.98397 1.1554 2.19993
H 5.89826 1.1585 3.84101
O 6.56526 -0.203761 9.45049
H 5.90465 0.101968 10.0455
H 6.34395 43.0036 9.27005
O 6.58642 5.89741 7.94605
H 7.52669 5.61217 7.87599
H 6.52529 6.26026 8.84084
O 0.849577 0.943628 8.96159
H 0.428399 0.234817 9.28449
H 0.944444 0.733195 8.05886
O 8.97613 1.64689 3.11721
H 8.07986 1.4221 3.08826
H 9.36413 1.23474 2.31472
O 13.3743 4.86878 0.284329
H 13.8695 5.06626 -0.529105
H 13.8225 5.31954 1.02157
O 14.3581 6.21821 3.4448
H 14.3569 7.15381 3.5871