192
TotEnergy=-1103.89219000 cutoff=-1.00000000 nneightol=1.20000000 pbc="T T T" Lattice="24.64848000       0.00000000       0.00000000      -0.00000100      24.64848000       0.00000000      -0.00000100      -0.00000100      24.64848000" Properties=species:S:1:pos:R:3:force:R:3:Z:I:1
O               4.06594000     10.61770000      6.69375000      0.00241195      0.00047931     -0.00223289       8
H               4.36655000     12.15540000      5.76057000      0.00100395     -0.00263684      0.00217252       1
H               2.68762000     11.05630000      7.79009000     -0.00233828      0.00238777     -0.00104840       1
O              20.14150000      2.76328000     17.43970000      0.00010828     -0.00020043     -0.00342727       8
H              20.00040000      2.07328000     15.75950000      0.00409032     -0.00439752      0.00171881       1
H              18.80120000      3.98177000     17.51100000      0.00094605      0.00147518      0.00050130       1
O               9.45955000     19.26180000      8.22053000     -0.00280350      0.00474803     -0.00350291       8
H               8.87718000     19.43620000      9.92287000     -0.00538945      0.00397678      0.00614405       1
H              10.84740000     18.11190000      8.40215000      0.01188650     -0.00745088     -0.00488087       1
O              16.39630000     22.24470000     10.24420000     -0.00865870      0.00633395     -0.00356386       8
H              16.69890000     20.47320000     10.12870000      0.00371890     -0.00685288      0.00063700       1
H              17.82060000     22.92810000     11.14830000      0.01033770     -0.00299270      0.00527865       1
O               6.53706000     15.57110000     23.82610000      0.01078620      0.01292440      0.01961420       8
H               6.09411000     14.75410000     22.29170000     -0.00954603     -0.01156780     -0.01205520       1
H               6.81878000     14.31660000      0.47965200     -0.00130035     -0.00133499     -0.00742175       1
O              22.65890000     11.61060000     17.92870000     -0.00423223     -0.00005235     -0.00236975       8
H              23.24260000     12.77560000     16.66830000      0.00200239     -0.00014533      0.00075641       1
H              21.18710000     12.41080000     18.63710000      0.00046564      0.00351308      0.00225220       1
O               5.79107000      5.83334000     17.02720000      0.00219935      0.00366613     -0.00015472       8
H               4.29282000      5.18720000     17.80170000     -0.01058070     -0.00253038      0.00432730       1
H               6.47639000      4.37080000     16.22230000      0.01022530     -0.00158063     -0.00511078       1
O               4.17952000     15.36580000     12.24250000     -0.00127233     -0.00338339     -0.00315589       8
H               4.43834000     13.77600000     13.07700000      0.00196925      0.00105318      0.00460547       1
H               2.95063000     14.86590000     10.97940000     -0.00335944      0.00129198     -0.00217540       1
O              11.10960000     18.09800000     22.74630000      0.00114089      0.00047304     -0.00473989       8
H              10.53090000     19.73770000     23.24920000      0.00436810      0.00567254      0.00167479       1
H               9.54030000     17.15290000     22.67950000     -0.00065926     -0.00611550      0.00432834       1
O               1.58911000     19.94280000      3.62149000      0.02801910      0.01767370     -0.00807787       8
H               1.62732000     21.64710000      4.21585000      0.00470901      0.00497955      0.01694360       1
H               1.58869000     18.70140000      4.89502000      0.00545217     -0.00681993      0.02848110       1
O              20.44930000     16.44580000     12.22930000     -0.00264749     -0.00118105      0.00289617       8
H              21.41960000     17.23730000     13.53760000     -0.00163877      0.00390476     -0.00003730       1
H              18.69860000     16.69880000     12.71390000      0.00352105     -0.00610521     -0.00048787       1
O               9.37575000      0.06239100      5.07846000      0.00042563     -0.00452916      0.00362945       8
H               9.25467000     23.14810000      5.98994000     -0.00192837     -0.00470518      0.00199630       1
H               8.98831000     -0.32230300      3.34299000     -0.00122141      0.00353812     -0.00250752       1
O              23.10310000     18.93180000      0.83803300     -0.03248660     -0.00314792     -0.00641414       8
H              22.95670000     17.32050000      0.00662100      0.01492530     -0.00077310      0.01495500       1
H              24.40430000     19.45370000      2.32327000     -0.00531945     -0.01788760     -0.03448920       1
O              22.57370000      8.18097000     10.58380000      0.00077641     -0.00341424      0.00079190       8
H              21.07230000      7.92364000     11.59890000     -0.00065425      0.00345502     -0.00152880       1
H              22.01450000      8.24144000      8.85581000     -0.00227859      0.00211078      0.00079603       1
O               1.95483000     19.48580000     20.50170000     -0.00198809     -0.00291452     -0.00213021       8
H               2.97539000     17.97910000     20.45990000     -0.00162267     -0.00106335      0.00224749       1
H               2.64077000     20.57510000     19.21110000      0.00552034      0.00227396     -0.00210475       1
O              10.90370000     10.99520000      6.89810000     -0.00888432      0.01048640      0.00302724       8
H              11.85070000      9.47648000      6.69117000      0.00766932     -0.00813322     -0.00373048       1
H              10.06220000     10.82040000      8.52735000      0.00244130     -0.00041613     -0.00122657       1
O              21.84080000      1.76959000      0.04103000      0.00962162     -0.00689206     -0.04655020       8
H              21.91200000      1.77171000      1.78897000      0.00339690     -0.00051937      0.03616940       1
H              23.42130000      0.91857500     -0.56134700     -0.01393120      0.00742692      0.01144300       1
O              14.86720000      1.58452000     20.58840000      0.00481227      0.00550017      0.00253377       8
H              16.03840000      0.18438000     20.44850000     -0.01168620      0.00571234     -0.00422777       1
H              13.24250000      0.99023900     20.05060000      0.00440524     -0.00731732     -0.00004459       1
O              23.19350000      2.59672000      9.48157000      0.01475550     -0.01058800      0.01010580       8
H              23.00910000      4.08374000     10.51040000     -0.00425610      0.00288105     -0.00879847       1
H              21.74260000      2.35513000      8.43877000     -0.00704144      0.00400557     -0.00533847       1
O              12.97820000     10.05290000      0.63096900     -0.00710675      0.00804210     -0.01422760       8
H              13.78400000      9.27234000      2.04852000      0.00651544     -0.00889319      0.00905386       1
H              13.33700000      9.02232000     23.80100000      0.00286080      0.00234992      0.00603837       1
O               5.34300000      8.99350000     21.76600000      0.00318994     -0.00296912     -0.00479310       8
H               6.25842000      8.80840000     23.31490000     -0.00219259      0.00543030      0.00803480       1
H               6.41225000      8.17890000     20.53740000     -0.00500702      0.00019868     -0.00287197       1
O               4.34151000     14.19820000     19.22880000     -0.00318617     -0.00062776      0.00300500       8
H               5.73921000     14.05980000     18.06040000      0.00329869     -0.00143138     -0.00232554       1
H               3.90713000     12.50430000     19.73950000      0.00326799      0.00032570     -0.00221273       1
O              22.20240000     19.95700000     16.76780000     -0.00185750      0.00041146      0.00172446       8
H              21.48160000     20.46730000     18.37750000     -0.00040105     -0.00318268      0.00040382       1
H              23.68830000     19.07290000     17.31540000      0.00333899      0.00188314     -0.00031077       1
O              21.53020000      6.51609000     21.92380000     -0.00404025      0.00181278     -0.00183524       8
H              21.69090000      6.40305000     20.12120000      0.00044761      0.00051515      0.00038389       1
H              21.53590000      4.79645000     22.55170000     -0.00166897      0.00061299      0.00307750       1
O              15.36310000     15.89890000     13.69550000      0.00236762      0.00268111      0.00315636       8
H              13.95180000     15.62010000     12.60020000      0.00030835     -0.00135944     -0.00561601       1
H              15.39240000     14.45980000     14.81590000     -0.00494583      0.00082234     -0.00156873       1
O               5.76380000     16.23020000      4.92029000     -0.00626747     -0.00568129     -0.00204225       8
H               5.50033000     17.45290000      3.60725000      0.00574852     -0.00155311      0.00045176       1
H               7.22263000     16.73690000      5.87358000     -0.00101108      0.00660855      0.00121281       1
O               8.69203000     14.59480000     15.84410000      0.00023526     -0.02549950      0.01023790       8
H               8.12204000     16.05660000     14.96270000      0.01154740      0.01469700     -0.00010404       1
H              10.27580000     14.82870000     16.74560000     -0.01155430      0.00627660     -0.01055350       1
O               8.18291000      1.79974000     24.70690000      0.00034638      0.00240719     -0.00048132       8
H               6.51608000      2.46775000     25.03970000     -0.00054772     -0.00205147      0.00400947       1
H               9.28275000      2.98501000     25.52420000      0.00140339      0.00177067     -0.00213888       1
O               3.53143000      2.53712000      2.98172000      0.00665392      0.00282666     -0.00338369       8
H               4.52733000      3.58021000      4.13258000     -0.00188352     -0.00038500      0.00127614       1
H               2.00193000      3.48909000      2.80257000     -0.00413849      0.00262039      0.00084481       1
O              13.78800000     23.16900000     15.02000000     -0.00305023     -0.00158393     -0.00453184       8
H              14.59020000     22.29490000     16.40240000      0.00156481     -0.00083518      0.00191713       1
H              14.58740000     22.61000000     13.47160000      0.00130039      0.00092803      0.00061874       1
O               1.31782000      3.09398000     18.06360000      0.00958984     -0.00079784     -0.00507465       8
H               0.44166600      3.27151000     19.61680000     -0.00289498     -0.00281841      0.01286890       1
H              24.65380000      3.21077000     16.83700000     -0.00743964      0.00066547     -0.00642376       1
O               3.17472000     24.12880000      7.81686000     -0.00042854     -0.00625334      0.00523350       8
H               4.29641000      0.45656200      6.78341000     -0.00145369      0.00135666     -0.00074208       1
H               2.20856000      0.70931100      8.75793000     -0.00326862     -0.00045950     -0.00640339       1
O               9.01058000     23.01840000     20.07220000      0.00184352     -0.00193221      0.00080806       8
H               7.36073000     22.35690000     19.71010000      0.00020004     -0.00039477     -0.00260021       1
H               8.73363000     24.80400000     20.03590000     -0.00059721      0.00226218      0.00410583       1
O              23.84050000      6.89739000      3.60886000      0.00155926     -0.00413716      0.00636917       8
H              22.53860000      6.59397000      2.41891000     -0.00961540     -0.00571670     -0.01005540       1
H               0.10329400      8.24666000      2.83763000      0.00740405      0.00792834     -0.00086543       1
O              20.47980000     20.46000000     21.98810000      0.01166030     -0.00202044      0.01907970       8
H              21.68670000     20.07530000     23.59550000     -0.01745340     -0.00943932     -0.02312080       1
H              20.54490000     22.22080000     22.26730000     -0.00768290      0.02496680     -0.00621825       1
O              13.48820000     15.54540000      8.06310000     -0.00332600      0.00283764      0.00305053       8
H              12.78770000     13.97780000      7.38694000      0.00473025      0.00098466      0.00186881       1
H              15.25050000     15.65290000      7.62425000     -0.00360573     -0.00386734     -0.00346406       1
O              22.39500000     18.51990000      7.11894000      0.00341291      0.00135383     -0.00551309       8
H              22.04250000     19.08770000      5.43281000     -0.00520161      0.00161823      0.00150045       1
H              23.11160000     19.98690000      7.89413000     -0.00007849      0.00067905      0.00727983       1
O              13.84840000      7.46295000     13.71340000     -0.00746566      0.00035985      0.01102990       8
H              14.55500000      6.60489000     12.27600000      0.00338882     -0.00257597     -0.00575400       1
H              12.08890000      7.75860000     13.35120000      0.00347418      0.00152357     -0.00397853       1
O               9.29388000     10.20400000     11.80290000      0.00207586     -0.00307941      0.00166400       8
H               7.58510000     10.31270000     12.40300000     -0.00816612     -0.00303173     -0.00048379       1
H              10.19560000     11.14640000     13.04810000      0.00384628      0.00992550      0.00329067       1
O              15.55230000     20.59530000     19.63180000      0.00431833     -0.00117283      0.00372664       8
H              14.19690000     19.79580000     20.51810000     -0.01326070     -0.00253895     -0.00187963       1
H              16.95610000     20.35200000     20.77110000      0.01058130      0.00280309     -0.00131164       1
O              13.22230000     20.97310000      2.82897000      0.00017721      0.00547911     -0.00522179       8
H              14.11660000     19.42100000      2.52618000     -0.00520823      0.00069238      0.00574606       1
H              12.51440000     20.92360000      4.49550000      0.00415089     -0.00689920     -0.00037758       1
O              17.90370000     14.98730000     19.92710000      0.00211303     -0.00256163     -0.00248097       8
H              18.07980000     16.60840000     19.12880000      0.00047716      0.00063038      0.00128364       1
H              17.38010000     15.32380000     21.64060000      0.00023455      0.00143346      0.00317531       1
O              23.10090000     11.69450000     24.34000000      0.00194503      0.00384761      0.00273347       8
H              24.61310000     12.03430000     23.40970000      0.00380760      0.00212936      0.00049598       1
H              22.28350000     10.47740000     23.28310000     -0.00396786     -0.00698555     -0.00160435       1
O              13.79800000     12.51490000     17.69830000      0.00615729      0.00324062      0.00008767       8
H              14.18320000     10.80320000     18.13440000     -0.00579231     -0.00861082     -0.00127424       1
H              15.10930000     13.42560000     18.60360000     -0.00086929      0.00443091      0.00158088       1
O               7.74509000     10.37400000      2.32899000      0.00250662      0.00392903     -0.00096221       8
H               9.45623000     10.17990000      1.73131000      0.00459473     -0.00007216     -0.00591909       1
H               8.06931000     10.96790000      4.01849000     -0.00250266     -0.00294349      0.00235278       1
O              19.09870000      8.04204000     14.68500000      0.00997350      0.00131318      0.00152012       8
H              19.96970000      9.58833000     15.11200000     -0.00371195     -0.00492196      0.00422525       1
H              17.32440000      8.31049000     14.93030000     -0.00573574      0.00405916     -0.00390847       1
O              15.06780000      7.26632000     20.95000000     -0.00113022      0.00601031     -0.00219490       8
H              16.83050000      7.57582000     21.26170000      0.00045631     -0.00640184      0.00119526       1
H              14.87160000      5.47164000     20.69040000      0.00500365     -0.00158695      0.00264871       1
O              19.59810000     10.40410000      5.93372000      0.00003514     -0.00116051     -0.00247982       8
H              20.68030000      9.99238000      4.54177000      0.00384586     -0.00321084      0.00095473       1
H              19.06670000     12.10080000      5.54589000     -0.00399915      0.00358396      0.00229473       1
O              11.43430000      3.16589000      8.83354000      0.00026035      0.00366952      0.00350079       8
H              10.51550000      2.75193000     10.35230000      0.00033296     -0.00089348     -0.00091666       1
H              10.85950000      2.07974000      7.48125000     -0.00004675     -0.00072899      0.00248292       1
O              15.19320000     15.60880000      0.31482700     -0.00066544     -0.00134662     -0.00488613       8
H              13.66970000     16.27960000     24.19210000     -0.00345738      0.00735426     -0.00115229       1
H              14.72620000     13.89040000      0.69400700      0.00032951     -0.00526786      0.00115375       1
O              19.85590000     24.46920000      5.95329000     -0.00153639     -0.00337597     -0.00363437       8
H              18.92400000     24.89780000      4.44834000     -0.00287739      0.00230302      0.00252338       1
H              18.65610000     23.48500000      6.90709000     -0.00008180      0.00207894      0.00202227       1
O              10.44620000      2.75783000     14.46280000      0.00080023     -0.00105391     -0.00077028       8
H              11.79750000      3.85179000     14.96880000     -0.00018430      0.00997925     -0.00038530       1
H              11.29200000      1.15098000     14.54380000     -0.00050193     -0.00951953      0.00275358       1
O               2.09944000     20.40100000     12.38890000      0.00480071      0.00206283      0.00375047       8
H               3.26645000     21.10190000     11.19370000     -0.00163874      0.00562612     -0.00584002       1
H               2.68630000     18.67500000     12.52920000     -0.00086121     -0.00351552      0.00414907       1
O              16.47170000      4.07497000     10.60440000      0.00438050      0.00124231      0.00500713       8
H              14.84990000      3.34079000     10.24190000     -0.00579812     -0.00485034     -0.00909219       1
H              17.10940000      3.14959000     12.02720000      0.00054081      0.00044475     -0.00276638       1
O               5.89733000      5.40684000      6.82256000      0.00331189     -0.02417320      0.00277444       8
H               7.56353000      4.99233000      7.45586000     -0.00654350      0.01184980     -0.00484284       1
H               5.66027000      7.18303000      6.62176000      0.00346041      0.01419900      0.00075073       1
O              20.83790000     23.62290000     12.95760000      0.00016617      0.00123739     -0.00184980       8
H              21.98170000     23.86740000     11.56080000      0.00123853      0.00655641      0.00438989       1
H              21.65100000     22.40460000     14.05560000     -0.00249371     -0.00382307      0.00196515       1
O              14.85390000      7.54802000      4.97840000     -0.00028754     -0.00033851      0.00100888       8
H              15.11460000      5.80246000      4.55148000      0.00053909     -0.00015463      0.00133044       1
H              16.34980000      8.09789000      5.87350000      0.00113358      0.00096168     -0.00432650       1
O               9.14397000     19.96360000     14.41730000      0.00148492      0.00478402     -0.00205568       8
H               8.22487000     21.17430000     15.40390000     -0.00607476     -0.00068613      0.00093637       1
H              10.83910000     20.59080000     14.65300000      0.00385586     -0.00193271     -0.00192507       1
O              18.23660000     15.73290000      4.50003000      0.00502340      0.00289432     -0.00056634       8
H              19.96780000     16.11410000      4.11965000     -0.00091480     -0.00087019      0.00375968       1
H              17.34680000     16.33540000      3.02351000     -0.00452423     -0.00780700     -0.00109045       1
O               0.04843600     13.34690000      9.38808000      0.00265159     -0.00088481     -0.00041003       8
H              23.27470000     14.42750000      9.03951000      0.00088070      0.00080735      0.00282828       1
H              24.03920000     11.92550000     10.32080000     -0.00381096     -0.00038636      0.00021790       1
O               4.28548000     23.02360000     17.18400000     -0.00277333      0.00174844      0.00088855       8
H               3.68626000     22.35550000     15.60110000     -0.00467009     -0.00085088     -0.00545413       1
H               3.39059000     24.59890000     17.46320000     -0.00095020     -0.00314106     -0.00026370       1
O              15.36870000      1.72563000      2.34083000      0.00087708     -0.00046954      0.00193555       8
H              15.46280000      0.67217800      0.86632000      0.00096719      0.00447165     -0.00296001       1
H              14.00270000      0.96315500      3.25210000     -0.00133634     -0.00271572      0.00399370       1
O               1.41961000     24.07720000     23.11290000      0.00563529      0.00140722      0.00035907       8
H               1.29117000     22.36570000     22.47820000      0.00265710     -0.00443368      0.00115668       1
H               3.08184000     -0.41730000     23.84490000     -0.00823955      0.00017844      0.00010097       1
O               3.78431000      9.43109000     13.07430000      0.00363886      0.00148171     -0.01010210       8
H               3.62844000      8.36557000     14.52680000      0.00465024     -0.00171763      0.00653374       1
H               3.97019000      8.24208000     11.70730000     -0.00365429      0.00429012      0.00006410       1
