192
TotEnergy=-1103.30145000 cutoff=-1.00000000 nneightol=1.20000000 pbc="T T T" Lattice="24.31058000       0.00000000       0.00000000      -0.00000100      24.31058000       0.00000000      -0.00000100      -0.00000100      24.31058000" Properties=species:S:1:pos:R:3:force:R:3:Z:I:1
O              23.40200000     -4.21972000    -29.10020000      0.06225150      0.02927820      0.06898340       8
H              21.79870000     -3.69792000    -29.52070000     -0.04925540     -0.00681265     -0.03645170       1
H              24.45020000     -5.46268000    -29.78330000     -0.00266107     -0.02326810     -0.03161630       1
O              46.51530000     45.37810000      0.37849100      0.03864550      0.04139390     -0.00191342       8
H              46.78730000     47.31870000      0.86301700      0.00155200     -0.06372290     -0.02884870       1
H              47.66580000     44.77460000     -1.10905000     -0.03624230      0.02969580      0.03382630       1
O              11.50480000      2.30170000     14.80010000     -0.01142150     -0.05770830      0.02465430       8
H              12.47810000      3.15559000     16.13310000     -0.00728787     -0.01261630     -0.00101569       1
H              11.02270000      0.31130600     15.40180000      0.01241170      0.07569090     -0.02650700       1
O              -4.00840000    -10.32220000     -1.53172000     -0.02876760      0.01547230     -0.04865910       8
H              -4.38272000    -10.76880000     -3.42505000      0.02437840      0.01185230      0.05359680       1
H              -4.48804000     -8.49602000     -1.34391000      0.00295974     -0.02866670     -0.00183595       1
O               5.19692000     32.63600000     19.14260000      0.01104800     -0.00625946     -0.04783950       8
H               6.36372000     33.29090000     20.38750000      0.00894593     -0.00666494     -0.00047280       1
H               6.10403000     32.25830000     17.44390000     -0.01521780      0.01068240      0.04325380       1
O              -4.36217000     11.61250000      7.48865000      0.01129760     -0.06047710     -0.08264540       8
H              -5.14814000      9.61766000      7.04780000      0.03967870      0.09155190      0.01487950       1
H              -3.21251000     12.19620000      5.71276000     -0.04887780     -0.03392420      0.06764370       1
O              45.28940000     24.88470000     13.64490000     -0.06371960      0.00507988      0.05937570       8
H              46.81990000     25.28780000     14.34410000      0.05558310      0.01005250      0.00554562       1
H              45.28680000     24.43420000     11.96510000      0.00790235     -0.01576010     -0.05018700       1
O              -0.06505400    -29.44390000      9.24356000      0.06071620     -0.06108200      0.03128820       8
H               0.44776200    -29.68650000      7.56116000      0.02208350     -0.03722770     -0.03537710       1
H              -1.15387000    -28.25310000      8.81746000     -0.08804160      0.08299620      0.00144586       1
O              30.89100000    -34.43030000     21.70170000     -0.01504650     -0.20217800      0.00998780       8
H              31.35420000    -32.89040000     21.84770000      0.05543590      0.14604000      0.02318550       1
H              32.03860000    -35.88420000     22.73690000     -0.03097250      0.05298740     -0.03903270       1
O               9.07876000    -28.91400000    -26.04960000      0.07893700     -0.01155330      0.02012410       8
H              11.07330000    -28.76800000    -26.50620000     -0.06000040      0.00498450      0.00920223       1
H               9.30095000    -29.52730000    -24.25070000     -0.01105930      0.00463757     -0.02730500       1
O             -10.18810000      3.92490000      7.10672000      0.01012270      0.01183070      0.00270731       8
H             -11.09910000      2.73880000      6.12882000     -0.01915410     -0.00923372     -0.01827260       1
H              -9.30988000      2.83974000      8.24749000      0.00500230     -0.00587874      0.01988500       1
O             -13.06760000     25.07390000     51.93350000     -0.04233950      0.01796480      0.02571930       8
H             -14.57830000     26.33350000     51.68150000      0.02450160     -0.03065140      0.01676770       1
H             -11.77160000     25.72240000     50.94650000      0.02695620      0.00529677     -0.02859920       1
O              15.42590000    -28.96890000    -13.47060000      0.02276550     -0.03517250      0.00774145       8
H              15.93800000    -30.59540000    -14.47270000     -0.01288380      0.03675170      0.01551660       1
H              15.92380000    -29.30280000    -11.68870000     -0.01218630      0.00369631     -0.02978140       1
O              30.04740000     15.02190000     37.02890000      0.07484970      0.10809700      0.05284240       8
H              29.27090000     13.65210000     36.51950000     -0.04979240     -0.10076700     -0.02984050       1
H              31.35080000     14.68890000     38.36740000     -0.02115060     -0.00714215     -0.02292430       1
O              -1.30874000      2.40820000      1.02897000      0.02431660      0.07667860      0.01288950       8
H              -1.26000000      3.29789000      2.83711000      0.00433702     -0.03155820     -0.06373750       1
H              -0.44289700      3.72684000     -0.29269300     -0.02254210     -0.04908120      0.05254330       1
O             -27.74930000     23.19270000     33.53460000      0.17364600      0.02173890      0.05227520       8
H             -26.72680000     24.50160000     32.66720000     -0.02786740     -0.00968859     -0.00552061       1
H             -29.21350000     22.95750000     32.93010000     -0.15361400     -0.01874240     -0.06949010       1
O             -32.57220000     11.14790000     24.85810000     -0.00924820      0.00846653     -0.05904700       8
H             -33.88750000     10.50800000     23.46550000      0.05319110      0.02389920      0.04094470       1
H             -31.11310000     12.06670000     23.85470000     -0.03634340     -0.02444990      0.02840310       1
O             -19.69130000     63.77850000    -20.94610000      0.02254400     -0.03307390      0.03712180       8
H             -19.23960000     62.08110000    -19.55330000     -0.01017320      0.05094630     -0.02955210       1
H             -19.75250000     63.05000000    -22.58850000     -0.00655234     -0.01301060     -0.00958358       1
O              67.78110000     21.19370000     41.32580000     -0.01375660      0.00911108     -0.08455450       8
H              68.64690000     22.12190000     39.67210000     -0.03480210     -0.02444340      0.06218670       1
H              66.14700000     20.42320000     40.58640000      0.04241000      0.02052090      0.02616000       1
O              55.61860000    -21.27780000      2.99791000     -0.01648270      0.00876915     -0.01144040       8
H              54.35410000    -21.37530000      4.49746000      0.02581430     -0.01844380     -0.04234820       1
H              55.32160000    -22.20270000      1.31424000     -0.02149140      0.01438750      0.05044660       1
O              32.36740000     19.33890000    -14.00820000      0.04286180      0.06881800     -0.02475230       8
H              33.92980000     19.86220000    -15.21440000     -0.05519430     -0.03562660      0.03237020       1
H              31.96930000     17.64070000    -13.70430000      0.00816964     -0.03333360     -0.00522509       1
O             -16.44980000      7.33133000     62.90390000      0.02281970     -0.09093450      0.03678250       8
H             -15.36350000      8.71104000     62.69400000      0.02655790      0.02558930     -0.00880888       1
H             -15.22960000      5.76204000     63.44830000     -0.04338860      0.05690620     -0.02422050       1
O               5.43290000     -0.64084000     -0.29211700     -0.25441200      0.12761400     -0.11439400       8
H               4.47057000     -1.62474000     -1.75319000      0.03853260      0.04233300      0.05618690       1
H               6.61175000     -1.54536000      0.02831500      0.22228400     -0.17091000      0.05796080       1
O              42.45130000      4.14150000     24.13470000      0.00663475      0.03980660      0.05724700       8
H              42.26610000      5.08368000     25.86100000      0.00184935     -0.01711330     -0.04309940       1
H              44.03530000      3.30544000     24.50970000      0.00455486     -0.00988396     -0.00545885       1
O              -1.32054000     61.12960000     27.18740000      0.02669100     -0.06282210      0.11679600       8
H              -1.85909000     61.38820000     25.67100000     -0.06520820      0.01415610     -0.13464400       1
H              -0.52728400     62.64200000     27.48950000      0.02690440      0.04971290      0.02465830       1
O              10.97970000     38.48380000      9.03944000      0.05253050      0.02850730      0.03574340       8
H              10.02770000     37.83220000      7.76176000     -0.03574910     -0.02322630     -0.04553720       1
H              12.58900000     39.08760000      8.29888000     -0.01431590     -0.00749095      0.01300720       1
O             -18.08200000     20.48160000     18.62890000     -0.06799520      0.05118410     -0.07227090       8
H             -18.79670000     19.04970000     17.81160000     -0.01190090     -0.01680380      0.00203509       1
H             -16.83120000     20.06630000     19.65760000      0.07273690     -0.03455780      0.08028670       1
O              30.38340000     32.78750000     51.02050000      0.02542230     -0.08568300      0.00623867       8
H              30.58170000     30.79330000     50.74010000     -0.00374988      0.06312530      0.01953020       1
H              28.98640000     33.20520000     49.97890000     -0.01471180      0.01529950     -0.01458550       1
O              13.31220000     34.13550000     20.67220000     -0.02771720     -0.18077400      0.15020300       8
H              13.53580000     35.01330000     19.43220000      0.03798080      0.19493600     -0.19442000       1
H              13.43000000     32.63690000     19.49440000      0.00101828     -0.02520680      0.03803920       1
O               2.43965000    -24.11810000     19.03160000      0.04953560      0.01756140     -0.01238000       8
H               1.67853000    -25.67500000     19.28210000     -0.04444190     -0.03855470      0.01038670       1
H               4.10707000    -24.79500000     18.56830000     -0.00389168      0.01419950      0.00535717       1
O               0.24850500     17.39870000      4.20880000     -0.08760510      0.09205470     -0.01830640       8
H               1.79745000     16.94540000      3.55846000      0.05846470     -0.01138840     -0.01769710       1
H              -0.44534800     19.06850000      3.13017000      0.02710600     -0.07096600      0.03470080       1
O               1.94490000      1.30634000     14.08590000     -0.01416710      0.03428330     -0.00143314       8
H               2.56120000     -0.13272000     13.22240000      0.00784138     -0.02114930     -0.00665297       1
H               2.09669000      1.12250000     15.88580000      0.00215148     -0.00451981      0.00248719       1
O             -34.40190000     53.64650000    -30.09180000     -0.03519270      0.01868200      0.01251410       8
H             -33.02840000     53.93150000    -31.23690000      0.02155670     -0.01886050      0.00723228       1
H             -34.22680000     52.60100000    -28.50080000      0.00802547      0.00288544     -0.02411540       1
O               4.36440000     50.76440000    -16.75070000     -0.01181220     -0.10934500      0.02387460       8
H               4.41484000     52.16300000    -15.73480000      0.00363462      0.05082880      0.03251990       1
H               4.24694000     49.12830000    -15.31790000      0.00423397      0.05391980     -0.05959070       1
O             -33.89130000     39.96010000      2.87370000     -0.03057670     -0.07709020     -0.01219640       8
H             -33.59440000     38.03250000      2.16244000      0.00676235      0.05183910      0.01232090       1
H             -35.78940000     39.90900000      2.72025000      0.02432670      0.01744880      0.00191492       1
O              19.24920000     36.95110000     13.79970000      0.01742240      0.06145030      0.05179640       8
H              20.42930000     38.23410000     13.06980000     -0.00732759     -0.01588410      0.00334304       1
H              18.89320000     35.77670000     12.61860000     -0.01339230     -0.04961020     -0.05536030       1
O             -18.11780000    -12.62050000      6.31393000     -0.01969200      0.20301900      0.25432400       8
H             -18.09270000    -13.63690000      5.16992000     -0.00326319     -0.20863100     -0.18438900       1
H             -19.03790000    -12.92700000      8.07985000      0.01641080     -0.00665402     -0.06734920       1
O             -47.01750000      5.01791000     21.02140000      0.06199970     -0.05251400     -0.03659670       8
H             -46.34450000      3.07932000     20.52070000     -0.03075730      0.07505700      0.01835110       1
H             -45.65910000      6.18018000     20.14160000     -0.03467380     -0.02485370      0.02832830       1
O             -21.70330000    -13.62040000     34.69640000     -0.01755680     -0.02815750      0.04143890       8
H             -21.79110000    -15.34730000     35.63060000      0.01551400      0.03779920     -0.03272130       1
H             -23.12060000    -12.71960000     35.47150000      0.01103830      0.00131421     -0.01390900       1
O              16.38940000     15.63550000     31.99010000     -0.07876500      0.03403610     -0.05590390       8
H              17.59450000     14.43400000     32.35690000      0.03445570     -0.04383210     -0.00151543       1
H              15.47050000     15.32470000     30.06400000      0.04317610      0.01544910      0.05241580       1
O             -20.83340000     -2.17171000     35.10910000      0.02625160     -0.00695049      0.00136411       8
H             -19.22390000     -3.08897000     35.28930000     -0.00215512      0.00997132     -0.00570579       1
H             -21.93910000     -3.53138000     34.48880000     -0.00975565      0.00854186      0.00093333       1
O              41.22300000      7.49116000     35.66450000      0.08409320      0.12341000      0.10157400       8
H              40.51790000      6.12593000     35.22930000     -0.08378560     -0.14776900     -0.06741890       1
H              41.75940000      6.82349000     37.41010000     -0.00025742      0.02305490     -0.03075040       1
O              -9.89926000    -35.00760000     -8.20829000     -0.01600350     -0.02846440     -0.03051410       8
H              -8.10642000    -34.93020000     -8.72817000     -0.01888770     -0.00978795     -0.00182073       1
H             -10.88860000    -36.17520000     -9.52896000      0.03346970      0.03018160      0.02951900       1
O              52.61300000    -18.33050000    -13.01380000      0.05416390      0.05729350     -0.03801850       8
H              54.48140000    -18.25720000    -12.65040000     -0.03841940     -0.00208980      0.00909673       1
H              51.83660000    -19.69680000    -12.34600000     -0.02256660     -0.05974940      0.04153250       1
O              15.55280000      1.01707000     11.45460000      0.09571550      0.01716100     -0.07503890       8
H              14.33010000      1.43676000     12.48010000     -0.09661020      0.04403770      0.08264420       1
H              15.29940000     -0.67882500     11.27330000      0.00161629     -0.06321550     -0.01024280       1
O             -34.44160000     -3.29355000     45.63070000      0.02131770     -0.00413312      0.07832880       8
H             -34.24770000     -3.63485000     43.95510000      0.00500808     -0.01583200     -0.06461590       1
H             -33.00260000     -4.28829000     46.53000000     -0.02934340      0.02034610     -0.01428880       1
O               8.97526000    -10.65700000     -7.54390000     -0.04921890     -0.00250208      0.00335412       8
H               7.76341000    -10.92370000     -6.12773000      0.02278980      0.00776003     -0.01176000       1
H              10.62310000    -10.88690000     -6.94451000      0.02019380      0.00138218      0.01057370       1
O              23.20490000     15.31210000     12.93500000      0.00165983      0.01643930     -0.05280460       8
H              23.69430000     15.77230000     14.56060000      0.01351130      0.01403150      0.02897980       1
H              23.66040000     16.75780000     11.78200000     -0.00983907     -0.02493210      0.01745280       1
O               9.59875000     21.81310000     -9.31839000     -0.03464700     -0.03250760      0.02994460       8
H               8.45302000     21.26120000     -7.68631000      0.02691520      0.01878200     -0.05875830       1
H               8.82504000     21.01050000    -10.85460000      0.01006000      0.01240920      0.01991980       1
O              23.07510000     51.51940000     31.23190000      0.07286080     -0.11944400     -0.06269590       8
H              24.53650000     51.07150000     32.24780000      0.00750784      0.00753899     -0.01518350       1
H              22.34920000     52.71740000     32.03950000     -0.07324820      0.11991300      0.07375100       1
O              -6.60426000      6.67091000      4.79969000     -0.02866510      0.00054496     -0.00703253       8
H              -7.57927000      8.07525000      4.02978000      0.01371130     -0.01897070      0.01058840       1
H              -7.90386000      5.50584000      5.62471000      0.01449070      0.02336130     -0.01119160       1
O              13.98540000    -29.68680000     16.23850000     -0.06026670      0.00018148     -0.05534580       8
H              12.37080000    -29.10290000     15.06960000      0.05849370     -0.00874616      0.05095400       1
H              13.86030000    -31.54470000     16.01400000      0.00661417      0.01290670      0.00932482       1
O               2.64428000     17.08250000     41.04960000      0.00881663      0.01112050     -0.01357580       8
H               2.69767000     15.30230000     41.72370000      0.01188610      0.00731139     -0.00970716       1
H               3.48640000     17.27180000     39.37690000     -0.01513840     -0.02060130      0.02532530       1
O              42.04930000     42.99550000     -0.27097200      0.00902942      0.00650843     -0.01669240       8
H              43.26280000     44.23430000      0.30938100      0.00820740     -0.00096939     -0.00303128       1
H              41.29240000     42.25390000      1.17034000     -0.01470350     -0.01101090      0.01618760       1
O              21.59450000     11.65250000    -30.19970000     -0.01235380      0.03494840     -0.04404690       8
H              21.13980000      9.96483000    -29.85780000      0.00210784     -0.02971620      0.01097840       1
H              20.93370000     11.94990000    -31.95910000      0.00126574     -0.00510278      0.02166830       1
O             -14.86020000     41.27980000      2.76358000      0.00868297      0.00812808      0.05280840       8
H             -16.52900000     40.33800000      2.79241000      0.01461590      0.01967260      0.01492280       1
H             -14.44650000     42.00260000      4.56814000     -0.02295270     -0.02205250     -0.06109090       1
O              11.76520000    -27.90670000     30.88190000     -0.00752958      0.06670260      0.00488015       8
H              12.69040000    -27.09960000     32.21920000      0.01907320     -0.02690170      0.01857450       1
H              11.43670000    -26.12110000     30.21590000     -0.01195880     -0.04097090     -0.02145840       1
O               2.99752000     35.64470000     -0.20332500      0.12613000      0.01393370     -0.07868930       8
H               1.39832000     35.77640000      0.20720600     -0.10762700      0.01171650      0.02016920       1
H               3.45834000     36.57910000     -1.89663000     -0.02538150     -0.02597480      0.05491140       1
O             -12.57780000    -13.76510000     12.75090000      0.02541040      0.01686570     -0.04477100       8
H             -11.26170000    -14.77920000     11.85640000     -0.01677140      0.00978055      0.01869360       1
H             -12.88130000    -12.38660000     11.39990000     -0.00103953     -0.02126990      0.02458040       1
O              -5.75990000      4.60114000     15.80610000      0.00403056      0.02387190      0.01347240       8
H              -4.62355000      5.25329000     17.23690000     -0.01188880     -0.02790660     -0.03432950       1
H              -5.28022000      3.06761000     14.85090000      0.01006030      0.01007670      0.01845740       1
O              26.53730000    -11.71460000     -5.64275000     -0.04325260      0.05454260     -0.01285720       8
H              24.71630000    -11.76780000     -6.32074000      0.04229140     -0.03039960      0.02683360       1
H              27.64150000    -13.11210000     -5.69339000     -0.00035423     -0.03220320     -0.01132850       1
O              21.20960000      6.50830000     44.32130000     -0.06525150      0.01006930      0.00067790       8
H              19.97200000      6.05884000     45.64110000      0.00663211      0.00569932     -0.01189430       1
H              22.72400000      5.86532000     44.94390000      0.04886170     -0.01320540      0.00408264       1
O              14.15920000     26.30020000     46.85400000     -0.05945500     -0.08360400     -0.06693260       8
H              15.27440000     27.28990000     47.67360000      0.06903570      0.02727990      0.03534880       1
H              14.86630000     24.59180000     46.14770000     -0.01881690      0.04745690      0.02955600       1
O             -15.35440000      9.85149000     22.81730000      0.05824880     -0.01075450     -0.00713433       8
H             -13.47260000      9.54219000     22.13320000     -0.05773660      0.01985190      0.00778781       1
H             -15.29810000      9.12514000     24.50410000     -0.01725140      0.00500813     -0.00471497       1
