192
TotEnergy=-1102.51424000 cutoff=-1.00000000 nneightol=1.20000000 pbc="T T T" Lattice="24.59034000       0.00000000       0.00000000      -0.00000100      24.59034000       0.00000000      -0.00000100      -0.00000100      24.59034000" Properties=species:S:1:pos:R:3:force:R:3:Z:I:1
O               7.69520000     10.29670000     24.41370000     -0.00211510      0.00206616      0.00414521       8
H               6.73136000     11.61330000     23.58600000     -0.00061672      0.00189215      0.00190635       1
H               6.38008000      9.47380000     25.36370000      0.00606542     -0.00294924     -0.00073713       1
O               0.44513100     18.45590000     17.78520000      0.00023963      0.00771492      0.00180822       8
H              23.47440000     18.81180000     18.63920000     -0.00201648     -0.00395900      0.00575899       1
H               0.26323000     16.79890000     17.08020000      0.00121371     -0.00122626     -0.00413145       1
O               7.52959000     17.22580000     17.81560000      0.00487025      0.00644712     -0.00469345       8
H               6.50764000     15.78710000     17.20200000     -0.01538960     -0.00864998     -0.01309080       1
H               7.17831000     17.41410000     19.63330000     -0.00271254      0.00593064     -0.00152975       1
O              23.99630000      0.85799000      6.17828000      0.00887340      0.01276760     -0.02113940       8
H              24.47800000      1.47944000      7.79737000      0.00002705      0.00889424      0.01533850       1
H              23.73730000     23.61950000      6.32719000      0.00395814     -0.00548529     -0.00082496       1
O              12.52280000     15.60640000     17.71270000      0.01582030      0.01174520     -0.00443505       8
H              12.61630000     14.14590000     18.75930000      0.00235043     -0.01327860      0.00903566       1
H              10.83670000     16.24190000     17.85210000     -0.00258952     -0.00228631     -0.00532185       1
O               1.97396000      9.72667000     18.73600000      0.00533117      0.00933817      0.01410250       8
H               0.22808000      9.63698000     18.26370000     -0.00673421      0.00004348      0.00340554       1
H               2.01031000     10.23190000     20.51930000     -0.00142061     -0.00153260     -0.01684500       1
O              10.02760000     22.33140000     20.71700000      0.00027225      0.00830455     -0.00236040       8
H              11.62860000     21.66010000     20.15620000      0.00859355     -0.00918699     -0.03139730       1
H               8.83128000     20.95540000     20.52920000     -0.00184907      0.00115173      0.00975589       1
O              22.77960000     11.91080000      1.93513000      0.01631240      0.01419650      0.00241660       8
H              22.85470000     10.12060000      1.70960000     -0.00636195     -0.01970920     -0.00297540       1
H              21.84080000     12.25680000      3.49080000     -0.02591620     -0.00153840      0.01396730       1
O               8.32525000     16.38600000     22.93870000      0.00763801      0.00204035     -0.00402832       8
H               8.05233000     16.07690000     24.71320000     -0.00674301      0.00312149     -0.00743079       1
H              10.10490000     16.07690000     22.74350000      0.00702665     -0.00148700      0.00475016       1
O              18.13640000     17.14640000      9.58943000      0.00451461     -0.00424958      0.00991113       8
H              16.76810000     16.80980000     10.71490000     -0.01376140      0.02630240      0.00760722       1
H              16.91900000     17.78770000      8.30743000      0.00413123      0.00568146     -0.02728570       1
O              16.30860000     21.91550000     13.38900000     -0.00267339     -0.00025561      0.01326440       8
H              17.88740000     21.44230000     12.64470000      0.00590125      0.00142982     -0.00201128       1
H              15.01850000     20.93430000     12.60550000     -0.00271987      0.00038470     -0.00681483       1
O               5.40560000     23.55600000     10.98270000     -0.00513269     -0.00177036     -0.00128006       8
H               6.66355000     22.83740000     12.13830000      0.00136435     -0.00344103      0.00187694       1
H               5.84111000     22.97670000      9.32780000      0.00539387      0.00007880     -0.00166743       1
O               4.66616000     19.25660000      2.18675000     -0.00750848     -0.00138668     -0.01711470       8
H               5.43217000     20.74680000      2.89124000     -0.00175707      0.00090782      0.00115874       1
H               4.93002000     17.94760000      3.40342000     -0.00521010     -0.01356950      0.00944864       1
O              22.72770000      6.11886000      0.73149000     -0.00143044      0.01287900     -0.00052735       8
H              24.38190000      5.51080000      0.36639400      0.00130779      0.00058877     -0.00329643       1
H              21.55390000      4.76046000      0.93810300     -0.00416300     -0.00310262      0.00217422       1
O               5.12140000      1.91781000     17.04750000     -0.00989579      0.01150040     -0.00809427       8
H               4.83216000     24.78670000     17.51390000     -0.00241223     -0.00778641      0.00021845       1
H               3.74590000      2.39548000     15.89690000      0.01634020     -0.00306034      0.01134850       1
O              13.43760000      7.91372000      7.59418000     -0.00147609      0.01991500      0.02720550       8
H              12.73200000      8.24226000      5.93125000     -0.00763624      0.03396810     -0.01506420       1
H              15.07390000      8.86643000      7.68124000      0.00416759     -0.02578040     -0.01502540       1
O              11.91090000      5.62901000      5.87623000      0.01840570      0.00080276     -0.00243627       8
H              10.86720000     11.40950000    -10.48940000      0.00644258      0.00688522     -0.00037251       1
H               3.99854000      2.51154000      2.87721000      0.04748900     -0.00946493      0.00098198       1
O              18.02380000     11.65330000      4.45047000      0.01121560     -0.01014050      0.00626958       8
H              16.92800000     12.93180000      3.79824000      0.00185507      0.00505200     -0.00432095       1
H              17.24310000     14.99730000     11.87550000     -0.04602370     -0.01415220      0.00702387       1
O               3.17747000      4.19935000      9.99786000     -0.02364910     -0.00583551     -0.00062699       8
H               4.58776000      4.74764000      9.05062000      0.00980849      0.00859542     -0.00597601       1
H               3.38713000      2.42208000     10.23010000      0.01155310     -0.00536272      0.00958096       1
O              15.41910000      8.36240000      1.62737000     -0.00038059     -0.00691632     -0.00177972       8
H              16.76300000      9.18798000      2.66942000     -0.01000390      0.01173690     -0.00188199       1
H              15.02630000      9.52592000     24.87160000      0.00517152      0.00141039      0.00600658       1
O              21.00300000      5.48704000     19.41110000     -0.01971050     -0.00491060     -0.00917434       8
H              20.82040000      5.60760000     21.20530000     -0.00178507      0.00341364      0.00248496       1
H              19.29070000      5.19612000     18.74810000      0.01810930     -0.00240934      0.00904967       1
O              13.65390000     11.22870000     21.65070000     -0.00233217      0.01012390      0.00414274       8
H              12.12940000     10.26880000     21.71930000     -0.00621285     -0.00382348      0.00047027       1
H              14.60840000     10.52330000     20.29940000      0.00357786     -0.00736754     -0.00948138       1
O              22.47070000     15.04490000     13.62480000     -0.00798682     -0.00211451      0.01117220       8
H              21.85510000     15.50570000     11.99740000      0.00075559      0.00178763     -0.00728132       1
H              22.85800000     13.27130000     13.52030000      0.00569526     -0.00384669     -0.00293332       1
O              11.05730000      1.66776000     14.75420000      0.00293455      0.00345515      0.00185463       8
H               9.46678000      2.02525000     15.55270000     -0.00468078      0.00262052      0.00036896       1
H              10.94490000      2.44060000     13.11050000      0.00051340     -0.00429861     -0.00033041       1
O              10.84550000     18.83510000      9.71836000      0.00615764      0.00550616     -0.00044251       8
H              10.06650000     17.25990000     10.29660000      0.00853563     -0.00228279     -0.01483410       1
H              10.67300000     19.95100000     11.20510000     -0.00804109      0.00119513      0.00280568       1
O               2.29131000      9.77406000      7.36689000      0.00204967     -0.00167477      0.00935628       8
H             -85.68630000     -2.05073000     -2.38235000      0.00526383     -0.00092099      0.01357690       1
H               2.88295000     11.13090000      6.33297000     -0.00282181      0.00166619     -0.00293708       1
O               9.82244000     13.81240000     10.24970000      0.00729273      0.01116200     -0.00289690       8
H              10.32070000     12.67930000      8.91577000      0.00089521      0.00372059     -0.00603445       1
H               8.02409000     13.51640000     10.45460000     -0.00430746     -0.00771089      0.00352125       1
O               9.84487000      4.65858000      2.07172000     -0.00488063     -0.00201819     -0.00468864       8
H              10.98480000      6.05798000      1.85010000     -0.00022027      0.00277494      0.00060748       1
H              10.86110000      3.43439000      2.93257000      0.00249628     -0.00499611     -0.00480484       1
O              21.55330000      6.41133000      6.64233000     -0.00985336     -0.01258800      0.00355697       8
H              21.10930000      5.36060000      5.22165000      0.00300713      0.00849120      0.00461390       1
H              23.20880000      7.08175000      6.39381000      0.01295100      0.00879844     -0.00211976       1
O               8.86291000     20.79110000     14.15140000     -0.00691472     -0.01666970      0.01461420       8
H               7.71840000     18.80070000     16.48780000      0.00870738      0.00953101     -0.00594069       1
H               9.70193000     22.28580000     14.78680000     -0.00321118     -0.00605127      0.00151193       1
O              24.45690000     23.18580000     24.07300000     -0.01211980     -0.00404866     -0.01139850       8
H              -0.68959200     22.81340000      1.15791000     -0.00100988     -0.00627136      0.00453986       1
H              23.21340000     22.24910000     23.05490000      0.01124800      0.00770576      0.00827270       1
O               4.46143000     14.95920000      5.46430000     -0.00031042      0.01354680     -0.00714421       8
H               4.16628000     15.96460000      6.96127000      0.00312850     -0.00476631      0.00187091       1
H               6.25026000     14.73640000      5.34218000      0.00529035     -0.00582737      0.00647101       1
O              15.12940000      9.47515000     16.43710000      0.00905021      0.00374106      0.01408670       8
H              15.19540000      7.75823000     15.86030000     -0.00402478     -0.00671802     -0.00102747       1
H              15.62350000     10.51630000     15.06080000     -0.00814049     -0.00072259     -0.00254617       1
O              21.11540000     17.78920000      3.13003000      0.00872865      0.00025119     -0.00452690       8
H              21.32610000     18.65120000      4.70136000      0.00135075     -0.00191310     -0.00123531       1
H              19.34920000     17.65910000      2.82808000     -0.00843243     -0.00504964     -0.00114734       1
O              20.36170000     18.86710000     21.76290000      0.00689332      0.00027081     -0.00283242       8
H              19.30940000     18.99100000     20.29880000     -0.00689351      0.00167601      0.00041401       1
H              19.98770000     17.16560000     22.46160000     -0.00297278     -0.00123757      0.00143027       1
O              23.72910000     20.11200000      7.11913000     -0.00949984      0.00850958      0.00809792       8
H              22.46370000     19.60710000      8.34447000      0.00488863      0.00576342     -0.00203545       1
H               0.70388400     19.70720000      7.93160000      0.00575029     -0.00603405      0.00214703       1
O              17.37800000      0.14779600      7.66813000      0.01029060      0.00311495     -0.00175479       8
H              15.65650000      0.27148300      8.19460000     -0.01064690      0.00691911      0.00517067       1
H              17.60580000      1.50870000      6.46856000     -0.00060866     -0.00797378     -0.00111075       1
O              17.28830000     10.53180000     10.85940000      0.00068889     -0.00162911     -0.01909520       8
H              16.69540000     11.64990000     12.11170000     -0.00613477     -0.00139704      0.00912774       1
H              18.05200000      9.12196000     11.66460000      0.00966211     -0.00562532      0.00362884       1
O               3.82444000     17.80650000     10.23380000     -0.00156980     -0.00542627     -0.00072297       8
H               4.22603000     19.32790000     11.13420000      0.00289838      0.00345335      0.00263731       1
H               4.15750000     16.42990000     11.37990000     -0.00512700      0.00270765     -0.00167233       1
O              14.82730000     19.48640000      6.36086000     -0.04279990     -0.01736810      0.03661070       8
H              15.50360000     21.21540000      6.30368000     -0.01560710     -0.01483080      0.01038740       1
H              12.85410000     19.03750000      7.73142000      0.05337920      0.02714500     -0.02581950       1
O              17.64160000      3.32353000      2.80143000      0.00696319     -0.00534394      0.01086980       8
H              16.98290000      2.08960000      1.65138000     -0.00017236     -0.00401381     -0.00032660       1
H              16.20820000      4.02883000      3.66378000     -0.00212760      0.00978188     -0.00887215       1
O              18.67040000     14.21090000     23.49890000      0.00271893      0.01062020      0.00269678       8
H              18.59580000     13.11440000     22.04930000     -0.00659864      0.00344299      0.00521008       1
H              21.76590000     12.71050000     25.19790000     -0.02059800      0.00776971     -0.01134500       1
O              20.71260000     11.09690000     18.43140000      0.00875564      0.00209748      0.00629740       8
H              20.35390000     12.47070000     17.32920000     -0.00106917      0.00528481     -0.00479066       1
H              19.58610000      9.76908000     17.97630000     -0.00424243     -0.00510351     -0.00132729       1
O              14.86210000     14.85650000     12.83460000      0.03385030     -0.00109708     -0.00635492       8
H              13.10320000     14.22280000     12.36280000      0.00313460     -0.01281350     -0.00502110       1
H              14.68680000     15.53570000     14.51590000     -0.00410395      0.00140758      0.01585960       1
O               3.17554000      4.29380000     22.27080000     -0.00191850     -0.00527297      0.00410172       8
H               1.66213000      3.49834000     21.68480000     -0.00168018     -0.00109466     -0.00593348       1
H               4.26136000      4.17902000     20.80670000      0.00151812      0.00096935     -0.00026691       1
O              16.53020000      4.38072000     15.56340000     -0.01473910     -0.00144703      0.02616920       8
H              17.49950000      5.10796000     14.28370000      0.02408260      0.00443313     -0.02590970       1
H              15.84250000      2.86892000     14.86110000     -0.00533744     -0.00684501     -0.00242872       1
O              14.61580000      3.00923000     20.83490000      0.00224287     -0.00659478      0.00675271       8
H              14.22420000      3.43629000     19.12730000     -0.00134943      0.00007658     -0.00601848       1
H              13.08400000      3.26480000     21.76250000     -0.00138714      0.00304022      0.00152492       1
O              20.64380000      4.22139000     11.40500000     -0.00543859      0.00054833      0.00820410       8
H              19.63260000      2.92545000     10.63870000     -0.00006059     -0.00350755     -0.00143325       1
H              21.23320000      5.23067000     10.00180000      0.00010129      0.00296604     -0.00621399       1
O              10.91140000     12.42040000      4.77138000      0.00256475      0.00688801      0.00220598       8
H               9.98511000     11.85210000      3.32688000     -0.00220896     -0.00516228     -0.00597158       1
H              12.42790000     13.15850000      4.06658000     -0.00129117      0.00059112     -0.00122668       1
O              16.59600000     23.11630000     24.24320000     -0.00492147     -0.00369766      0.00419668       8
H              17.30850000     21.53750000     23.67450000      0.00230667      0.00024062     -0.00218729       1
H              15.86340000     23.89750000     22.78140000      0.00396283      0.00460441     -0.00803904       1
O               2.29735000      2.85879000      3.02885000     -0.06763820      0.00779080      0.01646620       8
H               0.85840500      1.98091000      4.59899000      0.00888739     -0.01742880      0.00861486       1
H               1.49414000      2.48843000      1.45390000      0.00535368     -0.00467075     -0.01415770       1
O               4.20165000     13.83940000     15.74260000      0.00896888      0.00391097      0.00260953       8
H               4.86541000     12.88110000     14.32360000     -0.00136816     -0.00330311     -0.00582370       1
H               3.21241000     12.59500000     16.66240000      0.00238735      0.00018505      0.00514314       1
O              24.15160000      3.24289000     15.55610000      0.00080343     -0.00494433     -0.00575422       8
H              23.75160000      3.36411000     17.31560000     -0.00388768      0.00173205      0.00321376       1
H              23.01450000      4.43462000     14.78630000      0.00149304     -0.00248297     -0.00521285       1
O               5.01786000      7.28471000     14.73290000      0.00094071     -0.00249184     -0.00090259       8
H               3.22387000      7.18325000     14.51700000      0.00201057     -0.00288003     -0.00105508       1
H               5.20018000      8.46326000     16.08740000     -0.00000363     -0.00081006      0.00311324       1
O               7.84344000     22.56400000      5.43308000     -0.01766140      0.00769847     -0.00528319       8
H               8.57957000     23.30840000      3.94777000      0.00777633      0.00305115     -0.00451508       1
H               9.22799000     21.93520000      6.37252000      0.01100590     -0.01038310      0.00837724       1
O              22.34460000     22.58550000     13.65530000      0.01632530      0.06122860      0.00508575       8
H              22.88080000     24.67800000     13.88980000     -0.01064300     -0.09648830      0.00605551       1
H              23.32450000     21.32080000     14.63340000     -0.00467429      0.03572840     -0.00935463       1
O              15.19340000     20.20230000     18.86050000      0.00078282      0.01213390      0.00633718       8
H              14.65360000     18.47750000     18.80770000     -0.00469235     -0.00955372     -0.00272301       1
H              15.55210000     20.73480000     17.15350000     -0.00099682      0.00231244     -0.00273260       1
O              12.14250000      1.99316000      8.87293000     -0.00392360     -0.00489290      0.01491780       8
H              10.56360000      1.73306000      8.03164000     -0.00325213     -0.01000370      0.00178656       1
H              12.31080000      3.77477000      8.43790000      0.00641165     -0.00398967     -0.00370299       1
O              14.54720000     16.18040000      0.79291200      0.01685980     -0.01192700     -0.01379490       8
H              16.51940000     15.09880000     -0.24547700     -0.00540689      0.00848403      0.00999096       1
H              14.92650000     17.62260000      1.84374000      0.00331817     -0.00895111     -0.00316574       1
O              23.87230000      9.75591000     11.95110000      0.00955058     -0.00708844     -0.00282592       8
H              23.74370000     10.82070000     10.48540000      0.00069576     -0.00209650     -0.00819382       1
H               0.70812600      8.72790000     11.36900000     -0.00990937      0.00801560      0.00461230       1
O               3.13907000     13.04050000     23.92990000     -0.00821080      0.03170330      0.00045342       8
H               2.51012000     12.41170000      0.93203300      0.00052699      0.00896468      0.00042333       1
H               2.23974000     17.34150000     24.69720000      0.01838550     -0.03168840      0.00427832       1
O              10.96050000     23.79910000      1.17713000     -0.00074593     -0.00031209      0.01347940       8
H              11.95580000     22.34720000      1.63368000      0.00323607      0.00019518     -0.00248608       1
H              10.33240000     23.47220000     24.09870000     -0.00528652     -0.00028025     -0.00020809       1
O               4.39469000     21.56410000     19.60790000      0.00606907     -0.00191022     -0.00269246       8
H               3.02342000     20.46120000     19.09370000     -0.00080904     -0.00163925     -0.00161743       1
H               3.97360000     22.15060000     21.25750000     -0.00519338      0.00136929      0.00575351       1
O               5.44751000     11.28170000     10.99620000      0.00709504      0.01428150     -0.00334759       8
H               4.24658000     10.64150000      9.62411000     -0.00797866     -0.00348654     -0.00707306       1
H               6.94598000     10.26280000     10.88910000     -0.00847865     -0.00760007      0.00679710       1
