192
TotEnergy=-1103.48853000 cutoff=-1.00000000 nneightol=1.20000000 pbc="T T T" Lattice="24.38539000       0.00000000       0.00000000      -0.00000100      24.38539000       0.00000000      -0.00000100      -0.00000100      24.38539000" Properties=species:S:1:pos:R:3:force:R:3:Z:I:1
O              20.49980000      1.74396000    -32.08050000     -0.04599520     -0.02943630      0.04694070       8
H              21.19940000      2.21418000    -30.37240000     -0.00716835      0.00410102     -0.02012830       1
H              18.95900000      0.62653400    -31.53060000      0.04506810      0.02825420     -0.02808530       1
O              45.12430000     44.90340000     10.18640000     -0.02533670      0.00803687     -0.00883407       8
H              46.14640000     43.90840000      9.08960000      0.01547910     -0.00660864     -0.00439703       1
H              43.74480000     45.37100000      9.02924000      0.01637120     -0.00223588      0.02006190       1
O              13.53990000     -1.06043000     20.29030000      0.01119960      0.05892830      0.05153820       8
H              12.48950000     -2.33585000     19.83590000     -0.05427630     -0.04355480     -0.02035810       1
H              14.99210000     -1.40670000     19.42240000      0.05270210     -0.00817464     -0.04127490       1
O              -3.74393000     -9.40923000     -0.05811200      0.01020100      0.01961910     -0.02224900       8
H              -3.25503000     -7.65806000     -0.58289400     -0.00964151     -0.01941250      0.00592826       1
H              -3.59857000     -9.47721000      1.71218000      0.00220765      0.00477237      0.02360350       1
O               5.11979000     33.44830000     20.67510000     -0.02278010      0.07852180     -0.06588520       8
H               5.68728000     34.40250000     19.03680000     -0.02243230     -0.01062120      0.05042620       1
H               6.29229000     32.21690000     20.48880000      0.04355500     -0.06179890      0.00565537       1
O              -1.67557000     12.69660000      9.71990000     -0.02427980      0.02135670      0.02268220       8
H              -1.02752000     11.56790000      8.55236000      0.01946220     -0.03434070     -0.03241120       1
H              -0.36610400     13.90670000      9.95288000      0.01324500      0.01603380      0.00046523       1
O              38.31330000     23.16190000     12.28990000      0.02250470     -0.02531870     -0.07332280       8
H              38.99030000     22.89290000     10.34390000     -0.01713640      0.01701620      0.06760720       1
H              37.53350000     21.50790000     12.52330000     -0.00483095      0.00317517      0.01140060       1
O              -0.62051200    -24.18740000     13.19500000     -0.01925640     -0.04139560     -0.05965170       8
H              -1.68349000    -25.31410000     11.94290000      0.04057430      0.03548630      0.03576390       1
H              -1.73433000    -24.00900000     14.57890000     -0.02098630      0.00578474      0.02035030       1
O              32.55810000    -36.36770000     17.32010000      0.02875280      0.00541163      0.08222630       8
H              33.66310000    -37.72960000     17.92610000     -0.00344934     -0.00774394     -0.02718710       1
H              33.00180000    -35.42720000     19.10830000     -0.02555100      0.00012875     -0.05932540       1
O               8.67471000    -26.69610000    -22.10010000      0.04146560     -0.02844390      0.00389140       8
H              10.47900000    -26.27790000    -22.27100000     -0.00045039     -0.02213880     -0.00598343       1
H               8.19610000    -25.04050000    -22.33710000     -0.03725380      0.05468960     -0.00088064       1
O             -12.24690000      2.66735000      6.11515000      0.02410770      0.01786600     -0.02076290       8
H             -13.94500000      2.64339000      5.43073000      0.00271003      0.00328842     -0.00423130       1
H             -11.19580000      3.63972000      4.82750000     -0.02636100     -0.02228170      0.02237620       1
O             -10.91540000     33.73350000     51.48430000     -0.00173127     -0.02167720      0.02304170       8
H              -9.62846000     34.33260000     50.34890000     -0.00659248      0.01559500     -0.01170270       1
H             -12.48230000     34.67960000     51.64050000      0.01172700      0.00440938     -0.01636490       1
O              15.95150000    -30.28890000    -19.83410000     -0.02265910     -0.07647380      0.04410780       8
H              17.13930000    -31.83670000    -19.39040000      0.00584472      0.05546700     -0.02323820       1
H              14.56510000    -31.27890000    -18.93040000      0.01188410      0.04010550     -0.02576980       1
O              26.12980000     17.11330000     34.12890000      0.03018580      0.01952520     -0.00784230       8
H              27.39060000     18.07370000     33.01350000     -0.03023660     -0.02997500      0.03765800       1
H              26.78620000     16.99240000     35.89500000     -0.00410832      0.01032420     -0.02844800       1
O              -2.11162000      3.74852000     -3.36384000     -0.00886681      0.06601760     -0.07140950       8
H              -0.57980000      4.53972000     -4.32634000     -0.03469960      0.00022649      0.01958880       1
H              -1.45747000      2.56588000     -2.36335000      0.04029890     -0.06598360      0.06278710       1
O             -27.84560000     20.41500000     28.71650000     -0.05966260      0.03870850     -0.00052353       8
H             -29.87450000     20.75310000     28.61180000      0.08996300     -0.00947173      0.00483022       1
H             -26.94100000     22.01920000     29.21850000     -0.02161840     -0.02232340     -0.00697928       1
O             -31.67520000     11.43570000     23.58560000     -0.05847750      0.00556555     -0.02684390       8
H             -33.08790000     12.24110000     22.38230000      0.06112460     -0.02109190      0.03628160       1
H             -30.55300000     12.71760000     24.22140000     -0.00356048      0.01267480     -0.01172280       1
O             -15.69750000     60.94730000    -21.58850000     -0.02433650     -0.04060710      0.00793006       8
H             -15.40890000     61.16900000    -19.72320000     -0.01994660     -0.00880752     -0.01862820       1
H             -17.28060000     59.79820000    -22.01640000      0.04093080      0.04404690      0.02114440       1
O              65.42750000     21.90020000     40.78860000     -0.01735900      0.05195250      0.02465210       8
H              64.71760000     22.27930000     39.15910000     -0.00562854      0.00138959     -0.01031490       1
H              66.36940000     20.45950000     40.72830000      0.03190300     -0.05038000     -0.00782653       1
O              55.85370000    -21.69920000      3.47524000      0.16342400      0.01417970     -0.12982000       8
H              54.94980000    -22.18000000      4.66978000     -0.12901700     -0.06014940      0.15550500       1
H              55.16640000    -20.41160000      2.56542000     -0.02997060      0.04447680     -0.03201310       1
O              32.71630000     17.53950000    -13.96780000      0.02695250     -0.04701210      0.01953650       8
H              33.31090000     15.73850000    -14.08280000     -0.02673670      0.02572040     -0.02529210       1
H              33.52760000     17.69190000    -12.34170000     -0.00021847      0.02717970      0.00958870       1
O             -10.40680000      7.04863000     62.23060000      0.02988750      0.00272384      0.00063905       8
H             -11.68100000      5.85754000     61.57030000      0.02747300     -0.00575435     -0.00219878       1
H              -8.43956000      6.69010000     61.97400000     -0.06323990     -0.01016090      0.00303334       1
O               6.62605000      4.23693000     -4.86194000     -0.00624476     -0.01538620     -0.01484140       8
H               8.34355000      3.87728000     -4.36233000      0.00209938     -0.00364139      0.00376648       1
H               6.10743000      3.07891000     -6.22047000      0.00731488      0.01279850      0.01549500       1
O              43.70180000      6.79032000     24.35840000      0.01490240     -0.16889800      0.05869080       8
H              43.55820000      8.33349000     23.86080000     -0.01405470      0.13236900     -0.06002780       1
H              44.55760000      5.55121000     23.24220000     -0.00301656      0.03190490      0.00273045       1
O               0.81367800     57.90470000     30.65430000      0.00911585      0.00555423      0.00230216       8
H              -0.59957800     56.83310000     30.19540000      0.00815947      0.00571402     -0.00918296       1
H               2.10354000     58.08090000     29.31490000     -0.02250800     -0.00684617      0.00488537       1
O               8.74683000     37.02620000      8.09392000      0.02086470      0.02453500     -0.01351210       8
H               7.74857000     35.64790000      8.43994000     -0.05576050     -0.03549180      0.00447648       1
H              10.14870000     36.35280000      9.00730000      0.03480840      0.00685091      0.00779989       1
O             -14.94750000     20.94570000     18.68930000      0.03917410     -0.08056230      0.05613420       8
H             -16.58040000     21.53260000     18.43200000     -0.04204020      0.01191740     -0.00883219       1
H             -15.06190000     19.37690000     20.01020000      0.00137748      0.05383200     -0.05536120       1
O              27.95390000     34.54380000     50.16120000      0.00706026      0.01600270      0.04273440       8
H              26.72630000     35.68960000     49.41440000      0.01326430     -0.01373020     -0.01460080       1
H              28.65350000     33.26260000     49.10800000     -0.01752030     -0.00315328     -0.01689470       1
O              12.25920000     32.74730000     18.27810000      0.01719200      0.02518310     -0.08717500       8
H              12.56330000     32.21990000     16.36570000      0.00479986      0.02517540      0.04988450       1
H              11.61610000     31.22460000     18.78440000     -0.01790800     -0.04764430      0.03876150       1
O               0.70952300    -23.43250000     24.98870000     -0.04176470      0.05143210     -0.00082283       8
H              -0.21202000    -22.95010000     26.60540000      0.03961150     -0.03394050     -0.02256930       1
H               1.99833000    -24.64470000     24.58280000      0.00135728     -0.02295140      0.02726550       1
O               3.91594000     17.18330000     -3.30310000      0.04861520     -0.04914980      0.00268190       8
H               5.75291000     16.62200000     -3.42711000     -0.03682460      0.02596370     -0.00027329       1
H               3.31674000     15.48390000     -2.79904000     -0.01541730      0.01932790     -0.00088239       1
O               3.24999000      2.51174000     15.68380000     -0.08964950      0.02526980     -0.01608680       8
H               1.70743000      1.97283000     14.46890000      0.05416990     -0.00230482      0.02021260       1
H               2.09066000      3.90271000     16.54100000      0.03756520     -0.02074370     -0.01212830       1
O             -37.31820000     52.53950000    -27.07640000      0.07616260     -0.04851290     -0.00019420       8
H             -36.67390000     50.97760000    -28.09460000     -0.02160830      0.04094370      0.02830720       1
H             -35.73220000     52.59450000    -25.78570000     -0.05721630      0.00662921     -0.02920730       1
O               4.27769000     49.69500000    -17.17140000      0.01361730     -0.02066470      0.02793610       8
H               4.64108000     50.90100000    -15.78380000     -0.00627882     -0.01643860     -0.00718917       1
H               4.96087000     47.93390000    -16.63220000     -0.01152070      0.03576170     -0.01808290       1
O             -32.47320000     35.08150000      6.78488000     -0.01565640     -0.04890580     -0.04485450       8
H             -33.55390000     34.03830000      5.38962000      0.00813547      0.04675010      0.03442780       1
H             -30.98450000     34.00890000      6.37694000      0.00160008      0.01878090      0.01468950       1
O              20.71090000     35.46260000     13.86160000      0.08024920     -0.09480740      0.01582930       8
H              19.36050000     36.02150000     14.61790000     -0.09741760      0.06117690      0.03072010       1
H              21.60020000     36.01360000     12.43930000      0.00243676      0.03356250     -0.04331850       1
O             -13.32310000    -21.39250000     11.30740000     -0.10274100      0.16419100     -0.08565600       8
H             -12.49160000    -21.13200000      9.76177000      0.01484420     -0.01069440     -0.02458040       1
H             -12.71780000    -22.50700000     12.24230000      0.08672120     -0.15166500      0.10668700       1
O             -47.86880000      6.30197000     18.14320000      0.04818940      0.05576880     -0.00356804       8
H             -48.42950000      8.17793000     17.52570000      0.00857808     -0.03760860      0.01682730       1
H             -46.08780000      6.84926000     18.80800000     -0.04783990     -0.01447480     -0.00620279       1
O             -19.78510000    -15.36530000     34.48310000     -0.04237550     -0.07988660      0.01829100       8
H             -20.09290000    -17.36370000     35.00360000      0.03411970      0.06957090     -0.01713430       1
H             -21.49130000    -15.16480000     33.75940000      0.01970500      0.01006200     -0.00357714       1
O              19.32890000     15.14650000     30.03020000     -0.00367280     -0.01912150      0.00989511       8
H              20.83590000     14.63120000     30.94920000     -0.00727487      0.00763299      0.00033284       1
H              18.00910000     14.06130000     30.73050000      0.01080070     -0.01345910     -0.00506094       1
O             -20.17140000     -2.25236000     41.98530000     -0.01693730      0.01338770      0.01359340       8
H             -20.58380000     -2.00438000     43.73360000      0.00856077     -0.01922230      0.01672550       1
H             -21.07650000     -0.72763600     41.50790000      0.01054500      0.00518287     -0.02734360       1
O              43.78030000      3.20513000     32.83820000     -0.00128191     -0.03880980     -0.05911290       8
H              43.53630000      4.06359000     34.36840000     -0.01448860     -0.00175941      0.03120800       1
H              42.79450000      1.62814000     32.39410000      0.01501610      0.04133630      0.02798860       1
O              -8.73839000    -34.05090000     -9.92781000     -0.00731792     -0.01163020     -0.00713404       8
H              -6.98575000    -33.46540000    -10.19960000     -0.01869700     -0.00086261     -0.00908454       1
H              -9.73396000    -34.75320000    -11.37650000      0.02880780      0.00672946      0.01625880       1
O              54.60750000    -20.31290000    -12.92750000     -0.08650660      0.00907591      0.05646910       8
H              56.24110000    -20.65330000    -13.35750000      0.06366300     -0.01131130      0.00153779       1
H              54.14440000    -20.58440000    -10.99900000      0.01537120     -0.00293767     -0.05845000       1
O              15.85580000     -1.37924000      7.44020000      0.00147415      0.02411480      0.02026440       8
H              14.41150000     -0.63783400      6.65382000     -0.01112280      0.01644640     -0.00552829       1
H              16.04590000     -2.91134000      6.57804000      0.00308842     -0.03616280     -0.01726130       1
O             -38.64830000     -8.76002000     45.01260000      0.00066997      0.00145166     -0.00607769       8
H             -37.10270000     -9.65605000     44.48280000     -0.00180493      0.01388670      0.00937389       1
H             -38.69450000     -8.32009000     46.83100000      0.00185616     -0.00905947      0.00202530       1
O               3.88143000    -12.21750000    -10.04770000     -0.03468240      0.01007690     -0.00367962       8
H               5.26365000    -11.96830000     -9.00199000      0.03801820      0.01342950      0.02597300       1
H               4.41628000    -13.56880000    -11.08800000     -0.00185837     -0.01642780     -0.02411160       1
O              20.17210000     17.40480000     14.78530000      0.02513770      0.04414410     -0.04825290       8
H              20.41830000     18.56380000     13.06180000     -0.00395499     -0.04150780      0.06381640       1
H              21.82170000     17.47230000     15.69470000     -0.02354480      0.00161457     -0.02286930       1
O              12.01140000     18.64290000     -9.86849000     -0.02984940      0.00751488      0.06252760       8
H              13.14050000     17.21290000     -9.34686000     -0.01852520      0.02716330     -0.00382592       1
H              10.95240000     19.39330000     -8.18663000      0.04177190     -0.03054020     -0.06114810       1
O              23.68810000     49.51380000     30.48870000      0.04550720      0.02054960      0.01808170       8
H              22.93940000     50.67730000     31.75600000      0.00546376     -0.01777190     -0.01944410       1
H              25.71310000     49.63180000     30.84140000     -0.05500580     -0.00693774     -0.00558392       1
O              -4.29030000      7.65808000      5.30430000      0.03661160      0.08349150     -0.05464990       8
H              -4.86492000      6.29011000      6.03865000     -0.03516560     -0.10298400      0.06746490       1
H              -4.56096000      7.21418000      3.55713000      0.00504294      0.00892140     -0.01560050       1
O              13.84240000    -26.19900000     25.10140000      0.02003420     -0.00745133     -0.01842150       8
H              14.47960000    -27.83430000     25.69910000     -0.00260160      0.01627890     -0.00977432       1
H              14.22990000    -25.98310000     23.15750000     -0.02007290     -0.00938207      0.04091420       1
O              -2.81877000     19.66630000     47.09410000      0.04619500      0.04894140     -0.02238420       8
H              -1.37460000     20.53540000     46.06630000     -0.04715320     -0.03234350      0.03447530       1
H              -2.94613000     20.74080000     48.60280000      0.00229708     -0.01191360     -0.00897005       1
O              33.39740000     40.91220000      0.88356800     -0.00302767      0.05810290      0.01821230       8
H              33.00490000     42.57120000      1.88792000      0.01296180     -0.06502380     -0.02721090       1
H              33.39290000     39.22070000      1.75408000     -0.01226010      0.01826870      0.00398818       1
O              26.08930000     17.73140000    -33.38800000     -0.01625650     -0.03927710      0.01512770       8
H              25.86520000     16.01590000    -32.41360000      0.02266220      0.07637240     -0.02049970       1
H              26.81630000     19.27150000    -32.56450000     -0.00540156     -0.03750670      0.00597526       1
O             -20.51930000     45.98510000     -0.72713900      0.01023500      0.00527281      0.00210614       8
H             -20.82030000     44.29730000     -1.36112000     -0.00225403     -0.00810734     -0.00383260       1
H             -18.89860000     45.81900000      0.10335300     -0.00422737      0.00382879     -0.00052337       1
O               6.53225000    -28.06950000     31.27190000     -0.01777190      0.00486114      0.01596610       8
H               7.26577000    -28.90350000     32.74380000      0.00735255     -0.00330241     -0.01100560       1
H               7.76483000    -27.55210000     30.05300000      0.00533619     -0.00213791     -0.00257287       1
O               3.87605000     29.61010000     -0.18158100      0.00091910     -0.10166800     -0.04300960       8
H               4.85925000     28.77790000     -1.69347000     -0.02150110      0.03770750      0.03881270       1
H               2.79068000     27.89680000      0.10840200      0.01990630      0.06065470      0.00339139       1
O             -11.45890000    -13.11160000     10.78200000     -0.00427891      0.00190635      0.01486830       8
H             -11.50200000    -14.64090000     11.83660000      0.00620089      0.00945607     -0.00424977       1
H             -10.01370000    -13.36050000      9.70090000      0.00433495     -0.00388502     -0.01209000       1
O              -5.16567000      5.76236000     13.14350000     -0.02067460      0.03712300     -0.02691630       8
H              -4.78741000      7.50684000     13.59410000      0.01009820     -0.00626753     -0.00416209       1
H              -4.71963000      4.73173000     14.50470000      0.01000090     -0.02622410      0.03004810       1
O              25.06380000    -11.40240000     -2.05307000      0.20969900     -0.00347294      0.05579080       8
H              24.88860000    -12.48490000     -3.25951000     -0.02063140     -0.08976550     -0.10522900       1
H              23.73360000    -10.66980000     -1.66627000     -0.18753700      0.09433150      0.05073450       1
O              24.33270000     11.17120000     41.72830000     -0.03258390     -0.00313808     -0.00591561       8
H              22.71350000     11.24580000     40.62810000      0.04296390      0.00279348      0.01188740       1
H              25.78030000     11.98180000     40.89430000     -0.00976107     -0.01441270     -0.01228330       1
O              14.82890000     27.78620000     50.19340000      0.03171800      0.00065620     -0.00119723       8
H              16.48920000     28.76500000     50.06660000     -0.03600210     -0.02922150     -0.00118485       1
H              14.98000000     25.89040000     50.22640000      0.00728645      0.03039740     -0.00139856       1
O              -9.95321000     13.07780000     19.35710000      0.03363070      0.04742890     -0.01537170       8
H              -9.02082000     13.20880000     17.74050000      0.00227783      0.03874260      0.01187180       1
H             -10.38600000     11.51200000     18.81840000     -0.04353610     -0.08553880      0.00614575       1
