192
Lattice="24.70777 0.0 0.0 0.0 24.70777 0.0 0.0 0.0 24.70777" Properties=species:S:1:pos:R:3:force:R:3 TotEnergy=-1103.38799 cutoff=-1.0 nneightol=1.2 pbc="T T T"
O        0.78053000      22.91960000      13.57864000      -0.07745080       0.06755820       0.11185700
H       23.62530000      22.40854000      13.75644000       0.02324910       0.01453610      -0.00211978
H        1.38933000      22.03267000      12.36264000       0.06190960      -0.08247490      -0.10871700
O        3.35966000      23.36253000      23.30273000      -0.05404180       0.02776680      -0.01124400
H        1.81046000      24.37873000      23.90482200       0.04595360      -0.02430920      -0.01850910
H        3.16066000      23.27923000      21.38982000       0.00243644      -0.00416909       0.02724660
O       12.20330000       1.91864000      17.67450000       0.06943280      -0.03635660       0.05018100
H       13.36490000       2.43573000      19.44000000      -0.04094050      -0.01592790      -0.07238300
H       12.81340000       0.01879400      17.16130000      -0.02541310       0.06440980       0.01625040
O       21.06237000      12.49247000      21.85315000      -0.02246440      -0.08398460      -0.00206043
H       21.07247000      11.78187000      20.17263000      -0.00109299      -0.00652564       0.00326519
H       21.50262000      14.09537000      21.56843000       0.02059980       0.09061020      -0.00334068
O        5.10891000      10.08263000      16.61450000       0.03415050      -0.06222090      -0.04942920
H        6.15564000      10.41953000      18.05410000       0.00283564       0.00607191       0.00413478
H        6.17134000       8.41973000      15.50220000      -0.04666120       0.05976290       0.03742690
O       18.04975000      11.15910000       8.22304000       0.00027111       0.05425900       0.04438180
H       17.14929000      12.83780000       8.28749000       0.02891770      -0.01770700       0.01100270
H       17.47299000      10.73020000       6.64114000      -0.01241270      -0.04168870      -0.05106500
O       19.58583000       5.45073000      15.16890000       0.00838231      -0.03921550      -0.01769700
H       21.45053000       5.43493000      14.89690000      -0.03141900      -0.00861857      -0.00098463
H       18.78873000       3.90453000      14.26790000       0.02563540       0.02632950       0.02583280
O        3.16709000      14.06424000       8.71851000      -0.02188010       0.01945860       0.00482478
H        4.74775000      13.37624000       9.11776000       0.02941090      -0.02848880       0.00121739
H        3.02292000      15.23404000      10.11830000      -0.00879984       0.00770013      -0.00519411
O        6.18203000      16.36594000      18.02950000       0.01924240       0.02251720      -0.00871276
H        4.40653000      16.44704000      17.59410000      -0.00359584      -0.01331850       0.00957031
H        6.58123000      15.23084000      19.36070000      -0.00662814      -0.01446130       0.00640614
O        9.92298000      21.03884000      23.89844000       0.01730370       0.00784769      -0.02049090
H       11.80750000      20.60734000      23.79264000      -0.04829760      -0.00097268       0.02090050
H        8.64583000      20.51374000       0.47367000       0.03548410      -0.00311798      -0.00616779
O       10.45787000       4.32491000       8.69047000      -0.06901970      -0.02229230       0.04180520
H       11.49927000       4.20585000       7.35956000       0.05199540      -0.00011425      -0.06932160
H       11.16287000       5.23494000      10.01020000       0.02221420       0.01832580       0.02839730
O       12.55587000       4.39753000       3.72656000      -0.03940920       0.02446760      -0.01459080
H       10.86177000       4.97403000       2.86156000       0.04860500      -0.01859940       0.02411260
H       13.42937000       3.12403000       2.74326000      -0.01003510      -0.00217116      -0.00624160
O       11.87650000      15.77244000       8.28727000       0.01163190       0.05657240      -0.03108470
H       11.30490000      14.49154000       7.22227000      -0.01036850      -0.03560840      -0.02171130
H       11.86000000      15.20294000       9.90377000      -0.01055640      -0.02423930       0.06142140
O        2.06973000      14.77530000      15.79773000      -0.03198410       0.00856734      -0.00622624
H        0.28693000      13.98610000      15.69993000       0.02720050       0.00944272       0.00095534
H        3.14723000      13.47490000      15.18543000       0.00820567      -0.01615430       0.00278195
O       24.47279400       2.67075000       2.73788000      -0.04648760      -0.01958880      -0.08706000
H        0.77591000       1.58269000       3.53390000       0.05945410      -0.06188820       0.03538420
H       24.36161900       4.01180000       3.75503000      -0.00539727       0.08371520       0.04753710
O       17.48054000      24.66070000       8.51893000      -0.09914190       0.01032870       0.02144670
H       17.98364000       1.16793000       7.21513000      -0.01173800      -0.00403350       0.00279818
H       15.20534000       0.04113000       8.86033000       0.09859890      -0.00879576      -0.02462390
O       16.10464000      11.68500000      24.44810000      -0.05090970       0.01460120       0.05865770
H       15.03424000      10.55270000      23.60030000      -0.02472290      -0.01313370      -0.02337490
H       17.57344000      11.53110000      23.60530000       0.07692660      -0.00228641      -0.03776110
O        3.47877000      15.84826000       3.52017000       0.01261370       0.01581250      -0.12074200
H        3.37017000      15.26306000       5.04177000      -0.01628290      -0.02446330       0.15283200
H        3.60627000      14.14906000       2.85407000       0.01103610      -0.00207993      -0.02953480
O       20.66216000      21.89810000      13.94083000      -0.00014120      -0.02465540       0.03043840
H       19.49866000      23.28880000      13.77783000      -0.00658197       0.01029120      -0.00676008
H       20.29026000      21.21830000      15.65783000       0.00329828       0.00392486      -0.01993190
O        7.24906000       6.20417000       2.76613000       0.02623190       0.00406829      -0.09709990
H        6.89866000       5.90767000       4.43034000      -0.02026120      -0.02405120       0.05083400
H        7.00906000       4.69267000       1.60453000      -0.00100206       0.02111240       0.03020040
O        3.77753000      18.53570000      11.97117000      -0.05235520      -0.01935650       0.05003130
H        5.16573000      18.68590000      10.83787000       0.02388810      -0.00687666       0.01409450
H        3.57623000      17.57430000      13.72567000       0.02370680       0.02411880      -0.06690050
O       11.86647000       5.63704000      13.49486000       0.02965820       0.02728870       0.06421750
H       12.55567000       7.35522000      14.22156000      -0.01806330      -0.03063060      -0.02753140
H       12.23847000       4.62303000      15.08826000      -0.01118550      -0.00197646      -0.03043460
O        7.19351000       2.03622000      24.19290900      -0.02388170      -0.04489420      -0.01541470
H        5.81679000       0.65599000      23.86786300       0.02611030       0.03850240       0.01316140
H        8.65367000       0.98422600      23.84024000       0.00003515       0.00895789       0.00455092
O       19.42923000       2.59128000       4.48133000       0.00515968       0.04918860      -0.02248960
H       19.66103000       4.32507000       3.67493000      -0.00770401      -0.03763190       0.02414060
H       21.15063000       2.00199000       4.42803000       0.00104820      -0.00752362      -0.00244133
O       24.16613200      10.34646000       8.37573000      -0.00255923      -0.04021060      -0.01627170
H       22.38668000      10.50176000       8.43303000      -0.01095480       0.01630490       0.00635749
H        0.40961100      11.79256000       8.79633000       0.00869605       0.02559530       0.00482224
O        9.70232000      13.93463000      14.45910000       0.05324140      -0.08956810      -0.09714030
H        8.88428000      12.63863000      13.15400000       0.02061960       0.04566920       0.04036830
H        8.40757000      14.70343000      15.21090000      -0.07083680       0.03974130       0.04720220
O        8.76117000      20.65250000      18.25680000      -0.00887261      -0.04335910       0.03103300
H        7.89037000      18.72860000      18.32170000       0.02228640       0.05862990       0.00118481
H        9.54507000      21.07940000      19.97500000      -0.02563920      -0.01587490      -0.03396790
O        4.69113000      11.10773000       1.22136000      -0.06141340       0.02573710      -0.02743740
H        5.40413000       9.48983000       1.52936000      -0.00024180      -0.01991800       0.00579124
H        2.80533000      10.88953000       0.51186000       0.06283400      -0.01395480       0.01943710
O       13.10100000       8.92043000      21.01170000      -0.00804722      -0.00763879      -0.03609000
H       13.23040000       8.95763000      19.15580000       0.00381173       0.02211750       0.01455840
H       13.29070000       7.11583000      21.09970000       0.00294646      -0.01193740       0.02181250
O        3.61239000      22.68444000      18.19870000      -0.04628610       0.04239010       0.10318400
H        2.71553000      22.60404000      16.78800000      -0.06102350      -0.00286437      -0.08552880
H        5.11463000      22.06364000      17.87700000       0.11114100      -0.04336720      -0.01723160
O        0.87615900      19.64950000       1.38408000      -0.02436500       0.06312510      -0.03389800
H        1.87854000      18.26530000       1.70399000       0.02542310      -0.04422260       0.01700700
H        1.94238000      20.77390000       0.30534000      -0.00936281      -0.01077920       0.01428170
O        0.38043100       3.22407000      13.93610000       0.01182790      -0.06671450       0.02351830
H        0.95294700       3.87009000      12.38890000       0.00818094       0.03273980      -0.02802980
H        0.92015800       1.34833000      13.63380000      -0.02707950       0.03461530       0.01184200
O       15.24984000       4.09416000      21.61714000      -0.05347960       0.06985800      -0.13288200
H       16.75034000       4.94766000      21.08754000       0.03060230       0.00631801       0.00750445
H       15.20164000       3.16726000      22.94744000       0.01516120      -0.08047130       0.12606300
O        5.70824000       3.92256000       6.87087000      -0.07897220      -0.01120540      -0.05037390
H        7.02506000       4.06456000       7.90547000       0.07722690       0.00907539       0.05752520
H        5.85910000       2.30036000       6.05887000      -0.00658739      -0.00478288      -0.00146036
O       10.55104000      11.12513000       5.72819000       0.05393550      -0.00731079      -0.03655480
H       12.47834000      10.40423000       5.52402000      -0.05901250       0.01640290      -0.00031363
H       10.03474000      11.39243000       3.92995000       0.00628377      -0.00853452       0.03513260
O       13.81880000      10.26523000      15.27130000      -0.11701700       0.03557830       0.03258710
H       15.22060000      10.39583000      14.30930000       0.07112650       0.00793268      -0.04613600
H       12.53690000      11.75363000      14.85060000       0.04119180      -0.04506670       0.01757810
O        7.49997000      10.89997000      10.08830000      -0.03672010       0.03779800       0.05121600
H        8.57247000      10.84467000       8.73327000       0.03516790      -0.01769340      -0.04569990
H        7.20197000       9.36807000      10.98140000       0.00200890      -0.01809770      -0.00261308
O        2.11704000       3.04367000      19.03430000      -0.00565447      -0.02444590      -0.08065850
H        3.62884000       2.15778000      19.49590000       0.00152054       0.00346611       0.00285477
H        1.98084000       2.51377000      16.99930000      -0.00184252       0.03040860       0.07913840
O        1.87797000       5.94547000       9.89643000       0.00401494      -0.02064380      -0.02413340
H        2.35147000       4.90647000       8.40603000       0.00100466       0.01947680       0.02174310
H        0.77507000       7.26427000       9.26273000       0.00394716       0.00200918       0.00337512
O       17.05860000      16.65140000       1.82583000       0.02396790       0.05365950       0.03751690
H       17.05780000      16.35400000       3.65283000      -0.00710584      -0.00001125      -0.01602590
H       16.42760000      15.27560000       1.01233000      -0.02155910      -0.06012510      -0.02300990
O        3.96147000      24.07024300       4.87803000       0.04434930       0.02526670      -0.04261920
H        4.76777000      22.49436000       4.47593000       0.00260854      -0.00482876      -0.01123960
H        2.75827000      23.65972000       6.01373000      -0.05192750      -0.01826520       0.05278890
O       18.55993000       9.62134000      13.07273000       0.01674970       0.11307900      -0.10288100
H       18.37063000       7.95732000      13.40633000       0.00247708      -0.07245250       0.01168880
H       18.82833000      10.01010000      10.72593000      -0.02715260      -0.01734450       0.08153460
O       18.83033000      19.32404000      18.82960000       0.03201130      -0.01071380       0.04298870
H       19.96984000      18.92024000      20.33452000      -0.01920710       0.01786110      -0.02076770
H       18.73413000      17.63104000      18.15487000      -0.00833277       0.00306354      -0.01202180
O        6.91776000       6.73537000      13.37277000       0.00393365      -0.07725030      -0.03835200
H        8.57336000       5.74977000      13.34947000      -0.00741918       0.03335410       0.01359140
H        5.90956000       5.31587000      12.51857000       0.00344411       0.04791850       0.02426230
O       11.79410000      23.67144000      10.31410000       0.01973770      -0.07345760       0.03439360
H       11.12060000       0.56412100      10.27070000      -0.02542300       0.04735210       0.00400211
H       11.58740000      22.84899000      12.08840000       0.01380210       0.02975730      -0.04175380
O       15.17244000      20.37334000      23.13443000       0.00027201      -0.03488440       0.04435790
H       15.89924000      20.21539000      21.54303000       0.01483930       0.00680142      -0.04283050
H       15.85314000      18.76072000      23.90253000      -0.01728220       0.03715900       0.00208765
O       17.90230000      15.84742000      15.59202000       0.06193840       0.15769500      -0.01621800
H       17.43600000      14.35507000      15.34962000      -0.07471130      -0.19444600      -0.00011405
H       18.87440000      15.81890000      14.03627000       0.01062360       0.02669300       0.00790383
O       22.04280000      17.89260000      10.14580000       0.01934020      -0.02889550      -0.03053640
H       21.36460000      19.08680000      11.22100000      -0.01828910       0.03376820       0.03303690
H       23.84940000      18.05750000      10.31240000      -0.00273503      -0.00225774       0.00111594
O       12.57210000      21.91460000      15.48333000      -0.01875550      -0.03702290       0.01691520
H       10.74920000      21.30380000      16.13720000       0.03842070       0.01310220       0.00201699
H       13.68420000      20.56850000      16.19020000      -0.01662740       0.02304180      -0.01646240
O       23.91690000      22.12923000       6.49123000      -0.00973751      -0.00468162       0.00776937
H       22.70240000      21.18093000       7.56473000       0.02067510       0.00863264      -0.02995450
H       24.17240000      21.41853000       4.80213000      -0.00995951      -0.00679205       0.01775750
O       15.22339000       9.08351000       4.38378000      -0.00130640      -0.01478880      -0.04675830
H       15.58327000       9.84702000       2.63371000      -0.00322925      -0.00955526       0.03518100
H       14.80914000       7.25588000       3.98375000      -0.00073655       0.02952040       0.01171950
O       17.30810000       1.07867000      13.39890000       0.20149900       0.03298220      -0.14222800
H       17.03560000       1.41697000      11.47020000       0.01562310      -0.02167840       0.04378080
H       15.91390000       1.00737000      14.07630000      -0.21356300      -0.01169630       0.10453600
O       22.68699000      11.95440000      15.79543000      -0.01727910      -0.01385820      -0.01397790
H       23.47154000      10.39850000      16.49673000       0.00201812       0.00690000       0.00381902
H       21.49102000      11.24870000      14.53583000       0.00675988       0.00951886       0.01305790
O       21.41473000      17.70633000      23.52585000       0.05304360       0.05404890       0.02510720
H       23.05813000      18.92473000      24.33631400      -0.05816920      -0.05333670      -0.02233180
H       20.05313000      17.85013000       0.05028800       0.00992897      -0.00471413      -0.00387338
O        0.44513000       8.48077000      18.19644000      -0.04342390      -0.10068600      -0.00125361
H        2.10853000       8.92007000      17.74004000       0.03716320       0.00554285      -0.01085670
H        0.34893000       6.40283000      17.89544000       0.01220040       0.09252120       0.01436900
O        6.55787000      19.93153000       3.10839000       0.01197840      -0.05619400       0.06150750
H        5.98047000      18.07063000       3.42543000       0.00030226       0.04536570      -0.02505440
H        7.39827000      20.02313000       4.85182000      -0.01037800       0.01386990      -0.03527900
O        8.07598000      20.04774000       8.40523000       0.07726350       0.00200049      -0.00764137
H        9.10459000      18.52824000       7.95703000      -0.01958320       0.01159150       0.01155400
H        9.68629000      21.19194000       8.71043000      -0.05406840      -0.01737230      -0.00189304
O       22.91809000       7.58573000       3.81453000       0.02205490       0.05037340       0.09491160
H       23.67446000       9.02233000       5.19332000      -0.03387920      -0.06629320      -0.03591610
H       23.60678000       8.52623000       2.49586000       0.00915455       0.00976769      -0.05168360
O       16.82783000      16.24481000       7.37195000       0.02995550      -0.01345840      -0.02284720
H       15.38246000      16.42375000       8.42779000      -0.00653993       0.02261790       0.00037713
H       18.21211000      17.45816000       7.40393000      -0.01920280      -0.00620600       0.01945210
O       19.28928000       6.50689000      20.24330000      -0.08324270       0.03531640      -0.07385230
H       20.57654000       5.65867000      20.92580000       0.07169350      -0.04223680       0.03812860
H       19.16905000       5.96284000      18.40870000       0.00825110       0.01276210       0.02705550
O       24.67620000       9.63787000      24.23788900       0.06131160      -0.10809600       0.05739120
H       24.04170000       8.25127000      23.19894000       0.01263950      -0.00565856       0.00320832
H       23.98970000      10.92657000      23.52873000      -0.06954130       0.12436900      -0.06240500
O       23.37540000       5.06500000      22.63403000      -0.09415210       0.08915640       0.05264750
H       23.59910000       4.29669000      24.16913000      -0.00074801      -0.01844320       0.05908540
H       24.35540000       4.16419000      21.72383000       0.10271000      -0.08182730      -0.10901800
O       15.64620000       1.02103000       1.06486000      -0.08341250      -0.03524350      -0.08475480
H       16.81180000       1.24943000       2.25336000       0.07509850      -0.00183130       0.06457110
H       15.47450000      23.96660000       0.39176000       0.01088950       0.02895180       0.02016760
O        7.92977000      11.61270000      20.69760000       0.03382890       0.03612590      -0.06874020
H        9.11857000      10.30020000      20.52820000       0.01805430      -0.01334160       0.00877483
H        6.89737000      11.33630000      22.00430000      -0.04895170      -0.01984380       0.07342510
