192
TotEnergy=-1103.36633000 cutoff=-1.00000000 nneightol=1.20000000 pbc="T T T" Lattice="24.52358000       0.00000000       0.00000000      -0.00000100      24.52358000       0.00000000      -0.00000100      -0.00000100      24.52358000" Properties=species:S:1:pos:R:3:force:R:3:Z:I:1
O              24.17070000     -6.67490000    -33.18050000      0.08745370     -0.01688150      0.03752940       8
H              22.91980000     -5.58787000    -33.57980000     -0.06513680      0.02880260     -0.02418640       1
H              24.29240000     -8.48730000    -33.42340000     -0.02846660      0.00132164     -0.01528590       1
O              50.11950000     47.80850000     -2.49094000     -0.00083141      0.05777080      0.11468200       8
H              51.63400000     48.86480000     -2.05804000     -0.01662750     -0.01758780     -0.02484810       1
H              50.19000000     47.02850000     -3.98524000      0.02139590     -0.03765730     -0.08493440       1
O              12.98860000      2.46901000     15.92970000      0.04973860      0.04163350      0.05690530       8
H              14.05490000      2.85525000     17.64900000     -0.03962320     -0.00045522     -0.05605960       1
H              12.37470000      0.81446300     16.14030000     -0.01036670     -0.02926770      0.00079982       1
O              -4.09143000    -12.19040000     -1.07485000      0.00052524      0.06606050      0.00514472       8
H              -2.82638000    -12.40390000     -2.38528000     -0.01068050     -0.02070170     -0.00831801       1
H              -4.14150000    -10.20250000     -1.04604000     -0.00247957     -0.04250050      0.01359200       1
O               5.97728000     32.85940000     19.70850000      0.03514190      0.06140100     -0.02362010       8
H               7.35850000     34.44150000     20.02980000     -0.05277390     -0.05328010     -0.00710394       1
H               5.27222000     33.00470000     17.89710000      0.02478200     -0.00627452      0.04103640       1
O              -6.20745000     10.26850000      8.28328000     -0.02922080      0.00652193     -0.00021016       8
H              -7.58124000     11.65030000      8.51862000      0.04115210     -0.02103190     -0.01888040       1
H              -6.58818000      9.40125000      6.67152000     -0.00405380      0.01060150      0.01202940       1
O              45.91840000     28.50480000     13.48560000      0.01929060      0.04947640      0.01525350       8
H              47.31670000     27.45950000     13.08480000      0.00265871     -0.01451420      0.00481412       1
H              44.33880000     27.72920000     13.27390000     -0.02583510     -0.03117310     -0.01602550       1
O              -0.15255900    -32.36680000      8.10087000      0.08795300     -0.08051430      0.09313490       8
H               1.45677000    -31.75590000      9.23250000     -0.05072330     -0.00409755     -0.04326810       1
H              -0.91261800    -31.10740000      7.30321000     -0.04109110      0.08482890     -0.04667760       1
O              33.10470000    -32.82450000     17.85840000     -0.08210090      0.02312570     -0.07951810       8
H              31.29510000    -33.51730000     17.34780000      0.05833620      0.01737750      0.01122140       1
H              33.87520000    -33.88400000     18.94420000      0.02385820     -0.06576300      0.06261360       1
O               8.86388000    -27.37560000    -24.92380000      0.06167010      0.02316210      0.01474800       8
H              10.71990000    -27.07890000    -24.31810000     -0.05870010     -0.01133800     -0.02106330       1
H               8.10529000    -28.44500000    -23.64810000     -0.00097132     -0.00929330      0.00085393       1
O             -14.94050000      3.86916000      8.40377000      0.02647050      0.04055680     -0.02960750       8
H             -13.95830000      4.90434000      7.09285000     -0.02218110     -0.03726910      0.02607480       1
H             -14.47140000      4.81493000      9.93545000     -0.00273776     -0.00206257      0.00245547       1
O             -11.34830000     29.06140000     52.19240000     -0.03978690      0.02757110     -0.00627986       8
H             -12.92140000     29.61730000     51.24530000      0.03841400     -0.01603360      0.02287310       1
H             -10.26430000     28.14340000     51.06100000     -0.00013657     -0.01384030     -0.01279510       1
O              10.72810000    -34.14090000    -15.56010000      0.00693274     -0.00339951     -0.03580600       8
H              10.86260000    -35.25250000    -17.05510000      0.00092916      0.01348530     -0.00059131       1
H              10.90410000    -35.24880000    -14.18950000      0.00327267     -0.00765676      0.02739540       1
O              29.22380000     14.97120000     38.93880000     -0.04373390     -0.04847150     -0.02726620       8
H              27.46370000     14.06070000     39.30750000      0.05090780      0.02692710     -0.01611530       1
H              29.72650000     14.10280000     37.28450000     -0.00774223      0.01658220      0.04068960       1
O               0.23854200      1.50788000      2.70257000      0.00001727     -0.05850610     -0.00277094       8
H               1.90064000      1.82783000      1.97329000     -0.01505050     -0.00308804      0.00620772       1
H               0.01300500     -0.47300100      2.65198000      0.01338990      0.06320600      0.00056854       1
O             -31.61810000     24.60520000     32.22670000      0.05288120      0.07657260     -0.00663187       8
H             -30.85880000     26.29490000     30.99560000     -0.02416900     -0.07287250      0.03673470       1
H             -32.52910000     23.58570000     31.14260000     -0.02745560     -0.01810700     -0.02395510       1
O             -33.39820000     12.10280000     24.74090000      0.01727800     -0.02223720     -0.07788660       8
H             -34.48860000     11.60800000     23.09600000      0.04396400      0.01655430      0.05946680       1
H             -31.34070000     11.98860000     23.94540000     -0.05268800      0.00618188      0.01789080       1
O             -22.27130000     65.11040000    -21.58470000     -0.00835106     -0.03925200     -0.10967800       8
H             -22.17270000     65.02200000    -19.88890000     -0.00663362     -0.01382540      0.07486970       1
H             -22.64800000     63.31260000    -22.35710000      0.01187330      0.04837920      0.03768230       1
O              69.00340000     20.87910000     39.25820000     -0.02533980      0.00018462      0.02706970       8
H              68.41840000     22.63970000     38.93610000      0.00406774     -0.02932760      0.00614232       1
H              68.06550000     20.18350000     40.79070000      0.02037460      0.02628040     -0.03035380       1
O              56.70170000    -19.02920000      1.86859000      0.16501200      0.02005530     -0.22090200       8
H              55.58620000    -19.18370000      2.98457000     -0.15097700     -0.03359600      0.11939000       1
H              56.50370000    -19.68100000     -0.10484700     -0.01653460      0.01427490      0.09560670       1
O              28.28140000     19.03350000    -14.08320000      0.05514920      0.00644637     -0.06673480       8
H              30.18220000     18.68280000    -14.61170000     -0.04382410      0.01692350     -0.00648598       1
H              28.33630000     18.25080000    -12.56650000     -0.00940995     -0.02929290      0.07703410       1
O             -13.54540000      6.09891000     61.71540000      0.01711010      0.00685005      0.05269290       8
H             -12.81760000      7.86491000     62.08430000     -0.02018380     -0.05810810     -0.00075536       1
H             -13.20700000      4.74085000     63.21770000      0.00520816      0.04934890     -0.04206380       1
O               5.41600000      1.63278000     -1.88897000     -0.06558800      0.10770200     -0.04010500       8
H               5.48843000      2.46230000     -3.65421000     -0.00963773     -0.03095640      0.04270200       1
H               6.56092000      0.42518700     -1.87744000      0.07836600     -0.08156400      0.00325638       1
O              44.02810000      2.96571000     28.90770000      0.00369139      0.03968140      0.00349526       8
H              43.58960000      4.78430000     29.10910000      0.00621504     -0.01583050     -0.01067270       1
H              45.86400000      2.93775000     28.91610000      0.00063543     -0.00482425     -0.00307783       1
O              -0.86423600     60.19170000     31.73940000     -0.02323850      0.03136780      0.02088920       8
H              -2.59326000     59.44380000     31.72170000      0.01868810      0.02080640      0.00688422       1
H              -1.07676000     62.05140000     32.35950000      0.00586447     -0.05132060     -0.02254930       1
O              10.47310000     36.87640000     13.61520000     -0.07580410      0.04675690      0.00320074       8
H               9.02503000     36.29930000     12.28070000      0.03227890      0.01454580      0.05132660       1
H               9.56609000     38.44990000     14.73010000      0.03577340     -0.06755260     -0.04712120       1
O             -16.52100000     20.79150000     18.97050000      0.01943970     -0.00304884      0.03475170       8
H             -16.33290000     18.88270000     19.01480000     -0.00481005      0.02979690     -0.00554263       1
H             -15.90520000     21.33430000     20.72060000     -0.01680630     -0.01251670     -0.03254500       1
O              31.75260000     35.18420000     50.33520000      0.00823840     -0.06317360      0.00658267       8
H              32.10200000     33.02190000     50.29680000     -0.02076580      0.07831190      0.00962221       1
H              29.99180000     35.45180000     50.84770000      0.01209290     -0.01201780     -0.00617168       1
O              13.79120000     34.55700000     19.83470000     -0.04598360      0.20334600     -0.00368271       8
H              14.42490000     35.29760000     18.20870000     -0.00620486      0.00954002      0.01320600       1
H              14.21390000     33.05070000     19.64120000      0.04936740     -0.20996200     -0.00564068       1
O               2.73903000    -27.61710000     17.60100000     -0.06277690     -0.02552870     -0.01940100       8
H               1.78193000    -29.28760000     17.07800000      0.03380630      0.02944910      0.01099080       1
H               4.49659000    -27.63860000     17.87800000      0.02439390     -0.01400670      0.00304999       1
O              -0.29105300     20.66470000      1.44442000     -0.01580940      0.04254750     -0.01917790       8
H               0.83584700     19.31960000      1.52732000      0.02608620     -0.03404460      0.01322010       1
H               0.40418700     21.74690000      0.00463500     -0.01590470     -0.01452400      0.00187130       1
O               1.02825000      0.34942600     14.16640000      0.00658593     -0.01595650     -0.05505850       8
H               1.42962000      0.04596600     12.25460000     -0.00879280      0.00578329      0.05119190       1
H               1.35626000     -1.26118000     15.04890000      0.00077179      0.00669137     -0.00408547       1
O             -33.62140000     54.13770000    -28.79440000      0.05655340     -0.03561650     -0.00322497       8
H             -31.65640000     54.11640000    -29.50760000     -0.06118970      0.00334906      0.03218850       1
H             -33.69530000     52.98410000    -27.23770000      0.01523010      0.02727830     -0.03274470       1
O               4.67740000     53.62110000    -17.69340000     -0.04466010     -0.02198660     -0.00199865       8
H               6.27948000     53.46420000    -16.91730000      0.03130660     -0.00953823      0.00891143       1
H               3.84907000     51.94120000    -17.49890000      0.01345420      0.02359770     -0.00434115       1
O             -37.84670000     36.85420000      4.38756000      0.00578568     -0.00394883     -0.03264190       8
H             -36.44260000     36.75600000      3.05793000     -0.04242730      0.00026335      0.03273480       1
H             -39.56830000     36.63560000      3.56115000      0.03747490     -0.00257321      0.00058084       1
O              15.24790000     36.95530000     15.60050000     -0.01312110     -0.03114980     -0.06014920       8
H              16.71960000     36.10490000     14.58390000     -0.03149190      0.02268760      0.02953850       1
H              13.60600000     36.86040000     14.43650000      0.04689550      0.00099397      0.03240190       1
O             -18.00940000    -13.24150000     10.35450000     -0.07380010     -0.02774890     -0.00558455       8
H             -16.97680000    -13.36540000      8.93512000      0.01626870      0.00288237     -0.03003100       1
H             -19.81980000    -14.27660000      9.69648000      0.06018670      0.01792020      0.04019160       1
O             -45.77440000      2.40857000     17.96440000     -0.02071860     -0.02565110     -0.02118590       8
H             -46.57870000      1.66118000     16.27530000      0.02296000      0.02143190      0.03405020       1
H             -45.26960000      4.08059000     17.59160000      0.00559366      0.01707380     -0.01626470       1
O             -21.77480000    -16.69040000     34.88790000     -0.02317560      0.00615384     -0.03660030       8
H             -21.12810000    -18.17320000     33.69860000     -0.02612360      0.04088570      0.01567480       1
H             -23.40360000    -15.79430000     34.24180000      0.04425240     -0.03327720      0.00784736       1
O              16.45840000     16.73530000     27.53110000     -0.05665650     -0.01492530     -0.20177600       8
H              16.71520000     16.71890000     29.11340000      0.01590320     -0.02270980      0.16945100       1
H              15.58120000     15.18390000     26.69150000      0.02886030      0.03553950      0.03481930       1
O             -22.64180000     -0.96926500     33.31320000     -0.06065690      0.02560680     -0.03667030       8
H             -21.85000000     -2.40578000     33.87560000      0.03526530     -0.04590970      0.02211250       1
H             -24.10100000     -1.79669000     32.38140000      0.02568650      0.02489210      0.01667670       1
O              44.10330000      9.76314000     37.86860000      0.00974813      0.02276830      0.06228010       8
H              44.43910000      8.12262000     38.53870000     -0.00128363     -0.00446111     -0.01340210       1
H              43.52220000      9.82767000     36.22510000     -0.00868669     -0.01614210     -0.05261100       1
O              -6.91300000    -29.36890000     -4.52768000     -0.04617970     -0.00889617     -0.02990650       8
H              -6.16240000    -30.27320000     -3.04743000     -0.01664750     -0.00442802     -0.02798470       1
H              -8.56904000    -30.14250000     -5.70205000      0.06228900      0.00307945      0.05416600       1
O              54.08400000    -17.85930000     -9.48553000      0.01949330      0.00199191     -0.00522881       8
H              55.93940000    -18.03110000     -9.97043000     -0.05325750      0.01085610     -0.00426862       1
H              52.88140000    -17.22810000    -10.78820000      0.03265460     -0.01016640      0.00186800       1
O              11.57780000     -1.00174000     10.01730000     -0.03787510      0.07172600      0.06843360       8
H              10.80550000      0.91952100      9.76535000      0.03037140     -0.07484980     -0.00312889       1
H              11.54520000     -1.10767000     12.03390000      0.00241353     -0.00157456     -0.06690180       1
O             -34.05620000     -2.87256000     48.50070000     -0.01836880      0.02045750      0.02655360       8
H             -33.30300000     -3.37974000     46.96550000      0.01565490     -0.01869160     -0.02948800       1
H             -33.48330000     -3.97045000     49.82250000      0.00202363     -0.00651275     -0.00042794       1
O              14.18280000     -7.35602000     -7.50039000      0.03019710     -0.00180775     -0.00043813       8
H              14.61190000     -9.16615000     -7.58974000      0.00966700      0.00981069     -0.00682112       1
H              12.44900000     -7.34836000     -7.23504000     -0.03710580      0.00381835      0.00727499       1
O              19.96350000     15.78350000     11.70510000      0.06727380      0.03770750     -0.05090440       8
H              20.10630000     17.26550000     12.76840000     -0.01577060     -0.00141174      0.00661925       1
H              21.55750000     16.36910000     10.53410000     -0.04997020     -0.03282790      0.03203010       1
O              11.49590000     22.16720000     -9.31311000     -0.05649960      0.02425380      0.02400520       8
H              10.04740000     21.51500000     -8.25402000      0.00963791      0.02224000     -0.00451197       1
H              12.35450000     20.68480000     -9.46759000      0.04514010     -0.04716040     -0.01273120       1
O              21.77740000     45.30370000     30.63220000     -0.01261570      0.03306430     -0.01098030       8
H              20.55710000     46.50760000     31.43410000      0.01503880     -0.01723120     -0.01541520       1
H              22.03900000     45.81060000     28.82990000     -0.00355553     -0.01163020      0.03036230       1
O              -7.16418000      8.10707000      3.52670000     -0.00579430      0.01071190     -0.02286310       8
H              -7.48372000      9.35750000      2.06117000     -0.00156331     -0.03029440      0.03625910       1
H              -8.54130000      6.86411000      3.55116000     -0.00327362      0.01722230     -0.00766973       1
O              17.32600000    -23.24090000     12.87650000      0.00687363      0.00122846      0.03117110       8
H              16.82120000    -23.45770000     11.20670000     -0.00013208     -0.01364180     -0.04964650       1
H              15.74810000    -22.82390000     13.63610000     -0.01131210      0.00477932      0.01875640       1
O              -0.40180500     13.01750000     39.40020000      0.06429110      0.00491063      0.11766800       8
H              -0.44716600     12.26830000     41.47700000     -0.01907160      0.00719313     -0.08157500       1
H              -1.53620000     12.41400000     38.23300000     -0.04322870     -0.02610580     -0.01825080       1
O              44.47660000     41.88730000     -0.05624100      0.08251480      0.02277120     -0.06229890       8
H              46.02250000     42.82590000      0.51940200     -0.03028890     -0.01249700     -0.00705424       1
H              43.26120000     41.77660000      1.17971000     -0.03968530     -0.00326427      0.05393330       1
O              23.14790000     10.48220000    -29.40870000      0.03321640     -0.03774290     -0.00034959       8
H              24.47910000      9.54718000    -28.30850000     -0.01560020      0.01979720     -0.01365160       1
H              22.39660000      8.94331000    -30.18410000     -0.00613086      0.02087990      0.00460597       1
O             -17.23630000     42.34420000      2.81430000      0.04705890      0.03264050      0.05897590       8
H             -18.79600000     41.51120000      2.85269000     -0.03159070     -0.01319500     -0.00160199       1
H             -16.80980000     42.77400000      4.68492000     -0.01600520     -0.01162360     -0.05791400       1
O               8.40142000    -29.58200000     32.87400000     -0.09579590      0.10739700      0.04862220       8
H               9.73223000    -30.53340000     32.72310000      0.10298200     -0.08340190     -0.00741150       1
H               8.99855000    -28.21880000     34.13220000     -0.00771779     -0.02006890     -0.04098850       1
O               1.76537000     35.10660000      2.65443000     -0.02568710      0.00182829      0.01977050       8
H               0.68021300     34.96640000      4.21697000      0.01901000      0.00947879     -0.02221790       1
H               0.75698000     34.39720000      1.29975000      0.01112170     -0.00155558      0.00248780       1
O              -8.26350000     -9.77798000      8.03972000      0.06586180      0.03067220      0.02467930       8
H              -9.96008000     -9.76146000      8.64022000     -0.00661828      0.01917920      0.01231830       1
H              -6.79570000     -8.77812000      9.22373000     -0.06560880     -0.04172700     -0.02506480       1
O              -4.03600000      5.81580000     18.32510000     -0.09103440      0.02361320     -0.11816100       8
H              -2.84216000      5.05049000     19.23570000      0.07110670     -0.05033500      0.05145750       1
H              -4.05358000      4.93552000     16.44660000      0.01897800      0.02585750      0.06349650       1
O              26.43070000    -16.79910000     -1.86326000      0.04226440      0.09614910      0.00244486       8
H              25.78200000    -18.34930000     -2.05694000     -0.03443020     -0.08139340     -0.01172430       1
H              28.01660000    -16.67300000     -2.86455000     -0.00610259      0.00209349      0.00769535       1
O              24.10920000      3.82352000     45.62040000      0.00082368      0.03081080     -0.01568560       8
H              23.39210000      2.50420000     46.48910000     -0.01773980     -0.03882950      0.02761640       1
H              25.21610000      3.03675000     44.40360000      0.01485020     -0.00584649     -0.00942194       1
O              16.45670000     26.36960000     49.22150000      0.05525650     -0.03585820      0.02348500       8
H              18.05610000     26.69330000     50.54980000     -0.06326000     -0.02072830     -0.05564520       1
H              16.31330000     24.35720000     48.61950000      0.00055279      0.06313860      0.03500970       1
O             -14.90270000     12.29870000     21.17840000      0.02033700     -0.01410880      0.02347740       8
H             -13.23230000     11.08140000     20.59020000     -0.04261350      0.03618830      0.03325150       1
H             -15.30740000     12.69530000     23.10960000      0.01993970     -0.03069040     -0.06603680       1
