192
Lattice="23.21047 0.0 0.0 0.0 23.21047 0.0 0.0 0.0 23.21047" Properties=species:S:1:pos:R:3:force:R:3 TotEnergy=-1102.64657 cutoff=-1.0 nneightol=1.2 pbc="T T T"
O       13.78800000       0.24985300      17.36110000       0.09754800      -0.02720280      -0.04758180
H       15.72220000      22.93541400      16.35940000      -0.09134290       0.00622056       0.04244140
H       14.65340000       1.73246000      18.12800000      -0.01438880       0.01076420       0.01026800
O       17.57650000       3.85737000       6.28269000       0.02009960      -0.02388500      -0.00683469
H       17.67750000       5.07027000       4.99090000      -0.00479618       0.01830660      -0.01149070
H       19.08430000       2.86146000       5.75826000      -0.01019550       0.00549603       0.02273720
O        1.18113000       7.17740000      10.24740000      -0.02376630       0.03744670      -0.02015580
H        0.28045900       5.62333000      10.62910000      -0.00722321       0.01055420       0.01508030
H        0.09708100       8.86674000      10.29630000       0.01415460      -0.03689250      -0.00305190
O        4.72564000      22.42210000      13.53250000      -0.04474980       0.00264048      -0.00521701
H        3.03685000      21.71240000      12.98380000       0.02811650       0.00345984       0.01035790
H        4.22639000       1.00593000      13.43220000       0.02189370      -0.01228600       0.00134409
O       16.75420000      12.45540000      19.85320000      -0.02030390      -0.00097268       0.04373710
H       17.85370000      11.40570000      20.91020000       0.02414380      -0.00888477      -0.01575930
H       15.52390000      12.69040000      21.23210000      -0.00006918       0.00495804      -0.02592400
O        7.09911000      15.71680000       9.57360000      -0.05787750      -0.01587730      -0.05675540
H        8.35326000      15.72390000      10.73920000       0.06039630       0.00095154       0.05546090
H        5.61875000      15.54770000      10.57300000      -0.01039730       0.00391463       0.00036064
O       14.03100000       3.26744000       1.84259000      -0.04757550       0.07893080       0.05012030
H       13.45130000       6.02892000       3.11100000       0.01415110      -0.06594930      -0.03156860
H       13.06780000       2.18123000       3.19326000       0.03245280       0.02821430      -0.01010940
O        3.37659000       0.75998800       8.33540000       0.02605850       0.02652580      -0.00496695
H        5.07765000       1.46492000       7.41160000      -0.01912840      -0.02022190      -0.01807980
H        3.71240000       1.95730000       9.71893000      -0.01305040      -0.01739280      -0.00699847
O        7.09210000       2.25854000       5.41385000       0.02597640       0.00420989      -0.00267795
H        7.70161000       3.16348000       1.29851000      -0.03396830       0.08335580       0.04101120
H        7.98028000       3.91655000       5.42464000      -0.02786040      -0.04247680       0.00818941
O        8.57456000      14.30140000      23.02163400       0.02443180       0.06950680      -0.01109340
H        7.08526000      14.41320000       0.83256200       0.00101460       0.00385268      -0.00200834
H        9.17544000      16.22650000      22.83237500      -0.02434840      -0.06965670       0.00743320
O       22.31960000      18.53420000      19.85000000      -0.18912400      -0.02844040       0.01452890
H       21.51440000      16.86060000      19.00020000       0.02029530       0.04161070       0.02333820
H        0.64303000      18.25790000      19.49910000       0.18668900      -0.02470680      -0.03874280
O       18.26490000       6.42940000      14.36470000       0.05841430      -0.06721210      -0.02676170
H       18.16230000       5.56755000      16.04300000      -0.00642058       0.01607820      -0.02614050
H       19.56150000       5.11426000      13.21830000      -0.04804200       0.05455590       0.05657550
O        6.00267000       9.03572000      16.39360000      -0.00071795       0.03951230       0.05175660
H        5.34553000       7.94570000      17.70460000       0.00221140      -0.00635644      -0.01149410
H        6.09823000      10.52130000      17.59160000      -0.02024820      -0.01494360      -0.03017460
O       12.28730000       0.86453700       5.93586000       0.02020440      -0.01156560      -0.00875152
H       13.38580000      22.57761100       6.16106000      -0.02360140       0.01612060       0.00317231
H       10.48570000       0.48623400       6.10256000      -0.01144940       0.00072915       0.00583597
O       10.00570000      15.76180000      13.44380000       0.03531310      -0.02959580       0.00977472
H       11.83230000      15.81060000      13.19810000      -0.01085620       0.02002470      -0.00279356
H       10.04670000      14.06150000      14.17870000      -0.01597270       0.00575532       0.00085091
O       19.26220000      14.54380000       5.59011000       0.02269220       0.00973355      -0.02147610
H       19.99440000      15.76650000       4.34735000      -0.01949840      -0.01211940       0.02266740
H       17.73890000      15.37500000       6.09931000      -0.00093474      -0.00469930       0.00315879
O       15.26460000       9.04691000      10.95600000       0.04508080      -0.07475390      -0.02106380
H       15.26290000       7.77080000       9.42886000      -0.00494214       0.04230890       0.05569790
H       16.75910000       8.30094000      12.02690000      -0.04547740       0.02413430      -0.01931850
O        1.01666000       6.42625000      17.57560000      -0.19008800       0.12740100      -0.13785900
H       22.74746800       6.19062000      18.68310000      -0.00640476       0.02263040      -0.02821310
H        1.85062000       5.64696000      18.57580000       0.19156800      -0.14379000       0.17732300
O       16.73910000       2.50336000      11.34670000      -0.06195340       0.03776440      -0.01761220
H       15.93490000       3.67860000      12.61200000       0.02160890      -0.02350770      -0.01402060
H       15.83150000       3.19994000       9.79605000       0.03671220      -0.01370170       0.02495560
O       16.88160000      23.00945700       0.52515900       0.05296250      -0.02854930       0.05657380
H       18.30480000      23.15181200       1.98125000      -0.05334010      -0.00643644      -0.06805900
H       15.91220000       1.28237000       0.87371700      -0.01247240       0.00637592       0.00059867
O       12.76400000       5.76861000       7.61379000      -0.02096280      -0.00885249       0.00785634
H       12.60110000       3.90181000       7.36732000      -0.01218320       0.02356320      -0.00572495
H       11.13040000       6.77871000       7.37873000       0.02128640      -0.04963220       0.01216190
O        8.68126000       0.32783000      18.27050000      -0.00976954      -0.02785110       0.00827178
H       10.54060000       0.16543000      18.02530000      -0.02084970      -0.00899095      -0.00333211
H        7.77888000      21.85620000      18.37510000       0.03116720       0.03243200      -0.00437595
O        9.81560000      21.88320000      10.78340000      -0.01710090      -0.02254120       0.00559125
H        9.31766000      20.28140000       9.98087000      -0.00332229       0.02398060       0.00452965
H        8.45738000      22.22670000      11.98220000       0.00323559      -0.00143177      -0.01312900
O       20.54660000       9.69287000      22.14530000      -0.03579560      -0.01465830       0.02934050
H       19.89860000       7.94875000      21.97300000       0.00950125       0.01024910      -0.00648526
H       19.99000000       9.79620000       0.75093000       0.02606080       0.00615792      -0.02195740
O       19.41530000      19.19780000       4.35670000       0.00516754       0.02775110      -0.06244750
H       17.83480000      19.98650000       3.80641000       0.01337280      -0.00994457       0.00957811
H       20.78910000      19.69540000       2.86148000      -0.01829080      -0.01922990       0.03559040
O       14.61900000      21.20610000      10.31110000       0.03256100       0.01357570       0.00044659
H       14.97280000      23.12940000      10.63340000      -0.01100700      -0.05210680       0.00896604
H       13.10130000      20.40130000      10.94220000      -0.00590712       0.04179820       0.00271612
O        5.47192000       8.60908000      11.32180000       0.06487670       0.07004230      -0.00868009
H        3.74757000       8.40844000      11.29840000      -0.06497450      -0.01560680      -0.00412863
H        5.37765000      10.48650000      11.22020000       0.01848550      -0.02777950       0.00453494
O       15.49510000       4.44521000      18.87610000       0.02345710       0.02814500       0.04355020
H       13.91680000       5.39635000      19.01640000       0.00947102      -0.01112780      -0.00277799
H       16.56730000       4.85102000      20.69250000      -0.01801580      -0.01636690      -0.04918080
O       14.12260000      13.41390000       9.10632000      -0.01891830       0.04795760       0.07056580
H       14.08370000      14.69170000      10.90540000       0.00813441      -0.05005970      -0.08214020
H       14.00170000      11.76600000       9.97319000       0.01577190       0.00711706      -0.00685246
O       18.66060000      20.35490000      17.01960000       0.02436290      -0.01897720       0.02418240
H       20.33160000      20.60590000      17.83660000      -0.01698010       0.00862397      -0.01278360
H       18.27140000      18.87810000      18.09930000      -0.01407650       0.02013630      -0.02189300
O        5.65623000       4.40646000      17.85960000      -0.01951090       0.00896996      -0.00263809
H        4.73789000       4.77547000      16.33460000       0.00392780       0.00356503      -0.00174927
H        6.22488000       2.76459000      17.49400000       0.01746720      -0.03210620       0.00423592
O       19.99110000       9.76082000       4.19124000       0.01098660       0.03446500      -0.00973331
H       18.21600000       9.44393000       4.00886000      -0.00804093       0.00001305       0.01484200
H       20.10170000      11.66410000       4.35356000      -0.01206190      -0.03460920       0.00599626
O        5.37029000      19.00690000       1.05229000       0.09138510       0.05308630       0.05681130
H        6.42394000      18.38060000       2.61081000      -0.03220390       0.01882400      -0.03430600
H        6.78650000      21.11520000       1.06374000      -0.04378560      -0.06386150      -0.00281609
O        7.20729000       5.17222000       1.37731000      -0.00383550      -0.05640410      -0.01051580
H        5.35529000       5.58612000       2.14294000       0.04252250      -0.00518403      -0.03101170
H        8.84274000       6.35806000       1.05044000      -0.01862590       0.00345422       0.00725753
O        9.87847000       3.66070000      13.47180000       0.00464889       0.00440270       0.00196275
H       10.80330000       3.38263000      15.03330000      -0.00067701      -0.00318573      -0.01587320
H       10.83820000       3.07893000      12.02400000      -0.00342951       0.00013858       0.01416760
O        4.97314000       3.70351000      11.98710000      -0.01536680       0.09847660       0.00723577
H        4.23989000       5.69658000      11.63430000       0.03540480      -0.09938950       0.02015830
H        6.65323000       3.91207000      12.82040000      -0.01036780      -0.00088708      -0.01772270
O       11.66980000      11.14150000      20.49550000      -0.02380130       0.03072740       0.02046210
H       10.09670000      11.86790000      21.27010000       0.02492010      -0.00077843      -0.00373708
H       11.68570000      12.08670000      18.92410000       0.00148426      -0.01777690      -0.00076765
O       22.34120000       2.09197000       5.41090000       0.07875150       0.00288307       0.02356270
H        0.30033000       3.62997000       5.32413000      -0.03878590      -0.02057700      -0.00777840
H        0.54093000       1.05673000       6.32509000      -0.03102840       0.01826430      -0.00911052
O       23.00850000       3.92882000      13.45310000       0.05029810      -0.07658490      -0.02190720
H        0.59373000       4.86316000      14.83470000      -0.00541494      -0.00299108      -0.00533225
H        1.10373000       2.30743000      12.97720000      -0.07238950       0.07283190       0.02608290
O        0.09387300      19.48580000       1.56741000       0.02534010      -0.06037180      -0.02237980
H        1.43311000      18.28170000       2.46767000      -0.04348640       0.04710390      -0.04605480
H       22.94494400      18.90560000      22.79162200       0.01357880       0.01279340       0.06438480
O        8.81884000      11.64400000       4.56575000      -0.01966680      -0.01020110       0.01243450
H        9.03268000      12.30650000       6.28067000      -0.01164270      -0.00030306      -0.01486510
H        7.01966000      11.15960000       4.30972000       0.02990540       0.01462990       0.01056530
O       10.58110000       5.97387000      19.10640000      -0.02336200       0.02237930      -0.02027940
H       10.14690000       7.64286000      18.35320000       0.00704904      -0.02902380       0.01672640
H        9.03315000       5.01285000      18.77640000       0.00984081       0.00654504       0.00227132
O        7.92941000       6.64343000       6.91546000      -0.00069636       0.04604790       0.01997080
H        8.17934000       8.33355000       6.28438000      -0.00276358      -0.00078426      -0.00528496
H        6.99953000       6.98305000       8.49062000       0.00400463      -0.00779654      -0.00642364
O       22.44190000      11.71250000       9.82669000      -0.01166730       0.07341070       0.05534150
H       21.94450000      13.55410000      11.69690000      -0.00350424      -0.05362650      -0.06774990
H       21.60880000      12.78650000       8.56721000       0.00418558      -0.01925370       0.00533608
O       10.37760000      10.88630000      16.00080000       0.04020220      -0.00578673      -0.02324100
H       11.41860000       9.37009000      15.72250000      -0.00602987       0.02369870      -0.00660453
H        8.70057000      10.21890000      15.97940000      -0.01670790      -0.01273390      -0.00681439
O       11.87600000      19.61570000      22.54100000       0.05547950       0.04557970      -0.03499130
H       11.93290000      21.27650000      21.55810000      -0.02398240      -0.03432670       0.02283910
H       13.74460000      19.70750000      22.76920000      -0.02221330      -0.01221060       0.01689690
O       18.24980000       5.09068000      22.75460600      -0.05384050      -0.01577810       0.05251100
H       16.25900000       4.96765000       0.98748300       0.06049710      -0.01798790      -0.04214370
H       19.09980000       3.40460000      23.03546700      -0.00915598       0.02407310      -0.00019038
O        2.53019000      12.12540000      19.02720000      -0.02262980       0.03382030      -0.01852100
H        2.83413000      13.97690000      19.34610000      -0.00284835      -0.02949320      -0.00258521
H        0.97449700      12.08890000      17.92690000       0.03206480      -0.00140199       0.02932740
O        8.79247000      23.14748500       0.84034800      -0.02892710       0.00249567      -0.03316120
H        8.28692000       1.38704000      23.01229800       0.01701930      -0.03140280      -0.00740249
H        9.97146000       0.36432000       2.12115000       0.00042447       0.00610615       0.01565820
O        7.91530000      18.69100000       5.71095000       0.01108860      -0.03113530       0.00806492
H        7.69517000      17.11850000       6.74228000      -0.00878665       0.02995030      -0.01142300
H        9.74673000      18.83090000       5.84784000      -0.00949301       0.00834434      -0.00460116
O       21.48250000       0.86133700       0.77143100       0.00998136       0.01078450      -0.02753040
H       22.69050000       0.65265800      22.59156900      -0.01010570      -0.00336132       0.03024000
H       22.21200000       0.74549800       2.46565000       0.01227940       0.00987484      -0.00964476
O        4.29348000      17.11320000      20.08620000      -0.02840970      -0.03105250      -0.10649800
H        5.66163000      17.12580000      18.80940000      -0.01622040       0.00869822       0.01959160
H        4.82123000      17.44380000      21.68140000       0.03236620       0.02441670       0.06981170
O       15.09320000      16.92710000      12.63640000       0.03203740      -0.00140599       0.11107100
H       15.56660000      18.46120000      11.82890000       0.00370902       0.03067280      -0.01464430
H       15.51520000      17.51320000      14.83000000      -0.02877660      -0.02486500      -0.07362400
O        2.74811000       7.29047000       0.82529400       0.01337430      -0.00709333       0.00458673
H        1.75673000       7.35515000       2.46784000       0.01693110       0.01163370      -0.01916600
H        3.71348000       8.81918000       0.50254400      -0.02003460      -0.00795035       0.00462415
O        6.73531000      18.81260000      15.85320000       0.01863500       0.01959130       0.00173510
H        5.78369000      20.36480000      15.39090000      -0.00001733      -0.01241890       0.00091469
H        8.42347000      19.30690000      15.27020000      -0.01606930      -0.01833580       0.00479141
O       12.95580000      18.61710000       6.51700000       0.07277740      -0.07050790       0.04015120
H       13.11630000      16.82220000       5.83989000      -0.00822015       0.04225860       0.01257430
H       14.33610000      18.43910000       8.07417000      -0.05825940       0.02232980      -0.06511250
O       14.52770000      17.52070000      18.21510000      -0.00464090       0.01906300       0.01252200
H       13.92100000      18.87000000      19.41380000       0.00659572      -0.02933100      -0.03022640
H       14.22730000      15.91770000      19.00430000       0.00022304       0.00376826      -0.00008201
O       20.20190000      15.60580000      12.25260000      -0.00562698       0.01566870       0.00181184
H       20.73030000      17.28700000      11.72650000       0.00599329      -0.01019970      -0.00311992
H       18.33080000      15.80510000      12.42050000       0.01197100      -0.01386270      -0.00489784
O       21.64740000      19.73850000       8.46061000       0.03289150      -0.00820510      -0.01250020
H       21.49860000      18.68470000       6.81542000      -0.00374707       0.03772610       0.04356360
H       23.20020000      20.79350000       8.37805000      -0.01533780      -0.01637950      -0.01976140
O        1.11590000       7.26626000       5.16288000      -0.07132670       0.04844150       0.10189600
H       22.62998500       8.52393000       5.90806000       0.05747210      -0.05194160      -0.05595090
H        1.54811000       6.95312000       7.04011000       0.00852288      -0.00031065      -0.03371310
O       14.94780000       8.76083000       5.12748000      -0.04121530       0.15964100      -0.04544920
H       14.56920000       7.33970000       5.96365000      -0.02519200      -0.07940510       0.06022720
H       13.46230000      10.31910000       6.04263000       0.07205480      -0.06782830      -0.04105430
O       20.53710000      14.13410000      17.21810000       0.01330390       0.00958555      -0.02070400
H       20.53350000      13.98590000      15.31400000      -0.01385300       0.00735647       0.05205340
H       18.96610000      13.73850000      18.13950000       0.00467833      -0.00613721      -0.01832810
O       10.82180000       7.92452000       0.63867300       0.01155200       0.01030710       0.02157980
H       11.06620000       8.56229000      22.13898000       0.00517137      -0.00754839      -0.00528153
H       11.29960000       9.34359000       1.71181000      -0.01132250      -0.00965310      -0.00206421
O       22.89370000      22.04960000      13.02110000      -0.04477700      -0.08710250      -0.05778620
H       21.79450000      21.01390000      14.19670000       0.02342100       0.02899680      -0.02210350
H       22.39410000      20.93610000      11.08760000       0.01208090       0.04666350       0.08496730
