192
TotEnergy=-1101.79005000 cutoff=-1.00000000 nneightol=1.20000000 pbc="T T T" Lattice="24.55800000       0.00000000       0.00000000      -0.00000100      24.55800000       0.00000000      -0.00000100      -0.00000100      24.55800000" Properties=species:S:1:pos:R:3:force:R:3:Z:I:1
O              10.28260000      6.61125000     24.36920000     -0.02536590      0.04873410     -0.00855217       8
H               9.56327000      6.53994000     22.54420000      0.01148670      0.00938702      0.05737920       1
H               9.48032000      8.12992000     25.48580000      0.02661290     -0.05810220     -0.05756530       1
O               3.00138000     16.13890000      8.01901000      0.00566992     -0.02438960     -0.03710300       8
H               1.33984000     15.74380000      8.54805000     -0.01326000     -0.00018252      0.01135090       1
H               3.91772000     16.98700000      9.26416000      0.01221280      0.01989600      0.02232250       1
O               9.84756000     16.68650000     22.76540000      0.02007080      0.06715760      0.01121150       8
H              10.53110000     17.21260000     21.12860000     -0.00100118     -0.01056380      0.00644968       1
H              10.40230000     18.34760000     23.71260000     -0.01985500     -0.05933000     -0.02096110       1
O              22.35020000      4.87305000     22.34500000      0.03541180     -0.06636140      0.04081950       8
H              22.69900000      2.91169000     22.82950000     -0.01961650      0.06265470     -0.01978280       1
H              23.91620000      5.47729000     23.15060000     -0.01465310     -0.00020007     -0.00902281       1
O              19.62960000     14.08380000     18.12290000      0.04932420      0.00214809     -0.06406260       8
H              19.88600000     14.53370000     16.21780000     -0.00080805     -0.00903930      0.04991020       1
H              17.92710000     14.38650000     18.24310000     -0.04757700      0.00580759      0.01136120       1
O               1.71621000     16.98040000     18.65230000      0.02815290      0.02575330      0.05749120       8
H               3.24615000     17.04370000     17.69700000      0.00286641     -0.00651050     -0.01112890       1
H               2.50731000     17.52290000     20.41960000     -0.02890120     -0.01848960     -0.04359400       1
O               7.21108000     16.02220000     15.73640000     -0.05399030      0.02941200      0.04069980       8
H               7.68232000     17.73000000     15.49830000     -0.00697745      0.02267150      0.00266143       1
H               8.50521000     15.35800000     14.86120000      0.06029880     -0.04925060     -0.04087230       1
O              19.59170000      7.45381000      3.60278000     -0.04749320     -0.02171140      0.00250994       8
H              19.15640000      5.97543000      2.62107000      0.00492868      0.00378648      0.01092450       1
H              21.25700000      7.74216000      3.17839000      0.04514860      0.01127210     -0.00983768       1
O               4.15116000     17.43100000     23.17300000      0.07560410     -0.07109000     -0.08519030       8
H               4.61547000     17.74640000     24.81250000      0.01006010      0.02298370      0.05204320       1
H               6.07018000     16.54240000     22.43290000     -0.08010230      0.04792770      0.03604860       1
O              17.12380000     19.19730000      9.52793000     -0.07610220     -0.05951290     -0.01005750       8
H              17.31960000     20.82630000      8.93089000      0.00771134      0.04117160     -0.01745200       1
H              15.21040000     18.71930000      8.84782000      0.07348580      0.01865620      0.03505160       1
O              22.93010000      4.56053000     12.81480000      0.02870820     -0.06953840     -0.08405810       8
H              -0.99294200      3.36997000     10.92620000     -0.02358990      0.04860280      0.09176060       1
H              22.17410000      5.87721000     11.85180000     -0.00663964      0.00894276     -0.00058680       1
O               4.67868000      1.50530000      5.54573000      0.02634100     -0.00220080      0.02279210       8
H               5.51654000      2.19856000      4.14326000      0.01118570      0.01706880     -0.01937520       1
H               3.20346000      0.89326600      4.82052000     -0.03558690     -0.00962563     -0.00407658       1
O               5.22586000     22.48680000     23.67250000      0.19477500     -0.13417700      0.01257360       8
H               6.96978000     23.23420000     -0.49469000     -0.05284790     -0.01107780     -0.00521840       1
H               4.15660000     23.63230000     23.57550000     -0.14023300      0.15880500     -0.00833180       1
O              21.97220000      8.01975000     17.81450000     -0.00348917      0.00579906     -0.01163780       8
H              22.13280000      9.79977000     17.69370000     -0.00482046      0.01810900     -0.01300890       1
H              22.67830000      7.81486000     19.43180000      0.00187724     -0.02126590      0.02239150       1
O              14.94180000     24.30980000     17.94520000      0.01207520     -0.01166990      0.00012955       8
H              14.19240000      1.30199000     18.37150000     -0.00458770      0.02626720      0.00352504       1
H              13.42500000     23.35740000     17.85550000     -0.01149010     -0.00802294     -0.00277674       1
O               8.68637000      9.01229000      7.88701000     -0.05276680     -0.00847355      0.02533080       8
H               9.81373000      9.80148000      6.80462000      0.01640710      0.02152680     -0.02195260       1
H               6.97353000      9.82173000      7.71476000      0.03264130     -0.01524510      0.00129501       1
O               2.97944000     10.69050000      7.63020000      0.01902770      0.05402080      0.04075160       8
H               3.12470000     12.63430000      7.69301000     -0.00433991     -0.04256760      0.00368657       1
H               2.93813000     10.37510000      5.92359000     -0.00546015     -0.00986124     -0.04863840       1
O              19.93630000     13.14990000      7.05459000      0.00305047      0.01724610     -0.13936600       8
H              20.74320000     11.95870000      7.95116000      0.04419560     -0.05858920      0.05781840       1
H              21.22520000     12.03540000      4.68719000     -0.04666740      0.04200020      0.08312780       1
O              10.16600000     11.96380000     19.40690000      0.09100090      0.01823890     -0.06939340       8
H              11.14520000     13.36290000     18.30180000     -0.03613710     -0.05063960      0.03479720       1
H               8.88455000     12.94310000     20.01160000     -0.04310410      0.02892450      0.02436310       1
O              16.01600000      5.44065000     23.47050000     -0.05235930      0.01681160      0.00642730       8
H              17.50060000      6.30223000     24.18040000     -0.01017800     -0.00498113     -0.00777809       1
H              14.39040000      6.66021000     23.72450000      0.04625870     -0.04726780      0.00671383       1
O               3.53793000      4.56711000     18.93250000     -0.03431830     -0.03150680      0.02010080       8
H               2.34458000      3.15138000     19.70570000      0.03056810      0.05776500     -0.03855920       1
H               2.69557000      5.65784000     17.67180000      0.00348734     -0.02752930      0.01699360       1
O              15.20880000     10.14660000     19.70410000     -0.12224000     -0.06063870      0.04869980       8
H              13.10010000      9.81614000     19.48990000      0.04678350      0.04255900      0.00701441       1
H              15.84160000      8.89922000     18.67300000      0.08939730      0.00135177     -0.12898800       1
O              20.17910000     16.82050000     13.52520000     -0.01121300      0.02751320      0.01687440       8
H              20.67840000     18.04840000     14.84180000     -0.00520806     -0.01166730     -0.01341530       1
H              18.74250000     17.62750000     12.63550000      0.01643180     -0.00594405     -0.00054663       1
O               8.02143000     23.64250000     13.43050000      0.01903930      0.03380990     -0.03868000       8
H               7.33416000     23.19370000     14.97760000     -0.01076890     -0.00282944      0.03187750       1
H               9.26025000      0.61758500     13.75330000     -0.00705579     -0.03212170     -0.00157171       1
O              10.98500000     23.33460000      6.90664000      0.03948170      0.02497720     -0.01536460       8
H               9.67227000     23.51300000      5.69189000     -0.00514758      0.00272010     -0.00906367       1
H              12.42110000     24.41840000      6.20005000     -0.03348160     -0.03349330      0.01785720       1
O               6.20884000      6.84948000     13.98620000      0.01421000     -0.04518690     -0.05343110       8
H               9.62792000     10.30430000     13.00230000      0.07790580     -0.02894820     -0.01456760       1
H               6.17693000      5.23843000     12.46430000     -0.01198570      0.06307690      0.06019810       1
O              11.55510000      2.17592000     14.44430000      0.07929760     -0.00309875     -0.01704510       8
H              13.57840000      1.71883000     13.91010000     -0.08346070      0.01689520      0.01407020       1
H              13.94820000      7.44967000      9.90474000      0.00089163      0.01695460      0.02241200       1
O              11.76970000      3.56137000      8.79825000     -0.02444380     -0.01153550     -0.00903230       8
H              10.32130000      2.48421000      8.35535000      0.02467950     -0.00511866      0.00348486       1
H              10.84790000      5.09241000      8.95079000      0.00271936      0.02159440      0.00416309       1
O              17.61600000      3.91952000      8.15715000     -0.06889910     -0.05713830     -0.00368661       8
H              15.71410000      3.30033000      7.78313000      0.06218780      0.03389960      0.01299820       1
H              17.84700000      5.47191000      7.35062000     -0.00007223      0.03002930     -0.01304290       1
O              12.14660000     14.32760000     14.22680000     -0.11152000      0.23934100      0.02689870       8
H              12.92250000     13.02330000     13.96580000      0.12507400     -0.20822300     -0.04713810       1
H              12.75810000     15.64600000     12.99330000     -0.01257290     -0.02893610      0.01962380       1
O              23.60380000      0.96262300      6.81780000     -0.08515960      0.06672330     -0.01835130       8
H              21.92460000      2.81846000      6.55668000      0.07308780     -0.08979910      0.01234140       1
H              22.59730000     23.97040000      6.46635000      0.00839220      0.02228150      0.00687271       1
O              14.98740000     10.52330000      7.44916000      0.04082430      0.05081360     -0.01320740       8
H              14.21910000     10.64970000      5.78637000      0.00857188     -0.00093628      0.00821462       1
H              16.53370000     11.85750000      7.36706000     -0.04351460     -0.04756990     -0.00102600       1
O              16.72250000      1.42912000     12.62930000     -0.07190440     -0.01875890      0.00470711       8
H              17.23480000      1.95243000     11.03820000      0.02415270      0.01719670     -0.02744210       1
H              17.87720000      1.56526000     13.88960000      0.05282130     -0.00082780      0.03335520       1
O              23.07980000     19.41270000      6.50443000     -0.09815690     -0.07125510     -0.00289224       8
H              -0.32968500     19.49490000      7.83972000      0.01878160     -0.00152414      0.02491060       1
H              21.50220000     17.81270000      7.11953000      0.07464590      0.07582980     -0.02244500       1
O              24.42640000     24.44720000     24.71100000     -0.01188450     -0.01395250     -0.05173680       8
H               0.21332600     -0.28068100      1.85840000      0.00362560     -0.00461807      0.03695320       1
H              23.80310000     22.78830000     24.12960000      0.00302511      0.02117700      0.01317460       1
O               4.17401000      2.97696000     10.93300000      0.06447750     -0.08121180      0.06464440       8
H               5.51732000      1.27713000     11.14710000     -0.05999330      0.07289300     -0.00873976       1
H               4.36285000      3.53743000      9.29783000      0.00494111      0.00493190     -0.05141230       1
O              11.90350000     18.25800000      3.40137000      0.02326080      0.07853510      0.00812573       8
H              13.30490000     17.40930000      2.66516000      0.01257550     -0.01366740     -0.01529930       1
H              12.76030000     20.07200000      3.48494000     -0.03017280     -0.05637650      0.00346683       1
O              11.71480000      9.33088000     13.12320000     -0.10253900      0.02219000      0.02946050       8
H              13.25420000      8.70161000     11.61370000     -0.00839475     -0.02258510     -0.02895670       1
H              10.82450000      7.88629000     13.92990000      0.02287600     -0.00840304     -0.00851029       1
O               6.54538000     20.50030000      4.06394000      0.09298510      0.01768100     -0.04899410       8
H               6.33340000     22.41020000      3.92804000      0.00570798     -0.04649990     -0.00106769       1
H               8.88618000     20.07580000      2.84294000     -0.09594100      0.01763930      0.05356560       1
O               9.65614000      1.32240000      1.55160000      0.04745350     -0.00479939     -0.05314940       8
H               8.77930000      2.90662000      1.12656000      0.01450820     -0.01391760     -0.00207240       1
H              11.23550000      1.08753000      0.22546600     -0.06249180      0.01192150      0.05787400       1
O              15.57230000     23.78740000      0.55159600     -0.02061530      0.07040090      0.01997400       8
H              15.79510000     23.23850000     23.44140000      0.01089830     -0.01239060     -0.01796080       1
H              15.67570000      2.87447000     24.15210000      0.00551036     -0.01418910      0.00677398       1
O              22.45220000     13.42020000     23.17370000      0.00157246      0.03681390     -0.02765900       8
H              21.04550000     13.93810000     24.31980000      0.00912628     -0.00854098     -0.02840370       1
H              22.44620000     14.57530000     21.59700000     -0.01184190     -0.03247440      0.04994760       1
O              19.24900000     23.74640000     21.29580000      0.04657910     -0.02750150     -0.00263040       8
H              17.89110000     23.81470000     20.17180000     -0.02751340      0.00256468     -0.02033040       1
H              20.27120000     22.31690000     20.55890000     -0.01441500      0.02913200      0.01196960       1
O              17.36890000     12.66170000      0.66088100      0.01493970     -0.00555202      0.01868830       8
H              15.02370000      7.74976000     19.65900000     -0.01834510      0.01064200      0.06240300       1
H              18.23750000     12.09200000      2.23395000     -0.02038010      0.01204950     -0.02532010       1
O               3.16070000     11.67210000     14.92300000     -0.09827290     -0.13267300     -0.13337300       8
H               4.20305000     12.39430000     15.87920000      0.12365900      0.08681940      0.10979100       1
H               4.05345000     10.05890000     14.20920000     -0.02290380      0.04140760      0.02014340       1
O              13.89560000     18.53180000     18.94310000      0.02603560     -0.02119460      0.00238443       8
H              14.09160000     19.93170000     17.80250000      0.00721564     -0.00931726      0.00280244       1
H              15.61950000     17.80610000     19.26720000     -0.03640170      0.02584000     -0.00319856       1
O               3.20737000     11.50700000     20.41780000     -0.00325761      0.00334693      0.00952507       8
H               1.66062000     12.52260000     20.76610000      0.02681210     -0.01590300     -0.00613534       1
H               2.80447000     10.12650000     19.23920000      0.00423703      0.01778650      0.01344750       1
O              17.02630000      6.33781000     15.38160000     -0.05209360     -0.01168100      0.01427300       8
H              18.55020000      7.20330000     15.37360000      0.03991580      0.00278754     -0.00754134       1
H              16.89890000      4.89937000     14.22930000      0.00691132      0.01625070      0.00535215       1
O              12.53510000     16.83170000      9.36332000     -0.03047490     -0.00754718     -0.01290510       8
H              10.70390000     17.10030000      9.15488000      0.01412540      0.01600980      0.01978820       1
H              12.71840000     15.87490000      7.84281000      0.01619170     -0.00995484     -0.00496656       1
O               8.91965000     24.49680000     19.26460000     -0.03377770      0.01306650      0.00897772       8
H               7.49836000     23.57060000     19.98680000      0.01323090     -0.00074614     -0.00155674       1
H               8.14758000      1.65696000     19.18100000      0.02255710     -0.01698440     -0.00584845       1
O               6.35944000     10.43160000      0.81625900     -0.00899892      0.00363369     -0.09456110       8
H               5.96950000     11.59270000     22.69480000     -0.01859970     -0.04318220      0.06598680       1
H               5.83103000     11.91030000      1.81264000     -0.00226955     -0.01851110      0.00680140       1
O               8.31769000     14.00880000      4.24542000     -0.00873198     -0.01840140      0.00618574       8
H               7.56020000     15.06750000      5.47533000     -0.01201420      0.00550709      0.01312100       1
H               9.01460000     15.21980000      3.15749000      0.01608700      0.01519040     -0.01931330       1
O               9.61318000      5.01114000     17.91820000      0.05610680     -0.02225670     -0.00345974       8
H              10.61060000      4.01474000     16.45320000     -0.01569360      0.00771160      0.02673540       1
H               8.34678000      5.81875000     17.00480000     -0.03572720      0.01680100     -0.02078690       1
O              23.33070000      1.29783000     17.93890000     -0.05283540      0.05825390      0.00817975       8
H              21.40680000      1.99537000     18.69270000      0.09593640     -0.02813630     -0.03626730       1
H              24.22110000      2.72872000     16.97640000     -0.04097530     -0.03443690      0.02180150       1
O               4.15558000      4.98718000      0.61372300      0.01374990      0.05000560      0.01982630       8
H               4.07942000      4.79583000     23.39730000      0.00125464     -0.00104621     -0.01648160       1
H               5.50831000      8.25827000      0.63516500     -0.01506510      0.00786796      0.01198450       1
O              22.09290000     20.59190000     17.97970000      0.07974410     -0.04286140      0.04164170       8
H              22.50840000     21.65920000     16.65310000     -0.00189905      0.03670030     -0.02875750       1
H              24.06440000     20.26880000     18.56450000     -0.08270600     -0.00136004     -0.01775140       1
O              16.57600000     18.35240000     24.40130000      0.07767600     -0.08329900     -0.04460970       8
H              18.56650000     18.83450000     24.14050000     -0.07827460     -0.01860040      0.00819650       1
H              16.75630000     15.90740000     23.71810000     -0.00151905      0.08834470      0.04559260       1
O              16.80710000     23.54850000      5.83503000      0.02706340      0.05266390     -0.03017290       8
H              17.71030000      0.69945900      6.16777000     -0.02516330     -0.05313350     -0.00994481       1
H              16.80310000     23.43740000      3.89750000     -0.00375892      0.00192586      0.03369570       1
O               7.74516000     19.48740000      9.71850000      0.01721150      0.09853560     -0.01193100       8
H               8.55932000     19.94290000      8.09443000     -0.01410010     -0.01911490      0.00858986       1
H               7.75656000     21.55860000     10.17840000     -0.00424917     -0.08856350      0.00657019       1
O              23.59710000     13.73520000     11.26880000      0.06551760      0.05271240      0.05035120       8
H              22.95320000     15.43140000     11.80180000     -0.01597700     -0.03171050     -0.01227750       1
H              25.28030000     13.93070000     12.34890000     -0.05098200     -0.03034540     -0.03544430       1
O               0.17834100     10.07970000      2.48273000      0.05823600     -0.12055300      0.10630600       8
H               0.94380500      8.30885000      1.95819000     -0.01663040      0.05190070      0.02096350       1
H              24.33150000     10.67740000      1.02000000     -0.03837950      0.06460500     -0.12881300       1
O               1.96841000     19.88700000     12.02860000     -0.00028935      0.00105593      0.00837446       8
H               1.18507000     18.31290000     12.41020000     -0.00485237     -0.00452585      0.00115680       1
H               2.61522000     20.38860000     13.65060000      0.00091370      0.00458087     -0.00563669       1
O              21.96910000     19.13070000      0.39693500     -0.00792314      0.01420140     -0.01185330       8
H              21.23370000     18.93970000      2.02180000      0.00037195      0.00275845      0.01521960       1
H              23.37690000     18.04380000      0.38515200      0.01491440     -0.01447470     -0.00015505       1
O              23.09240000      7.81731000      8.85696000     -0.02843360      0.00693600      0.13420000       8
H              -0.05325500      8.20688000     10.12960000     -0.04345650     -0.00632885     -0.02368880       1
H              24.07800000      7.90952000      7.55363000      0.06932860      0.00701684     -0.11832700       1
