192
Lattice="24.12609 0.0 0.0 0.0 24.12609 0.0 0.0 0.0 24.12609" Properties=species:S:1:pos:R:3:force:R:3 TotEnergy=-1103.48192 cutoff=-1.0 nneightol=1.2 pbc="T T T"
O       23.24310000      20.31697000      18.84068000      -0.03634750      -0.04799880       0.00255870
H       21.23100000      20.26264000      18.26498000       0.08744400      -0.01065720       0.01675490
H        0.13311000      18.49954000      19.21908000      -0.04316630       0.06426250      -0.02551020
O        1.50392000      21.38861000       4.57578000      -0.04608900       0.05887050       0.00154309
H        2.32172000      20.36181000       5.63609000       0.04323260      -0.05236400       0.05157110
H        1.75972000      20.88751000       2.92477000       0.00820613      -0.01100180      -0.05216180
O       10.27510000       2.77149000      11.45760000      -0.00435964      -0.00454480      -0.00257175
H       10.83630000       4.06808000      12.56760000       0.00789729       0.01192200       0.00510654
H       10.54270000       1.24419000      12.39510000      -0.00085221      -0.01002190      -0.00264330
O       18.27816000      14.77400000       0.95311800      -0.00354531       0.04867590      -0.00454472
H       19.58188000      15.24160000      23.63497200      -0.04586710      -0.00543857       0.03685180
H       16.96877000      16.16621000       1.58196000       0.05582030      -0.03793840      -0.03149880
O        7.96236000       5.60511000      18.50640000       0.05558860       0.00560891      -0.03124290
H        8.88587000       7.10241000      19.12930000      -0.02483250       0.00556190       0.02232800
H        9.29857000       5.32381000      17.17400000      -0.03415730      -0.01181530       0.01443850
O       20.90421000      12.05740000      11.62890000      -0.04146760      -0.02987940      -0.02590330
H       19.91148000      10.98480000      10.34090000       0.01469000       0.02180780       0.03655870
H       22.41644000      12.37810000      10.75340000       0.02485560       0.00986869      -0.00273966
O       20.69511000       0.63011000      11.82850000      -0.05341100      -0.00994710       0.04776020
H       22.16291000       1.16321000      12.59070000       0.04574260       0.02457340       0.01788120
H       20.84531000       0.68661000      10.12000000       0.01324480      -0.00080271      -0.06114560
O        0.94779700      19.89728000      10.59430000      -0.03032350       0.03886130      -0.02632390
H        0.39008000      18.18628000      10.68600000      -0.00137782      -0.01897470       0.00464306
H       23.84038500      20.78908000       9.32679000       0.02152780      -0.01464380       0.02781170
O        6.42891000      13.74978000      17.66960000      -0.00195741       0.03181300      -0.01219980
H        6.82391000      15.53448000      17.31410000      -0.00473327      -0.01664660      -0.00217513
H        7.73631000      13.29658000      18.81860000       0.00486132      -0.01390930       0.01343840
O        8.36357000      20.24868000      21.59968000      -0.06426640       0.00353961      -0.16677400
H        9.61848000      20.77358000      22.45228000       0.14311900       0.05927290       0.08351930
H        7.35702000      19.56578000      22.71738000      -0.07733790      -0.06362360       0.07755120
O       14.00719000       3.70032000       7.38364000      -0.00371082      -0.01036500       0.02733410
H       12.93909000       3.54560000       8.89450000       0.01683260       0.00542212       0.00401630
H       12.64729000       3.53564000       6.24944000      -0.01083580      -0.00023983      -0.03354810
O       11.11289000       4.49711000       2.40972000      -0.02493870      -0.05070970       0.00717598
H        9.75579000       3.00121000       2.56342000       0.03992640       0.04070640      -0.01623050
H       12.32129000       4.02621000       1.09052000      -0.01079630       0.00155688       0.00650966
O       15.51080000      19.75458000      11.61049000      -0.02777170      -0.03838710      -0.02170500
H       15.58490000      18.02658000      10.68479000       0.00609658       0.04105690       0.01963110
H       13.67500000      20.02978000      11.84389000       0.01375720      -0.00182223       0.00175846
O        1.50911000      14.62750000      10.89671000       0.03015860       0.01465200      -0.05685290
H        2.75151000      14.78500000       9.43561000      -0.04028120      -0.00548080       0.01945880
H        2.74931000      14.38340000      12.13831000       0.00855437      -0.01184560       0.03305150
O        0.47303400       2.97611000       0.00515400      -0.01939560       0.03627710      -0.03246860
H        1.13526000       3.18046000       1.61029000       0.01952960       0.00870949       0.04186080
H        0.26454700       1.24979000      23.99994700      -0.00055591      -0.04399480      -0.00953780
O       21.90718000      22.50890000       7.39931000      -0.01839800      -0.00663430      -0.02102790
H       22.44118000      22.20550000       5.67711000       0.02282470       0.00108324       0.00558315
H       20.12118000      22.20430000       7.06621000      -0.00999353       0.00384306       0.02338310
O       15.44948000      10.79120000       1.22091000      -0.06772940      -0.06156510       0.01553070
H       14.06268000      10.55380000      24.10430000       0.03557270       0.01217930       0.01481580
H       16.75818000      11.87470000       0.83841000       0.03133870       0.04151970      -0.03031060
O        8.52509000      13.78052000       4.80519000       0.00493628      -0.01385100      -0.17897500
H        8.51499000      13.79182000       6.40489000      -0.00857157       0.00817032       0.18473600
H        8.24979000      12.03342000       4.36179000       0.00302815       0.00435275      -0.00351050
O       19.37172000      20.90580000      14.85331000      -0.05047530      -0.09511570       0.09896810
H       20.11572000      21.97700000      13.84241000       0.04120690       0.08265020      -0.07965070
H       17.55872000      21.06490000      14.86221000       0.00921616       0.00666404      -0.01244750
O        7.28192000       0.81619000       2.09021000      -0.03616640       0.03123540       0.08413450
H        5.86362000       1.53629000       3.43804000       0.04216050      -0.03138190      -0.05666210
H        6.60422000       1.10289000       0.44411200      -0.00784420       0.00489184      -0.01992050
O        5.90341000      19.15640000       9.06459000       0.01408090      -0.06553760       0.06388220
H        6.65331000      17.51680000      10.23649000      -0.02652700       0.06126320      -0.05630410
H        4.25201000      19.53120000       9.90169000       0.02183960      -0.00072895      -0.01239920
O       12.55019000       7.91238000      10.60892000      -0.09496860       0.00495337       0.04192870
H       10.67709000       7.69577000       9.86792000       0.07819330       0.00856789       0.00032842
H       13.97009000       7.86870000       9.60162000       0.01998040      -0.00778593      -0.04152370
O        5.96042000       0.98123800      21.32676000      -0.04573300      -0.02495610       0.03577930
H        6.31271000      23.32003000      21.40203000       0.00071245      -0.00035984      -0.00324341
H        7.16275000       1.65213000      20.30237000       0.04417150       0.02902240      -0.03647700
O       19.82691000       5.27241000      23.52090000       0.02650270      -0.01887300      -0.00985914
H       19.21661000       5.38351000       1.07601000      -0.01123700       0.00580444       0.01839900
H       21.52211000       4.41062000      23.70210000      -0.01898410       0.01452730      -0.00838783
O       20.85636000      12.78872000       5.43921000       0.04440110      -0.01318480       0.06358060
H       20.10882000      13.58832000       4.14521000      -0.05301690       0.02915770      -0.07423130
H       22.45777000      13.75412000       5.38741000       0.00033047      -0.01558680       0.01222650
O        8.39230000      14.05041000      10.28510000      -0.05896120       0.01855100      -0.02156370
H        7.10211000      13.00611000      11.15180000       0.02948350      -0.00343450       0.00032048
H       10.06050000      13.90881000      10.83830000       0.02885650      -0.01397120       0.02270420
O        6.91279000      19.77120000      16.35940000       0.01727660       0.01827720       0.04491380
H        5.28619000      20.55440000      16.16160000      -0.00975624       0.00328088      -0.01011450
H        7.47519000      20.50510000      18.04540000      -0.01172270      -0.02500580      -0.03216480
O        8.81891000       8.78861000       1.87452000      -0.10543600       0.12652500       0.00113591
H        9.52251000       7.29561000       2.13272000       0.04028980      -0.10638800       0.01255290
H        6.89461000       8.90511000       2.42172000       0.05972780      -0.01310020      -0.01524450
O       14.13650000      10.26751000      19.29710000      -0.00742450      -0.02185140      -0.01305550
H       14.10410000      11.97361000      18.60560000       0.00118655       0.00514725      -0.01113370
H       14.04560000       9.04871000      17.83780000       0.00074442       0.01776780       0.02465770
O        1.72715000      21.00568000      23.84370000       0.00529853      -0.05379200      -0.04010270
H        0.33174100      20.69658000      22.59350000       0.02189730       0.01118200       0.01789440
H        2.87550000      19.48818000      23.44540000      -0.02563950       0.04079820       0.01258730
O        1.63311000      14.20070000       5.33207000       0.00109403      -0.01092930       0.00171250
H        2.42292000      12.69690000       4.61721000      -0.00110426      -0.02108190       0.01411080
H        2.27819000      15.17870000       4.01208000       0.00369305       0.04063560      -0.01612200
O        1.62474000       2.77667000      14.20560000       0.01236820      -0.04030810       0.05816990
H        1.67396000       0.64596000      14.48660000       0.00414426       0.04755850      -0.00377071
H        2.01677000       3.24928000      16.07110000      -0.01366370      -0.00141231      -0.05746530
O       13.39178000       5.63122000      16.29408000       0.02469670      -0.02585860       0.05265230
H       14.82298000       5.57372000      15.18218000      -0.00815545       0.00110791      -0.02512240
H       14.23078000       4.59392000      17.69598000      -0.03364780       0.02407540      -0.02110670
O        2.68036000       2.26002000       4.98369000       0.01581040       0.00067453       0.03298070
H        3.60864000       2.81932000       6.54129000      -0.01945730      -0.00990437      -0.01992230
H        1.84967000       0.67352000       5.52839000       0.01491910       0.01399900      -0.01258380
O       13.86908000      14.36581000       4.51511000      -0.00681231       0.02251700       0.01798380
H       14.52718000      12.93921000       3.65865000       0.00316685      -0.02101070      -0.01570470
H       12.07928000      14.06391000       4.78211000      -0.00176530       0.00137511      -0.00487355
O       19.80740000       7.70041000      14.83500000      -0.02088630      -0.02661590       0.08510230
H       19.74070000       8.28771000      16.68030000       0.01186040      -0.00440826      -0.04320170
H       20.39390000       8.88061000      13.69970000       0.01847010       0.04135300      -0.02043300
O        8.66599000       7.02449000       7.24029000      -0.04045790      -0.02436920       0.06500010
H        9.18989000       7.46129000       5.67386000       0.02165930       0.01863400      -0.06007960
H        6.82569000       6.84499000       7.18807000       0.01525450       0.00854575       0.00264835
O        2.83968000       6.10765000      19.22610000       0.09439200      -0.02690970      -0.00582022
H        2.96648000       4.93389000      20.63200000      -0.01884670       0.00311048       0.00109897
H        5.03488000       5.78537000      18.82130000      -0.07501650       0.02389830       0.00027062
O        3.14849000       7.64059000       9.12921000      -0.04763350      -0.04060300      -0.04242110
H        3.59979000       5.84569000       9.65241000      -0.01848400       0.03423920      -0.01523100
H        1.46529000       7.54479000       7.84911000       0.06328190       0.00176420       0.05474910
O       16.45640000      15.45040000       8.70991000       0.05576450      -0.05242410      -0.10218300
H       18.18850000      14.61450000       7.74151000      -0.06034670       0.03634070       0.05497960
H       15.43980000      15.15370000       6.97231000       0.00752580       0.01178420       0.04585410
O        2.00689000      22.19706000      14.98741000      -0.04172520      -0.04658610      -0.04087270
H        0.93969000      21.58544000      16.45691000       0.00764570       0.00767620      -0.01829550
H        1.13459000      21.20771000      13.17041000       0.03473030       0.02569190       0.05457270
O       17.98121000       8.45766000       9.29211000      -0.01507420       0.01221630       0.04913210
H       18.49541000       8.32223000       7.61891000       0.00184017      -0.02313310      -0.02727170
H       17.76771000       6.91290000      10.35381000       0.00752708       0.00854314      -0.01933360
O       13.87589000      14.63048000      16.73447000      -0.03598680       0.00139822       0.03245940
H       15.56549000      14.95678000      16.44248000       0.04672490       0.01068100      -0.00640022
H       13.30259000      13.99888000      15.15082000      -0.00394675      -0.00426815      -0.02153870
O        4.83902000       2.45659000      10.01729000      -0.02256530       0.00676644       0.00110937
H        6.46962000       2.88469000      10.57149000       0.03589520       0.00057860      -0.00071822
H        3.90912000       2.66529000      11.60419000      -0.01391980      -0.00609283       0.00266867
O       16.60300000      22.63056000       7.41628000      -0.02920120       0.06295090       0.02469010
H       15.87620000       0.32709300       7.81569000       0.02231510      -0.04845930      -0.03033880
H       15.96400000      21.84685000       8.96838000       0.00987125      -0.01664440      -0.00020628
O       12.87818000      22.30002000      23.18051000      -0.02325080       0.02971790      -0.04281600
H       14.10098000      21.91204000      21.92671000      -0.00033454      -0.00752836      -0.02452440
H       13.72998000      21.65962000       0.40302000       0.02547970      -0.02260200       0.07068550
O        5.39198000      10.52879000      12.78179000       0.05481850       0.05817410       0.08353600
H        6.01506000      10.15539000      14.58949000      -0.02702080       0.00397177      -0.05866020
H        4.61180000       9.27539000      11.89579000      -0.03081310      -0.05154420      -0.02381920
O       19.51020000      15.73690000      15.85380000      -0.01396040       0.02312280      -0.04359340
H       19.39310000      17.30130000      14.76850000       0.00738114      -0.00240871       0.03929020
H       19.37860000      14.70140000      14.34760000       0.00897871      -0.02644310       0.00952958
O       10.22260000      21.04340000      12.50339000      -0.00600063       0.00322396      -0.10932200
H        9.26283000      20.73110000      13.91879000      -0.03569880      -0.01433030       0.04093290
H        8.98835000      20.66500000      10.91409000       0.04179680       0.01493370       0.06402190
O       23.21360000       8.14712000       5.58801000       0.03285570      -0.04555890      -0.00133355
H       22.24920000       9.57302000       5.81791000      -0.02546730       0.05607850       0.00230971
H       21.96900000       6.85222000       5.60871000      -0.00202841      -0.01433730      -0.00452179
O       17.41470000       6.59572000       4.17481000       0.11632400      -0.06439780       0.00722836
H       16.77229000       7.97881000       3.55590000      -0.05266240       0.10714300      -0.05374340
H       16.19428000       5.74977000       4.98701000      -0.06082720      -0.04410390       0.04269200
O       13.67570000      20.51678000      18.36910000      -0.03289000      -0.01738600      -0.02870200
H       11.77190000      20.64608000      18.30190000       0.04615970      -0.00670799       0.00221443
H       14.06530000      19.14728000      17.13010000      -0.01056160       0.02110900       0.02410500
O        2.33448000      16.34680000      19.98681000      -0.05797060       0.00019292       0.02346700
H        0.64214500      15.50130000      20.25671000       0.02635450       0.00667225       0.00253021
H        3.20930000      15.18490000      18.95931000       0.02185510      -0.01372780      -0.01782760
O       15.40991000      19.78491000       3.17646000       0.05588780       0.05133720       0.02020230
H       15.87431000      20.64131000       4.88504000      -0.01826520      -0.01718900      -0.04195610
H       14.14391000      18.64781000       3.46769000      -0.04229180      -0.03434490       0.01754480
O       21.34910000      14.30960000      20.98038000      -0.02273050       0.06393890      -0.07370170
H       21.19790000      12.57540000      21.00298000       0.00047968      -0.06149360       0.00755886
H       20.50860000      14.63820000      19.14158000       0.02928970       0.00010982       0.05961050
O        6.34029000      17.83131000       1.53878000      -0.02143360      -0.04470850      -0.00605077
H        6.35749000      15.95451000       2.09081000       0.01706000       0.06763190      -0.00196668
H        7.17099000      19.05441000       2.62288000       0.00558478      -0.02118140       0.01434930
O        9.43042000      21.07988000       5.15811000      -0.01333250       0.03869460      -0.02563600
H        8.19086000      20.85728000       6.50971000       0.00515557       0.00739887      -0.01295300
H        9.04744000      22.72608000       4.12011000       0.00317754      -0.05192080       0.03569570
O        3.81143000       9.99171000       3.41955000      -0.02952590      -0.02937160      -0.05588970
H        2.40717000       8.97041000       4.16817000       0.02347230       0.01200390      -0.01065870
H        3.44137000       9.72111000       1.41498000       0.00385918       0.01389620       0.04870200
O       13.43229000      13.03659000      12.01950000       0.03296460      -0.03277070      -0.03928540
H       13.49269000      11.18139000      11.90750000      -0.02403230      -0.00010182       0.01334170
H       14.75941000      13.12549000      10.62990000      -0.01801170       0.03124230       0.02423830
O       16.96091000       4.58495000      12.82470000       0.01504200      -0.05256240      -0.02251930
H       17.87565000       5.26776000      14.21960000       0.01936500       0.02557560       0.00454205
H       18.11557000       3.08839000      12.53610000      -0.02460110       0.01911600      -0.00217212
O        2.48901000      10.02069000      22.41630000       0.00203864       0.01061720      -0.03321270
H        2.66931000      11.77959000      21.84911000      -0.00010643      -0.02308240       0.00740274
H        2.55441000       8.92589000      20.78252000       0.00174041       0.00962840       0.03632380
O       19.63720000       9.07715000      20.18491000      -0.04393850      -0.01423920       0.05080820
H       19.54230000       7.63996000      21.72511000       0.01060220       0.04251070      -0.04988060
H       17.97410000      10.01780000      20.37291000       0.03293080      -0.02724440      -0.00594237
O       14.66650000       3.37691000      21.98181000      -0.01060700       0.02791070      -0.00740223
H       16.40810000       4.02221000      22.04021000      -0.01373180      -0.03212970       0.00429242
H       14.15550000       1.62031000      22.03071000       0.02457340       0.00399217       0.00515735
O        9.13169000      10.16610000      20.91860000       0.07647190       0.00690138      -0.01731420
H       11.20969000      10.42910000      20.19330000      -0.06935670      -0.01613810       0.03592690
H        9.18569000       9.73468000      22.75980000       0.00190770       0.00561431      -0.02405260
