192
TotEnergy=-1103.37208000 cutoff=-1.00000000 nneightol=1.20000000 pbc="T T T" Lattice="24.53040000       0.00000000       0.00000000      -0.00000100      24.53040000       0.00000000      -0.00000100      -0.00000100      24.53040000" Properties=species:S:1:pos:R:3:force:R:3:Z:I:1
O              21.01090000      2.18921000    -31.82770000     -0.01163770     -0.00303632     -0.04552410       8
H              20.85990000      2.10542000    -30.10280000      0.01483960      0.01097990      0.06068740       1
H              19.56710000      1.16099000    -32.21720000     -0.00624843     -0.00710794     -0.01963120       1
O              49.43420000     47.02850000      9.33651000      0.09052830      0.00984205      0.07075540       8
H              49.40960000     45.32730000      9.74887000      0.00657720     -0.03590540      0.01354090       1
H              48.15260000     47.23520000      8.32341000     -0.10012500      0.02451260     -0.08514790       1
O               9.60252000      1.85329000     17.48900000      0.01875750      0.04607940      0.00494682       8
H               9.84779000      0.14079600     17.60090000      0.00137326     -0.04710660      0.00154825       1
H               7.85045000      2.27815000     17.41050000     -0.01702020      0.00153014     -0.00888649       1
O              -4.78902000    -10.15140000     -0.49376400      0.00318607     -0.13720000      0.06609310       8
H              -4.60850000     -8.59492000     -0.97673900      0.00498590      0.13157100     -0.03851250       1
H              -4.24941000    -10.28130000      1.30582000     -0.00799054      0.00328373     -0.02701370       1
O               6.37248000     32.58640000     20.94890000      0.02649820     -0.20620800      0.10952000       8
H               6.54007000     33.98890000     20.24710000      0.02700740      0.17374800     -0.09708990       1
H               8.01151000     31.53570000     21.10750000     -0.03755420      0.03184930     -0.00814375       1
O              -1.57146000     15.64770000      9.58044000     -0.01632480     -0.01995710     -0.07147710       8
H              -1.50768000     15.14310000      7.66448000     -0.01458490      0.00276238      0.04916640       1
H               0.15386200     16.08020000      9.68134000      0.02918100      0.01290310      0.02204840       1
O              37.69100000     22.45630000     11.50270000     -0.01194400      0.02490900      0.03368700       8
H              38.29020000     21.43160000     10.24650000      0.02819730     -0.02943690     -0.04923470       1
H              36.29030000     21.44200000     11.99820000     -0.01238820     -0.00104493      0.01807920       1
O               0.86086300    -24.23080000     15.09700000      0.08025880     -0.04868320     -0.11083100       8
H               0.83105700    -24.21530000     13.02900000     -0.01816160      0.00720493      0.09544170       1
H              -0.33069400    -23.55470000     16.13070000     -0.06080920      0.03561110      0.01514150       1
O              31.09020000    -36.41500000     18.24260000     -0.11035700      0.00938082     -0.04873540       8
H              32.59290000    -36.13620000     18.89650000      0.10815800      0.01704390      0.04267530       1
H              30.48930000    -34.64780000     18.07720000      0.00552458     -0.01612320      0.00828295       1
O               5.99434000    -27.38170000    -26.29870000      0.02909490     -0.08473620      0.04260740       8
H               7.92807000    -28.60420000    -26.41180000     -0.06661740      0.04866630      0.00779248       1
H               4.78354000    -28.30110000    -24.87830000      0.04655400      0.02820890     -0.05378210       1
O             -11.64270000      2.42274000      5.07796000     -0.03092930     -0.00280918      0.01512980       8
H             -13.55840000      2.63120000      4.82391000      0.05423570     -0.00626800      0.00019187       1
H             -10.49230000      3.16997000      3.86689000     -0.01608250      0.00188308     -0.01291480       1
O             -11.06220000     35.50920000     47.23060000      0.01904140      0.00973917     -0.05137380       8
H             -10.99160000     34.34790000     45.73050000     -0.00493910      0.01591170      0.02247980       1
H             -12.01000000     34.79960000     48.49760000     -0.02657090     -0.02394780      0.03633340       1
O              14.17130000    -30.64850000    -16.50590000     -0.04398650      0.05652790     -0.00325194       8
H              15.44280000    -31.76150000    -16.20620000      0.06267540     -0.04229990      0.02271890       1
H              13.39820000    -31.42520000    -17.89720000     -0.02531280     -0.00659262     -0.02593350       1
O              27.75190000     16.88140000     36.16380000      0.03666230      0.03121220     -0.06801090       8
H              29.37770000     16.30620000     35.20130000     -0.03713550      0.01808360      0.02822120       1
H              27.37690000     15.79690000     37.44350000     -0.00467090     -0.04056600      0.03777250       1
O              -1.47403000      2.31749000     -2.28682000      0.07905680      0.07263750     -0.03004070       8
H               0.44244800      3.06455000     -2.39741000     -0.07500760     -0.02457290     -0.00768293       1
H              -1.19061000      0.92301600     -1.28788000     -0.00131784     -0.04741690      0.03329320       1
O             -27.91860000     23.81040000     29.81810000     -0.05393550     -0.01768260     -0.00499981       8
H             -27.50330000     22.93570000     28.19370000     -0.00130505      0.01790080      0.01882120       1
H             -29.91720000     23.49250000     29.98820000      0.05804010      0.00020243     -0.00717505       1
O             -30.75890000      9.97862000     20.56640000      0.02583200     -0.03452400     -0.02107900       8
H             -32.24130000     10.16340000     19.57780000     -0.01249190      0.00215975     -0.00519414       1
H             -30.70280000     11.16070000     21.85050000     -0.00567006      0.03634050      0.02673390       1
O             -13.94900000     61.04070000    -20.96460000      0.00707942      0.00275260     -0.04125910       8
H             -13.69060000     61.18080000    -19.16280000     -0.02831930     -0.00654294     -0.00232022       1
H             -15.65650000     60.66590000    -21.71540000      0.01884900     -0.00641508      0.03393980       1
O              66.06430000     22.93170000     40.22670000     -0.03998940      0.01923600     -0.07713250       8
H              65.35830000     22.75990000     38.33040000      0.01184290      0.01450330      0.07196500       1
H              67.15180000     21.55040000     40.12660000      0.02510230     -0.03516610      0.00971215       1
O              56.98460000    -22.08950000      6.52904000     -0.01269650     -0.00865328     -0.04080520       8
H              57.93230000    -20.97420000      7.49279000      0.01730750      0.02046340      0.02755750       1
H              56.37640000    -21.01360000      5.10989000     -0.00912044     -0.01342810      0.01567940       1
O              32.27610000     16.80980000    -15.09370000      0.01755860      0.01732450      0.04958740       8
H              32.78640000     15.18000000    -15.76440000      0.01391870      0.00359642      0.01656110       1
H              33.18180000     17.26590000    -13.29240000     -0.01802610     -0.02327020     -0.06822500       1
O              -9.38990000      6.75969000     62.37090000      0.01475740      0.02945470      0.03056360       8
H             -10.12160000      5.54318000     61.28880000     -0.00253332     -0.02506310     -0.01870120       1
H              -7.57783000      6.51566000     62.43990000     -0.00001030     -0.00979700     -0.00356320       1
O               4.91957000      2.13899000     -2.01790000     -0.01604490      0.01025450      0.01117850       8
H               5.55173000      0.48163800     -1.88089000     -0.01432850     -0.04815080      0.01172910       1
H               6.50908000      2.67146000     -2.54875000      0.02912290      0.04125590     -0.01484510       1
O              44.08760000      5.73146000     23.87260000      0.03567050      0.01042090     -0.01352930       8
H              44.08750000      7.24636000     22.88300000     -0.02355270      0.01406790     -0.00382849       1
H              45.61660000      5.05861000     23.03030000     -0.01272740     -0.02350770      0.01780290       1
O              -2.10006000     62.27770000     29.22230000      0.00232991     -0.01090470     -0.00110401       8
H              -2.45141000     60.32520000     29.15150000      0.02276250      0.04668700     -0.01170520       1
H              -0.51040100     62.77140000     28.39760000     -0.01697060     -0.02158960      0.00352637       1
O               9.72562000     36.48240000      8.78728000      0.02455310     -0.03800560      0.04053440       8
H               8.39057000     35.78650000      9.92141000      0.01626630      0.00631363     -0.02712930       1
H              11.32960000     35.59180000      9.46300000     -0.03578320      0.02861460     -0.01078520       1
O             -17.53070000     18.01770000     18.29910000      0.08352290     -0.04740940      0.09452160       8
H             -18.89740000     18.96020000     18.16410000     -0.09257290      0.06001960     -0.02663300       1
H             -17.31740000     18.31710000     20.30820000      0.00377388     -0.01817610     -0.07797690       1
O              30.75770000     34.47100000     50.51660000     -0.00465379     -0.02449800      0.07441050       8
H              31.15100000     34.33510000     48.87560000      0.01283870      0.01061190     -0.09376730       1
H              30.78750000     32.60670000     50.75500000     -0.01027620      0.01689480      0.02293940       1
O              13.74790000     34.24920000     17.76490000     -0.00658975     -0.03593210      0.01067180       8
H              13.71430000     32.60760000     16.87370000      0.00481624      0.02513400      0.00084102       1
H              14.11530000     35.57810000     16.62300000      0.00372992      0.01062570     -0.01549550       1
O              -1.64970000    -26.95850000     25.12300000      0.08552530     -0.01209670      0.04115150       8
H              -2.85755000    -27.83100000     24.25550000     -0.04805960     -0.03019020     -0.03465420       1
H              -0.19692300    -28.29430000     25.46270000     -0.04116850      0.04357000     -0.00635758       1
O               2.71142000     14.10890000      0.65776400      0.02725650     -0.02681000      0.02783130       8
H               4.11429000     13.10720000      1.77480000     -0.06365410      0.02014650     -0.06399800       1
H               1.82873000     13.34540000     -0.92859000      0.03548990      0.00133152      0.04055750       1
O               5.17533000      3.94647000     15.59530000      0.03875960     -0.00924913     -0.01144630       8
H               4.41952000      2.50542000     14.75890000     -0.01613750      0.01628060      0.00814250       1
H               4.09466000      5.05532000     16.51720000     -0.02287820     -0.00854123      0.00889093       1
O             -38.57930000     53.59220000    -27.24000000     -0.07948020     -0.00338160     -0.10722300       8
H             -38.36450000     52.39360000    -28.79920000     -0.01353010      0.03295460      0.03093590       1
H             -37.30610000     53.13880000    -26.28180000      0.09113270     -0.02632940      0.07583390       1
O               3.63562000     50.79650000    -14.30110000      0.11504600      0.21149200      0.05606720       8
H               5.43339000     50.90390000    -14.75150000     -0.02417970     -0.00793040      0.00190917       1
H               2.93191000     49.45710000    -14.66890000     -0.09092830     -0.20174500     -0.06377910       1
O             -32.42210000     35.17120000      4.84843000     -0.04101200      0.00252201     -0.03014970       8
H             -33.95430000     34.97860000      3.71515000      0.03692430      0.00604040      0.02760400       1
H             -30.98960000     34.81950000      3.76923000     -0.00184070     -0.00324434      0.00459241       1
O              23.84150000     35.66830000     13.14810000      0.07839790     -0.04468400      0.08657570       8
H              25.76080000     36.33120000     13.61920000     -0.04506070     -0.02372660     -0.01162740       1
H              23.36260000     36.62560000     11.87210000     -0.03941480      0.06382270     -0.07960920       1
O             -10.97770000    -21.65470000     10.53210000      0.00508060     -0.02059970     -0.04470940       8
H             -10.66930000    -22.04060000      8.62403000     -0.01481040      0.01337800      0.05101420       1
H             -11.06340000    -23.32350000     11.36400000     -0.00069465      0.01305750     -0.01385740       1
O             -46.84180000      5.99504000     19.40610000     -0.06441980      0.00099034     -0.04141360       8
H             -47.77380000      7.54549000     18.93080000      0.00711269     -0.02049730      0.00797698       1
H             -45.50560000      6.44312000     20.41540000      0.04037220      0.01911410      0.02739800       1
O             -19.18940000    -16.01520000     34.29410000      0.06469820      0.04129410      0.05262490       8
H             -18.06800000    -17.41170000     34.67290000     -0.00139718     -0.00406327     -0.00095818       1
H             -20.47930000    -16.59270000     33.37320000     -0.06943220     -0.03145250     -0.04887450       1
O              17.64260000     14.82420000     32.98640000     -0.00151521      0.00450692      0.01069680       8
H              19.45560000     15.13650000     33.10460000     -0.01318570     -0.00722791     -0.00476471       1
H              17.17330000     13.95680000     31.46440000      0.01565730     -0.00612907     -0.01035920       1
O             -22.72140000     -3.73815000     43.00950000      0.02821280     -0.07498190      0.08857550       8
H             -21.37830000     -3.04117000     44.04980000     -0.00970074     -0.00840638      0.00973744       1
H             -22.83980000     -2.58705000     41.82230000     -0.01972920      0.08390510     -0.09741100       1
O              44.97520000      4.52382000     31.48360000     -0.01057930     -0.06172920      0.08121250       8
H              44.93230000      4.56656000     33.54520000     -0.00010876      0.00334804     -0.07616280       1
H              44.60280000      2.58507000     31.15890000      0.02144980      0.06043410     -0.00001565       1
O              -9.96949000    -34.40590000     -9.33000000     -0.02641080     -0.00523225      0.00697175       8
H              -8.32012000    -33.63660000     -9.22450000      0.00997626      0.00476108     -0.00365104       1
H             -10.14580000    -35.42820000    -10.86430000      0.01163930      0.00039081      0.00002258       1
O              57.28340000    -19.76040000    -13.07880000     -0.01490160      0.01136350      0.00968131       8
H              58.96600000    -20.31850000    -13.04050000      0.03025280     -0.00875663     -0.00355402       1
H              56.84430000    -19.46550000    -11.31950000     -0.00900939     -0.00835504     -0.00342062       1
O              16.28330000     -1.83047000      5.25439000     -0.05509750     -0.05495800      0.02069010       8
H              14.93870000     -0.58250300      5.14854000      0.00335745      0.00264655     -0.00136282       1
H              15.25000000     -3.47086000      5.89758000      0.04520100      0.05337470     -0.01688710       1
O             -38.19720000     -5.59707000     46.93310000      0.00206195      0.00799652     -0.14690300       8
H             -37.91910000     -7.40323000     45.98730000     -0.00283042      0.03182030      0.01066570       1
H             -38.43560000     -5.98678000     48.50730000     -0.00270708     -0.03353200      0.13548800       1
O               3.92104000    -12.62400000    -10.74020000      0.02427850      0.01224520      0.02175300       8
H               5.13295000    -12.21320000     -9.30265000     -0.02058730     -0.02544850     -0.02921920       1
H               4.37229000    -14.08800000    -11.77400000      0.00843979      0.00428200      0.00388257       1
O              18.76860000     17.64440000     15.16650000      0.02404160     -0.01427310      0.13792800       8
H              19.45790000     17.72240000     13.66760000      0.04211860      0.00379746     -0.11626400       1
H              20.61260000     17.29860000     16.30210000     -0.06260470      0.00989718     -0.02164040       1
O              10.75150000     18.27110000    -10.69280000     -0.01347570      0.00942131     -0.02025150       8
H              12.33670000     17.45370000    -10.48460000      0.01791850     -0.01225910      0.00066934       1
H               9.81004000     17.74430000     -9.27553000     -0.01440830      0.00110546      0.01973220       1
O              26.05160000     54.54640000     31.32050000     -0.05356300     -0.04566990      0.01807710       8
H              24.15360000     53.94760000     31.36260000      0.05019980      0.02584410     -0.00826941       1
H              26.68080000     53.16930000     32.44670000      0.00417946      0.01772940     -0.01116480       1
O              -3.06708000      8.54676000      3.65855000     -0.00108546     -0.00153848     -0.03815920       8
H              -3.28120000      7.44378000      5.01549000     -0.00631011     -0.02373120      0.03566540       1
H              -3.32363000      7.34879000      2.24529000      0.00028444      0.01699920      0.00318622       1
O              14.89960000    -26.69710000     20.63750000     -0.07251160     -0.03932300      0.13377400       8
H              13.29700000    -27.89110000     21.16880000      0.06027550      0.04108400     -0.02117710       1
H              15.14950000    -26.77850000     18.99160000      0.00916433     -0.00393857     -0.11074700       1
O              -5.33255000     19.46630000     46.31740000     -0.00422587      0.00361524      0.01084360       8
H              -3.97377000     19.28460000     45.11360000     -0.01340930      0.00065897     -0.00768004       1
H              -6.83956000     20.35770000     45.66930000      0.01677900     -0.00487798      0.00403051       1
O              35.78720000     41.48730000      2.92268000      0.06689570     -0.08088310     -0.02705510       8
H              34.29690000     42.27850000      3.23055000     -0.06256620      0.01837290      0.01376700       1
H              35.62910000     39.45390000      2.57831000     -0.00570371      0.06508080      0.02388490       1
O              22.52610000     17.26780000    -30.63150000      0.08948690     -0.00560371      0.02225800       8
H              23.34450000     15.71060000    -29.76450000     -0.02780730      0.03093700     -0.02228970       1
H              24.22860000     18.39670000    -30.67500000     -0.05370320     -0.02018370     -0.00356492       1
O             -22.12410000     43.52940000      1.78142000     -0.12077500     -0.02303620     -0.15125000       8
H             -22.32330000     41.68090000      1.74746000     -0.00563866     -0.00132973     -0.02713450       1
H             -21.15340000     43.55790000      3.01651000      0.13403900      0.02977940      0.17394400       1
O               7.04265000    -29.14000000     29.65760000     -0.01490180     -0.03814640     -0.01006220       8
H               7.92513000    -30.15490000     30.94070000     -0.00603672      0.02784000      0.00021911       1
H               7.55908000    -27.47850000     29.28610000      0.01609110      0.01199840      0.01301130       1
O               5.33060000     29.30840000      2.90174000      0.12095600      0.03300290     -0.00322931       8
H               5.08972000     28.21380000      1.61390000      0.00471270     -0.05027410     -0.06975630       1
H               3.78523000     29.40750000      3.44917000     -0.12509800      0.02116270      0.06581470       1
O              -9.88108000    -13.27830000     11.44550000      0.00534657      0.06187300     -0.06181620       8
H              -9.22289000    -14.84320000     12.09310000      0.00660929     -0.01600560     -0.00759773       1
H              -8.89712000    -12.37800000      9.93188000     -0.01962860     -0.03987890      0.06130450       1
O              -3.98700000      5.64487000     12.96240000     -0.05845360     -0.09795020      0.04647400       8
H              -2.70439000      6.73040000     13.04310000      0.06958150      0.06501050      0.00202724       1
H              -3.66020000      4.49587000     14.57640000     -0.01226200      0.03296230     -0.04746110       1
O              24.41570000    -11.63900000     -3.36140000      0.05047020      0.04137770      0.02263400       8
H              23.86040000    -12.58890000     -4.69596000     -0.01007980     -0.05326950     -0.05890010       1
H              22.94940000    -11.34540000     -2.48094000     -0.04910650      0.00975207      0.03701890       1
O              22.79070000      9.57930000     42.10550000      0.03882250      0.01704480     -0.04349800       8
H              21.14250000      9.67528000     42.77030000     -0.02399630      0.00122830      0.00035681       1
H              23.02920000     10.31240000     40.18500000     -0.01916800     -0.01568160      0.04697990       1
O              15.27210000     27.63290000     49.60800000     -0.02763670     -0.12006100     -0.01004700       8
H              16.70020000     28.58310000     49.32990000      0.05040980      0.02680960     -0.01440830       1
H              15.84550000     25.62570000     49.13940000     -0.02536660      0.09448420      0.01950400       1
O             -13.11390000     14.65400000     20.18590000      0.01412410     -0.03989810     -0.03513620       8
H             -12.64010000     14.42100000     18.23020000     -0.00279776      0.00648176      0.07671550       1
H             -12.43030000     13.11220000     21.45400000     -0.00327899      0.03474800     -0.04269680       1
