192
TotEnergy=-1103.45019000 cutoff=-1.00000000 nneightol=1.20000000 pbc="T T T" Lattice="24.04866000       0.00000000       0.00000000      -0.00000100      24.04866000       0.00000000      -0.00000100      -0.00000100      24.04866000" Properties=species:S:1:pos:R:3:force:R:3:Z:I:1
O              20.39740000      3.35424000    -32.01640000      0.05718740      0.03777860      0.02955690       8
H              20.81750000      3.26370000    -30.20230000      0.01221810      0.00703227     -0.00973998       1
H              19.00230000      2.34758000    -32.04520000     -0.06510960     -0.03899660     -0.01289730       1
O              45.47650000     44.32510000      9.97919000      0.03581260     -0.04733110      0.03162510       8
H              46.68100000     42.79840000     10.42900000     -0.02522610      0.05079910     -0.01680400       1
H              45.58060000     44.38580000      8.17567000     -0.00656645     -0.00010021     -0.00984616       1
O              11.63150000      0.68500000     18.31910000      0.10209200     -0.00861826     -0.02265920       8
H              10.70960000     -0.85001900     18.32740000     -0.00937886     -0.01697330     -0.00325996       1
H              13.70320000      0.11912200     17.70960000     -0.08956880      0.02678920      0.02128000       1
O              -4.12591000     -9.35627000     -1.76426000     -0.03522150      0.06328830      0.07524960       8
H              -4.70666000     -7.56218000     -1.90396000      0.00828851     -0.01686340     -0.02937450       1
H              -4.29818000     -8.97080000      0.20093400      0.01174010     -0.04088320     -0.04203150       1
O               6.43638000     33.52540000     21.50630000      0.00237023      0.07190370     -0.03775760       8
H               7.25867000     34.89890000     20.37860000     -0.03045770     -0.01956120      0.02143200       1
H               7.56444000     32.24840000     21.17660000      0.04535260     -0.04804660      0.00206745       1
O              -1.53212000     14.03050000      7.48264000      0.06305750     -0.04697280      0.02030500       8
H              -0.31131500     12.37960000      7.36018000     -0.03356380      0.05474590     -0.01171520       1
H              -0.44394900     15.04780000      8.69035000     -0.01839870     -0.01027410     -0.02006390       1
O              37.86380000     22.86610000     11.64230000     -0.01356550     -0.01295300     -0.00238894       8
H              38.82400000     22.13980000     10.14430000     -0.02810480      0.00731360      0.02192470       1
H              36.41250000     21.74990000     12.27470000      0.03524270      0.00169018     -0.02104460       1
O              -0.08891200    -23.86810000     13.98740000      0.04476320      0.00555930      0.03728050       8
H              -0.62505400    -24.56870000     12.49850000     -0.02205120     -0.01900360     -0.04453220       1
H              -1.34718000    -22.89850000     14.78800000     -0.02509360      0.00931418      0.00284709       1
O              31.39850000    -34.48630000     18.22950000      0.05754160     -0.01606580     -0.05141430       8
H              32.92060000    -33.46110000     17.57480000     -0.03998200     -0.03003090      0.02254500       1
H              30.37610000    -33.55710000     19.27620000     -0.02651590      0.04001010      0.03567970       1
O               8.35078000    -25.90390000    -21.59920000      0.03845030     -0.01591210     -0.03434650       8
H               9.73531000    -25.64900000    -22.83760000     -0.00454245     -0.02943940      0.00879456       1
H               8.30176000    -24.14900000    -21.37680000     -0.02797660      0.04447690      0.02983300       1
O             -11.88590000      2.18872000      5.69416000      0.07853100      0.00517995      0.00232264       8
H             -13.34880000      2.86091000      5.02169000     -0.05098260      0.01651740     -0.01659320       1
H             -10.45910000      3.10798000      4.71395000     -0.02213720     -0.02055430      0.01135380       1
O             -11.39940000     32.98120000     49.98370000      0.04177470     -0.01962690     -0.03081020       8
H             -10.42470000     33.21570000     48.36760000     -0.01839120      0.00181659      0.02971520       1
H             -12.97390000     33.79220000     49.89560000     -0.01858080      0.01903380      0.00090031       1
O              15.30980000    -29.56470000    -20.66800000     -0.04809510     -0.08977310     -0.00287634       8
H              16.47200000    -31.18870000    -20.39730000     -0.01020310      0.05298650     -0.00366658       1
H              13.60080000    -30.61650000    -20.83750000      0.05032210      0.04954930      0.00735034       1
O              25.55090000     16.98460000     34.86040000      0.04440300      0.01749200     -0.00544218       8
H              27.35200000     17.58890000     34.32700000     -0.05477350     -0.02529530      0.02063140       1
H              25.57880000     16.82480000     36.72790000      0.00304850      0.00087713     -0.00837066       1
O              -1.09463000      3.25402000     -3.20276000     -0.03229310      0.05427060     -0.01446810       8
H               0.58304500      3.97122000     -3.35010000      0.00219377     -0.01139730      0.00554383       1
H              -1.26648000      1.53964000     -2.86022000      0.02190680     -0.03879030      0.01223240       1
O             -27.19600000     20.76480000     28.48780000     -0.04374930     -0.10001900     -0.01530030       8
H             -28.89870000     21.28180000     28.45730000     -0.02192460      0.00181230      0.00614779       1
H             -26.38110000     22.19960000     28.69620000      0.06675670      0.10103800      0.00858678       1
O             -31.62500000      9.82292000     22.03440000      0.00860642      0.07008320     -0.05379780       8
H             -32.16260000      9.30949000     20.31100000     -0.00680483     -0.01614760      0.01455710       1
H             -31.16500000     11.65570000     21.37920000     -0.00266897     -0.05054940      0.04291010       1
O             -15.75190000     59.94800000    -20.31980000      0.04323630      0.04220500      0.05881940       8
H             -15.63610000     59.88640000    -18.37110000      0.00042079     -0.00170486     -0.03852260       1
H             -16.80110000     58.62070000    -20.66600000     -0.04402400     -0.04225180     -0.01949870       1
O              64.61390000     24.18930000     39.93220000      0.07312940      0.04020800      0.12562800       8
H              63.55810000     24.13800000     38.70270000     -0.09998600      0.00045651     -0.12927400       1
H              65.21890000     22.55910000     40.00610000      0.02570690     -0.05090690      0.00308912       1
O              55.51980000    -21.12800000      4.43595000     -0.03253620      0.03818350     -0.03356740       8
H              54.86840000    -22.26110000      5.68242000     -0.01233040     -0.00138342      0.01761630       1
H              53.86000000    -20.20010000      3.79409000      0.04994610     -0.03580070      0.01107260       1
O              31.14540000     16.24250000    -13.63400000      0.00482602      0.03717010      0.01059570       8
H              31.20420000     14.50560000    -14.34980000      0.02917560      0.02679950      0.02005260       1
H              32.56980000     17.36510000    -12.74740000     -0.02809050     -0.05713670     -0.02578340       1
O              -9.15719000      7.21026000     61.13670000     -0.03028410     -0.02566940     -0.02895030       8
H              -9.94218000      5.91342000     59.94740000     -0.01602990      0.01467610      0.02679890       1
H              -7.52873000      6.82719000     60.57940000      0.04937780      0.00295226      0.00150054       1
O               5.62722000      1.80674000     -2.43161000      0.05545630     -0.08166300      0.02732420       8
H               6.47269000     -0.09239300     -2.50676000     -0.04105490      0.07616050      0.00702307       1
H               5.15215000      2.07165000     -4.10042000     -0.01384690      0.00178792     -0.04081770       1
O              43.13850000      5.97607000     23.90900000      0.04238290      0.00732448     -0.04437760       8
H              42.47190000      7.63141000     23.04880000      0.01804860     -0.03950570      0.01795400       1
H              44.68250000      5.16305000     22.83630000     -0.05322860      0.02900710      0.03401420       1
O               1.08307000     57.43190000     30.45530000      0.10651200      0.03714060     -0.01694030       8
H              -0.53415300     56.98860000     30.25170000     -0.08645230     -0.03560460     -0.01914810       1
H               1.92079000     57.55270000     28.71850000     -0.01833700     -0.00407106      0.03566090       1
O               8.58783000     35.16610000      8.87711000      0.02768000      0.01484060     -0.00476773       8
H               7.40370000     34.25960000      9.90413000     -0.00435867     -0.01483630      0.00382204       1
H              10.36450000     34.99670000      9.47038000     -0.02649320      0.00181003     -0.00104659       1
O             -15.50370000     20.09470000     18.15350000      0.13912600     -0.00081383      0.02604790       8
H             -17.14090000     19.96360000     17.84190000     -0.10589200     -0.01717910     -0.00059941       1
H             -14.65500000     18.94140000     19.43810000     -0.03132750      0.02047480     -0.01847070       1
O              28.36210000     33.27550000     49.89630000     -0.00994523     -0.02281230     -0.06241520       8
H              28.51490000     33.78230000     48.01330000      0.00197250      0.00785965      0.05185620       1
H              28.15150000     31.50100000     49.32850000     -0.00410056      0.00764989      0.03226660       1
O              13.77600000     32.61830000     17.93430000     -0.02882880      0.06272560      0.09565470       8
H              14.37820000     31.89010000     16.54440000      0.01899590     -0.05192890     -0.08356970       1
H              12.44220000     31.78400000     18.85300000      0.00524289     -0.01484530     -0.01323590       1
O              -0.17118200    -25.78730000     21.97970000     -0.10439800     -0.01739240      0.02248700       8
H              -1.97222000    -26.35380000     22.90970000      0.07272380      0.01959760     -0.04613310       1
H               1.01367000    -26.23110000     23.21390000      0.02985470     -0.00581009      0.02567030       1
O               3.98456000     15.17030000     -1.53934000     -0.00813190     -0.06191610      0.00439344       8
H               4.61589000     13.97710000     -0.22588900     -0.00302624      0.02884280     -0.01495190       1
H               2.70602000     13.93410000     -2.28882000      0.00566036      0.02898160      0.00997902       1
O               3.99876000      2.40001000     16.30580000     -0.08450990      0.05358640     -0.01339580       8
H               2.29892000      2.42002000     15.17750000      0.06478770     -0.02172420      0.02974770       1
H               3.38841000      3.95898000     17.38400000      0.03270940     -0.03823200     -0.01982460       1
O             -37.93790000     53.70820000    -26.69390000      0.01110620      0.03179480     -0.00415837       8
H             -39.12780000     52.39670000    -26.75680000     -0.01393310     -0.02735780     -0.00079277       1
H             -37.54890000     54.00530000    -24.95620000      0.00355900     -0.00218346      0.00798268       1
O               4.36182000     49.11840000    -16.06980000      0.01889040     -0.04756600      0.07723030       8
H               4.94375000     49.77940000    -14.20340000     -0.01323770     -0.01481100     -0.06699790       1
H               4.58474000     47.11050000    -15.89020000     -0.00551291      0.06353900     -0.01140960       1
O             -32.07490000     35.01830000      5.34525000      0.04088700     -0.03241630      0.01281350       8
H             -33.02660000     33.80130000      4.37387000     -0.02140750      0.00888603     -0.01149030       1
H             -30.51350000     33.92670000      5.50061000     -0.01543500      0.01952900      0.00347279       1
O              21.58330000     35.30920000     11.75310000     -0.00215748      0.00682805     -0.04802760       8
H              22.40470000     36.56180000     12.85470000     -0.00668058     -0.00896916     -0.03194720       1
H              21.55160000     35.80860000      9.71849000      0.00620461      0.00670231      0.08793870       1
O             -12.02310000    -20.60850000     10.44370000      0.00958186     -0.06729700      0.00289942       8
H             -11.80010000    -20.84850000      8.50803000     -0.01235370      0.00191145      0.03257810       1
H             -11.69400000    -22.64110000     11.07170000      0.00504572      0.06712850     -0.02342570       1
O             -45.05470000      6.00386000     19.71980000      0.04643140      0.00636089      0.03252320       8
H             -46.07700000      7.12659000     18.74040000     -0.00585924      0.01911360     -0.00486848       1
H             -43.52090000      6.93150000     20.57760000     -0.05761470     -0.01510860     -0.03564440       1
O             -19.75370000    -15.55460000     34.82330000     -0.05163130     -0.09095210     -0.05537400       8
H             -19.52760000    -17.52440000     35.23610000      0.01185690      0.06674270     -0.00555776       1
H             -21.03250000    -15.91820000     33.16070000      0.04802680      0.03300650      0.06102480       1
O              18.84790000     15.23160000     27.77170000      0.02098380     -0.02811900      0.02315300       8
H              20.37650000     15.48520000     28.87180000     -0.02355090     -0.00223230     -0.01493150       1
H              18.10670000     13.62820000     28.44920000      0.00634926      0.01989800     -0.01387850       1
O             -20.94530000     -3.64580000     42.08540000     -0.01182370      0.04450470     -0.00653611       8
H             -21.84580000     -3.00905000     43.65640000      0.01442010     -0.00918943     -0.03770840       1
H             -21.29520000     -2.40500000     40.64360000      0.00193664     -0.02649270      0.04323110       1
O              43.39540000      2.43785000     31.65040000     -0.04410770     -0.04634050     -0.04174530       8
H              43.57330000      2.99459000     33.29380000      0.00306004      0.01442860      0.04431710       1
H              42.07260000      1.00358000     31.58180000      0.03400640      0.03522590      0.00014321       1
O              -9.42914000    -32.38420000    -10.46000000      0.03505810     -0.09261220     -0.03808820       8
H              -7.65796000    -32.03900000    -10.82460000     -0.00881501      0.02189500      0.01257620       1
H              -9.26762000    -34.31060000    -11.47620000     -0.02783250      0.06782390      0.02278900       1
O              54.93070000    -20.22850000    -12.13220000      0.05913850     -0.02985250      0.02928450       8
H              57.02990000    -20.65650000    -12.38910000     -0.07154210      0.02461870      0.00043542       1
H              54.47370000    -20.65360000    -10.31880000      0.00925631      0.00518124     -0.03389860       1
O              15.53580000     -1.81598000      6.73661000     -0.02486850      0.02189760     -0.01608950       8
H              14.16660000     -0.58057900      6.24446000      0.02064650     -0.01858870      0.00927036       1
H              15.34500000     -3.13967000      5.40316000      0.00285017      0.00000477      0.01402340       1
O             -36.49630000     -6.68179000     45.94000000     -0.01936820      0.01585120      0.05662810       8
H             -36.10420000     -7.98576000     44.74270000      0.00511737     -0.01761200      0.00551025       1
H             -37.07620000     -7.24090000     47.78980000      0.01035210      0.01041030     -0.06081340       1
O               3.05663000    -12.40310000     -9.01729000      0.07349970      0.00149751      0.02202630       8
H               4.69257000    -11.86210000     -7.93405000     -0.05171970     -0.02155870     -0.03872330       1
H               3.79682000    -13.43240000    -10.45640000     -0.01921540      0.01725250      0.01872120       1
O              18.84360000     18.97140000     14.73130000      0.08939890      0.00109629     -0.05140680       8
H              19.68750000     19.69100000     12.99720000     -0.03953140     -0.01982200      0.05254670       1
H              20.49010000     18.08910000     15.30710000     -0.04763830      0.02258910     -0.00382403       1
O              10.83940000     19.00860000    -10.71740000     -0.03571510      0.03158360      0.03121010       8
H              12.19500000     17.75340000    -10.50560000     -0.00140206      0.00400992      0.00821832       1
H              10.02710000     19.72440000     -9.03464000      0.02870400     -0.03499840     -0.04024160       1
O              23.41970000     49.50300000     28.94110000     -0.01180860      0.00541983      0.00945045       8
H              22.07040000     50.16630000     30.03500000     -0.00448501     -0.00443555     -0.01564570       1
H              24.70320000     49.46510000     30.19950000      0.02445720     -0.00615331      0.00438846       1
O              -3.69097000      7.39160000      5.28299000     -0.00515591      0.00113899     -0.01092200       8
H              -4.28789000      5.95089000      6.26203000      0.00381068      0.00126902     -0.01130380       1
H              -3.53957000      6.87236000      3.49050000     -0.00644158      0.00092513      0.02005350       1
O              13.25510000    -25.46300000     23.27600000      0.00821539     -0.01021290     -0.02227030       8
H              13.04650000    -27.27220000     22.89540000     -0.00409413      0.01194030      0.00341693       1
H              13.62610000    -24.70120000     21.61500000     -0.01608670     -0.00386392      0.01800540       1
O              -5.66197000     20.13790000     47.22860000      0.01615890     -0.00499771     -0.06146830       8
H              -7.37740000     20.59980000     46.88160000      0.00278760      0.00195888      0.02099350       1
H              -5.19774000     20.07490000     48.90930000     -0.00831445      0.00019268      0.04179550       1
O              33.48400000     40.70610000      2.71549000      0.03298930      0.03172300     -0.01674910       8
H              32.28360000     42.03380000      3.10370000      0.00129298     -0.02696720     -0.00123598       1
H              33.14770000     38.94040000      2.95256000     -0.02641580     -0.00720482      0.01101660       1
O              25.09560000     16.45850000    -32.04930000      0.01824620     -0.09517820     -0.02611000       8
H              26.08020000     14.63640000    -32.11970000     -0.04235540      0.06548650     -0.00332516       1
H              26.12720000     17.51490000    -31.04510000      0.01056860      0.02263090      0.01407280       1
O             -19.53410000     44.35180000     -0.22789500     -0.00018993      0.06642600     -0.00150411       8
H             -19.90820000     42.66830000     -0.43013900      0.00196742     -0.05129290      0.00069119       1
H             -18.16350000     44.84350000      0.90515300     -0.00880086     -0.01165730     -0.00388680       1
O               5.72210000    -28.04590000     31.10730000      0.04023590      0.06992960     -0.09679670       8
H               6.19350000    -29.30560000     32.15280000      0.02574130     -0.06451280      0.05125430       1
H               7.35658000    -27.75790000     29.94310000     -0.06400180     -0.00392546      0.04568820       1
O               3.27284000     27.65980000      1.64469000      0.11791900      0.08427350     -0.12471100       8
H               3.83128000     26.98970000     -0.23829600     -0.01547110      0.01075280      0.07022590       1
H               2.18796000     26.65950000      2.32517000     -0.10335500     -0.08971080      0.05668070       1
O              -9.92121000    -12.38490000     10.31130000      0.03159000     -0.04643070     -0.04742650       8
H              -9.28746000    -13.99570000     11.06580000     -0.01730320      0.01743540      0.00827535       1
H              -9.24438000    -12.82480000      8.45771000     -0.01809720      0.03071240      0.04273200       1
O              -3.67655000      6.02135000     11.49630000     -0.01045650     -0.03387770      0.02902690       8
H              -2.63464000      7.47873000     11.36260000      0.00601780      0.01402050      0.00703318       1
H              -3.43287000      5.23492000     13.21580000     -0.00004149      0.01926570     -0.03373380       1
O              23.78020000    -12.05880000     -2.68190000      0.04624070     -0.01307400      0.00826523       8
H              23.86050000    -13.46880000     -3.84393000     -0.02082380      0.01637310      0.00138999       1
H              22.40950000    -10.85550000     -2.67856000     -0.01154960     -0.00686088     -0.01002710       1
O              23.14900000      8.32634000     41.24100000     -0.03234840     -0.03188530     -0.00428996       8
H              21.68770000      6.97385000     40.91590000      0.05290830      0.06392010     -0.00218155       1
H              23.43240000      9.77839000     40.08740000     -0.01509810     -0.03400210      0.00572992       1
O              15.49750000     27.32830000     50.47700000      0.04681470      0.03789860     -0.00934282       8
H              17.04240000     28.40480000     49.65680000     -0.04875020     -0.03570670      0.01038020       1
H              14.72660000     26.18300000     49.31680000      0.00726773     -0.00107966     -0.00830922       1
O             -11.57830000     13.97000000     18.20260000      0.03370060      0.02251390     -0.02853520       8
H             -10.16550000     14.26620000     16.96790000     -0.02691850      0.01204110      0.01030060       1
H             -11.29990000     12.23850000     18.48100000     -0.00537741     -0.03065250      0.00731235       1
