192
Lattice="23.97183 0.0 0.0 0.0 23.97183 0.0 0.0 0.0 23.97183" Properties=species:S:1:pos:R:3:force:R:3 TotEnergy=-1103.56681 cutoff=-1.0 nneightol=1.2 pbc="T T T"
O       23.78390000      19.84883000      20.25426000       0.00914717      -0.02742250      -0.01068680
H       22.89590000      20.06915000      18.62436000      -0.00252094      -0.00104635       0.01728430
H        0.96787000      18.40265000      19.88526000      -0.01295880       0.02229430       0.00769846
O       22.52907000      20.32207000       2.14581000       0.01439960       0.04993040       0.02251420
H       23.22547000      22.09927000       1.73283000      -0.00924096      -0.03589840       0.01433530
H       22.34577000      19.67967000       0.52621200      -0.00668204      -0.01682500      -0.03994790
O        9.32554000       1.72138000      13.55630000      -0.03848370      -0.08734940      -0.07909980
H        9.90051000       2.73289000      14.74830000       0.04089970       0.05641990       0.07945360
H        9.42349000      23.86118500      14.05350000      -0.00059134       0.03187990      -0.00398287
O       19.20441000      14.09821000      22.21648000       0.01248550       0.01370940       0.02693130
H       20.97828000      13.36393000      22.14902000      -0.03939990       0.03393720       0.00669289
H       18.80104000      15.60334000      23.45139000       0.03339830      -0.04959230      -0.03395640
O        6.94795000       6.87037000      17.23360000       0.03088910       0.05537020      -0.06260190
H        7.96695000       8.00347000      18.37470000      -0.01192650      -0.01795560      -0.00353415
H        7.44231000       7.71027000      15.40500000      -0.02310710      -0.04240950       0.06538910
O       16.97072000      11.90010000       9.14465000       0.01540070       0.02545740      -0.03577550
H       16.35696000      10.18190000       9.55571000       0.00586301       0.00289242      -0.02198470
H       17.76120000      12.20330000       7.40174000      -0.01627010      -0.02660260       0.04778640
O       19.73707000       0.34257000      13.34090000       0.02832440       0.01445230      -0.00801990
H       21.37107000       1.32677000      13.00730000      -0.03866040      -0.02157730       0.00458509
H       18.66557000       0.21197000      11.82080000       0.01250990      -0.00217342       0.00383273
O        0.17476100      19.33156000       9.11785000       0.03591470      -0.06248580      -0.01080960
H        0.40990500      17.54016000       8.39301000       0.01375570       0.04180490       0.03196880
H       22.59613000      19.55686000       8.35701000      -0.05297250       0.02674800      -0.01849220
O        7.93067000      14.73806000      22.55970000      -0.03370340       0.01518880       0.01987780
H        9.40377000      15.67996000      22.43010000       0.02868910       0.04983210       0.00570320
H        8.57517000      13.38966000      21.69380000       0.00350273      -0.06784300      -0.02868940
O       10.82420000      19.08086000      23.18506000       0.00028165       0.00737717      -0.03440280
H       12.42120000      19.98816000      22.69046000      -0.00944632      -0.01783550       0.00253369
H       10.87630000      19.11626000       0.97353000      -0.00299772       0.00551788       0.03704370
O       12.84183000       2.87363000       7.55169000      -0.04930130      -0.03729910       0.01975360
H       11.55023000       1.69566000       8.54611000       0.04148240       0.04325530      -0.04472960
H       12.38703000       2.89925000       5.69074000       0.01480500      -0.00925426       0.03762710
O       12.82323000       2.89007000       2.55944000       0.02361050       0.00936326       0.03986090
H       11.08763000       3.07977000       2.48334000      -0.04461780       0.00453185      -0.01551020
H       13.44183000       2.43347000       0.97894000       0.01369910      -0.01036660      -0.03670550
O       13.75240000      19.84216000      12.32233000      -0.03652610       0.05329130       0.04215000
H       13.99520000      18.25546000      11.53893000      -0.01630670      -0.02539550      -0.00998738
H       11.93450000      20.26186000      13.02113000       0.04846660      -0.02788870      -0.02288700
O        2.21627000      14.70240000      10.69287000      -0.00196021      -0.01626480      -0.01798830
H        2.30517000      12.85420000      10.28267000      -0.00294525       0.03103830       0.00440167
H        3.08277000      14.97870000      12.25527000       0.00298207      -0.01553670       0.00685314
O        0.54908600       1.02787000       1.03675000      -0.04357360       0.02860650       0.08130260
H        1.21151000       1.92905000       2.56177000      -0.01268960      -0.01996470      -0.01748310
H        1.83937000       1.17131000      23.88842600       0.05486460      -0.00716797      -0.05570770
O       19.29216000      20.08970000       6.68647000       0.00078561       0.02816900      -0.03339270
H       19.63066000      20.76290000       4.90127000       0.00377230      -0.00759827       0.05216070
H       18.58336000      21.49370000       7.76307000       0.00020685      -0.01882230      -0.02026310
O       16.14966000      10.77720000       0.67117000       0.01501270       0.00373548       0.00542523
H       15.06896000      10.17940000      23.31750000       0.00622661      -0.00209940      -0.00821229
H       17.67296000      11.60270000      23.86820000      -0.02496010      -0.00384046      -0.00215277
O        7.46963000      15.15094000       3.80703000       0.01962580       0.00758781       0.00117657
H        5.92363000      15.01904000       4.69213000      -0.01186830      -0.00000862       0.00257279
H        7.18713000      14.99584000       2.01293000      -0.00502392      -0.00435845      -0.00098001
O       20.42164000      19.72720000      16.52667000       0.05712550       0.06000720      -0.04910100
H       20.27584000      21.28690000      15.40027000       0.00923791      -0.02860880       0.01877050
H       18.76934000      19.40670000      16.87167000      -0.06721020      -0.02495570       0.02124120
O        7.08694000       3.82633000       1.61233000       0.05861080      -0.00112295      -0.10767600
H        5.80144000       3.27203000       2.58346000      -0.05884850      -0.02736200       0.04764730
H        6.88264000       3.10233000      23.71058600       0.00976620       0.02627640       0.05832980
O        6.41627000      18.57750000      10.10323000      -0.00208562      -0.07504470       0.01628490
H        7.29867000      16.74880000      10.31823000      -0.01300400       0.05424300      -0.01775380
H        4.67587000      17.87600000      10.08563000       0.01566760       0.01816540      -0.00529705
O        8.49173000       7.46628000      11.68184000       0.05869520      -0.06275310       0.06423520
H        7.95233000       7.93686000      10.03954000       0.00829135       0.00358943      -0.03497950
H        9.85903000       6.02090000      11.69204000      -0.05277200       0.05177040      -0.01096610
O        7.56765000       2.66494000      20.36575000       0.04272180      -0.02850990      -0.08510470
H        8.58946000       1.31179000      19.31251000      -0.03494850       0.03112590       0.05075790
H        7.56851000       3.85453000      18.85088000      -0.00720844      -0.00088545       0.03708200
O       20.26697000       3.90253000      22.92750000       0.02920570       0.01713830       0.05851160
H       19.72137000       4.98604000       0.51087000       0.01356180      -0.03311690      -0.04303480
H       21.99977000       3.16520000      23.49680000      -0.04840050       0.01605000      -0.01311360
O       20.40623000      13.68834000       4.91987000       0.03859650       0.02611680       0.02482110
H       19.32253000      14.87514000       4.15657000      -0.01333360       0.01339690      -0.01257430
H       21.94183000      14.82584000       5.37527000      -0.03152240      -0.03832510      -0.01266540
O        9.00595000      13.84207000       9.66874000      -0.01097580      -0.00940826      -0.02764620
H        8.36218000      12.64207000       8.35146000       0.00569297       0.01104420       0.02543900
H       10.57870000      14.45817000       8.89048000       0.00362670       0.00044563       0.01076020
O        7.63903000      20.70260000      19.38530000      -0.00263636      -0.03670110       0.02858570
H        6.48563000      19.14000000      19.18070000       0.01557710       0.03442790       0.01384910
H        8.60943000      20.25510000      21.02660000      -0.01446530       0.00752765      -0.03700340
O        7.64887000       8.76487000       2.28754000       0.02136910       0.01225310       0.01120920
H        7.58327000       6.89557000       2.10114000      -0.02345290       0.01719320      -0.01391780
H        6.42287000       9.97997000       1.61854000      -0.00607625      -0.02879230       0.00357018
O       14.38620000       8.23407000      19.34850000       0.04584400       0.10545400      -0.00134900
H       15.28990000       9.55737000      18.14320000      -0.03470420      -0.04555030       0.04231480
H       13.94640000       6.83897000      18.40540000      -0.01437940      -0.04362610      -0.02790550
O        2.98714000      23.52136000      21.02170000       0.04119380       0.02444110       0.00142593
H        1.82090000      22.12596000      21.11390000       0.00087064      -0.01894530      -0.01079930
H        4.80856000      23.03396000      20.78220000      -0.04032980       0.00067679      -0.00098070
O        1.05065000      16.08290000       4.43932000       0.04012290      -0.05387210      -0.01316750
H        1.96302000      15.19050000       3.01275000      -0.02225260       0.01602560       0.03233100
H        0.22329000      17.41330000       3.65361000      -0.01578470       0.04364370      -0.02055390
O        0.89136400       2.26144000      13.23000000      -0.01755500       0.00687098      -0.05282510
H        1.22927000       0.58865500      12.58270000       0.00890261      -0.00355786       0.02297350
H        1.29967000       2.53023000      14.93180000       0.00764859      -0.00601140       0.03525860
O       13.27326000       3.94604000      17.18756000      -0.10739100      -0.03439470       0.06612820
H       14.49116000       4.43134000      16.16346000       0.09478370       0.01835420      -0.06764240
H       13.85146000       2.95074000      18.61676000       0.01078890       0.00658186      -0.00603922
O        4.03611000       2.05424000       5.57123000       0.04734140      -0.03441500       0.03329600
H        3.97463000       3.03794000       7.18553000       0.00043360      -0.01168490      -0.02490590
H        5.48014000       0.65564000       5.97273000      -0.05067650       0.05390830      -0.00781006
O       13.61756000      14.07617000       3.88530000      -0.04181900       0.02714790      -0.05240590
H       14.33196000      13.01827000       2.54953000       0.00378211      -0.01218840       0.00858106
H       12.06116000      14.77217000       2.88670000       0.04554980      -0.01992870       0.04129940
O       19.37070000      11.39147000      13.39840000      -0.03414750      -0.01275420      -0.02177530
H       20.52610000      12.61137000      13.98770000       0.01275610       0.02243080      -0.00633701
H       18.65910000      11.97237000      11.69450000       0.01841220      -0.00949092       0.02911210
O        7.28943000       9.30813000       7.61850000       0.22015900      -0.03835660      -0.06195970
H        7.23923000       8.90983000       5.79761000       0.02414510      -0.00037825      -0.00020149
H        5.77763000       9.59053000       7.75056000      -0.25367900       0.05148190       0.03873600
O        1.33026000       4.04157000      18.39410000       0.09525350      -0.04990020       0.04962800
H        1.21916000       2.34551000      19.56500000       0.01068200       0.05757200      -0.04508200
H        3.48386000       4.32024000      18.55290000      -0.10003300      -0.00879521      -0.00838341
O        1.97653000      10.03073000       8.04077000      -0.02251700      -0.02374550      -0.03709290
H        2.09013000       8.43613000       9.08677000      -0.00935259       0.01814030      -0.02689880
H        0.97403000       9.78253000       6.31077000       0.03211950       0.00276153       0.06533640
O       13.46130000      15.78750000       9.17157000       0.07137840       0.05949920      -0.09982700
H       15.14990000      14.94560000       8.91507000      -0.03199310      -0.01473110       0.02333940
H       13.95930000      16.99750000       7.33437000      -0.04184900      -0.04528390       0.07786490
O        1.73543000      20.97539000      13.67627000      -0.01725330       0.00190552      -0.01897260
H        3.32223000      20.21690000      14.20517000      -0.01853500       0.00110962      -0.02132760
H        0.92003000      20.44723000      11.96477000       0.03584250      -0.00761449       0.03707470
O       15.67977000       7.09697000       9.79347000      -0.02410280      -0.04881120       0.02685890
H       14.27807000       6.13518000       9.02817000       0.01406950       0.01497870      -0.00361567
H       15.97157000       5.93753000      11.28287000       0.01034160       0.03427160      -0.01843980
O       15.14111000      13.08346000      16.05741000       0.00001283      -0.00077237       0.01919910
H       16.63476000      12.33796000      15.28558000      -0.00175795      -0.00515438      -0.01380280
H       13.53013000      12.36846000      15.53953000       0.00606110       0.00471129      -0.00954819
O        3.53554000       5.45823000      10.38483000      -0.01283130      -0.01827080       0.00670275
H        5.13814000       5.81203000      11.16553000       0.00066428      -0.00171763       0.00398331
H        2.61694000       4.19073000      11.50283000       0.00993124       0.02208200      -0.01240380
O       16.29840000      23.15109000       9.64092000       0.02502690       0.02987430      -0.02137680
H       15.41880000       0.59795500       8.78115000      -0.00256346      -0.02284390       0.01611600
H       15.37610000      22.01889000      10.74840000      -0.02286020      -0.00076787       0.00157788
O       15.24286000      20.28753000      22.04187000       0.05020640      -0.03287060       0.02634100
H       15.55776000      19.07746000      20.67517000      -0.01093240       0.00991781      -0.01864050
H       16.28716000      19.30129000      23.37847000      -0.03060750       0.03312230      -0.01734060
O        5.03508000      13.42833000      14.77660000      -0.00725339       0.00352585       0.01369420
H        4.84717000      12.34523000      16.24506000      -0.01680930       0.00587781       0.00232864
H        6.76012000      13.12883000      14.43662000       0.02565270       0.00054144      -0.00922721
O       22.41850000      15.33210000      14.68760000      -0.00637263       0.02797650       0.01410490
H       21.87420000      17.06380000      15.10600000      -0.01123050      -0.01455730       0.01503420
H       23.39690000      15.81700000      13.28630000       0.01839370      -0.01425930      -0.02668760
O        9.00316000      20.49730000      14.42547000       0.00861011       0.00871301      -0.00477273
H        8.35429000      20.45820000      16.15029000       0.00362658      -0.00236665       0.00333643
H        7.86361000      19.78380000      13.19853000      -0.00720208      -0.00153034      -0.00170727
O       22.71890000       9.92694000       2.88347000       0.01005470      -0.04125000      -0.00177633
H       21.61570000      11.31404000       3.24177000      -0.01228720       0.00781729       0.01207720
H       21.83200000       8.33964000       3.32877000       0.00776796       0.02729600      -0.00621833
O       18.10854000       6.84723000       3.90513000      -0.04636630       0.01313980      -0.03437570
H       17.24778000       8.15287000       2.70484000       0.02165460      -0.02936930       0.03153510
H       16.66659000       5.71653000       4.33816000       0.02657190       0.01795860      -0.00451052
O       15.45010000      17.94006000      17.44400000      -0.01414290       0.02770920      -0.02851050
H       14.64820000      19.14276000      16.10100000       0.02323260      -0.05226370       0.03272210
H       15.45080000      16.09466000      16.93600000      -0.00884159       0.02391330      -0.00514859
O        4.15138000      17.00210000      19.47297000       0.02159440      -0.03761920      -0.05848100
H        4.82399000      15.77390000      20.65927000       0.00077001       0.00528657       0.00178486
H        4.62130000      16.09810000      17.76377000      -0.02262480       0.02274510       0.04741680
O       17.28407000      17.44907000       2.10496000      -0.00839614      -0.01007080       0.01481560
H       17.60957000      18.71997000       3.41208000      -0.00606784      -0.01602760      -0.00801244
H       16.05157000      16.18627000       2.84375000       0.00375162       0.02360200      -0.00656029
O       22.71180000      11.10670000      18.18006000      -0.03582620      -0.03992770       0.02969470
H       21.39870000       9.65077000      18.39026000       0.03463350       0.02896560      -0.00718519
H       21.98650000      12.15630000      16.96256000      -0.00383926       0.02263350      -0.01697260
O       11.35173000      19.18847000       4.74626000      -0.00567424       0.01638980       0.02636800
H        9.87883000      18.03897000       4.91626000       0.01333200       0.01945510       0.00806115
H       11.35983000      20.57317000       6.07187000      -0.01236320      -0.03694540      -0.03195000
O        7.99548000      23.50576000       8.38217000      -0.04545340      -0.04211210       0.03068390
H        6.92805000      21.74696000       8.72467000       0.04581070       0.06277620      -0.00286913
H        7.76292000       0.64023000       9.91387000       0.00046744      -0.02698220      -0.02549330
O        3.17673000      11.67167000       0.50907100       0.04721470       0.02739640       0.03781700
H        1.58735000      11.24377000       1.14034000      -0.03202520      -0.02161410      -0.00351812
H        3.50940000      11.54127000      22.75111000      -0.01370150      -0.00767218      -0.03484510
O       10.25313000      12.05293000      14.32240000      -0.01878150      -0.00554833      -0.06590020
H       10.18873000      10.38903000      13.49430000       0.00319986      -0.00247491       0.02095680
H        9.76793000      12.79563000      12.53230000       0.01800040       0.00413799       0.03859760
O       17.65338000       4.87895000      14.55560000      -0.04441550       0.00833178      -0.03034160
H       18.58753000       5.69875000      15.87790000       0.01602910      -0.01383110       0.00480265
H       17.90137000       3.12736000      14.09030000       0.02189680       0.00518891       0.02105930
O        3.37287000      11.13753000      19.09123000       0.02880620       0.09137640       0.05704680
H        1.63317000      11.33023000      18.81206000      -0.04300520      -0.00743422      -0.01361030
H        4.00177000       9.73703000      18.43750000       0.02810070      -0.09311360      -0.03616360
O       20.49990000       6.72359000      18.20277000      -0.04489130       0.00429206       0.04921950
H       20.34440000       6.05121000      19.96147000      -0.01322030       0.00402992      -0.01637570
H       22.15130000       6.24556000      17.98647000       0.05992980      -0.01767110      -0.02240430
O       15.27630000       1.73047000      21.62047000      -0.11787700      -0.07834830      -0.03030680
H       16.91210000       1.79757000      21.84197000       0.12602000       0.02611220       0.01988700
H       15.22500000      23.75470000      21.26207000      -0.00934317       0.04849040       0.01507230
O        9.44643000       9.45590000      20.90330000      -0.01042870       0.00210824       0.02486640
H       11.24213000       9.13957000      20.72170000       0.00381660      -0.00294203      -0.00343533
H        8.93723000       8.94290000      22.63910000       0.01048010       0.00540524      -0.02133250
