192
Lattice="24.76495 0.0 0.0 0.0 24.76495 0.0 0.0 0.0 24.76495" Properties=species:S:1:pos:R:3:force:R:3 TotEnergy=-1101.64801 cutoff=-1.0 nneightol=1.2 pbc="T T T"
O       14.07120000      13.92120000       7.90921000       0.22586200       0.10438900      -0.05912210
H       13.90710000      13.61490000       6.23161000      -0.00469631      -0.02245190      -0.06198060
H       12.80880000      13.47810000       8.65469000      -0.21132600      -0.08031820       0.12075600
O        2.02259000       1.25606000      20.52990000       0.10767200       0.07631080       0.02465420
H        0.48556200       1.79312000      20.27980000      -0.11369000       0.04147170      -0.01265850
H        2.03929000      24.37040000      20.49140000       0.00755500      -0.11918100      -0.00712786
O       13.59220000      15.19690000      19.56160000      -0.02907170       0.02662910       0.00023970
H       12.26630000      16.58300000      19.61870000       0.04174700      -0.02953670      -0.00935594
H       14.67870000      15.40260000      18.07090000      -0.01819560       0.00583394       0.00844404
O       13.49080000       7.00922000      18.87960000      -0.05974370       0.00021723      -0.01124580
H       14.14980000       6.62097000      20.50350000      -0.00855552       0.00953997       0.01684000
H       11.52700000       7.16958000      19.14190000       0.06768200      -0.00816321      -0.00714703
O       15.44880000      13.48880000       2.58778000       0.10046400      -0.18228100       0.07148620
H       14.88090000      12.69290000       1.15283000      -0.01091760      -0.04954010      -0.03620390
H       14.81170000      14.85750000       2.26369000      -0.09262220       0.23238900      -0.03385850
O        2.43648000       1.06443000       1.45693000       0.07268490       0.01464220      -0.03821540
H        0.79690800       0.72314100       1.87857000      -0.05879390      -0.01229760      -0.00237601
H        2.74791000       1.28272000      24.34385800      -0.01721860      -0.00459833       0.04285170
O       10.59030000       1.47275000      15.44910000      -0.01400860      -0.02101540      -0.07432210
H       14.53240000      23.23033000      14.70610000      -0.11712000       0.02985400       0.32356900
H        9.67528000       1.30794000      13.63450000       0.03375080       0.00737169       0.07369600
O       22.48130000      21.26910000      18.15820000      -0.00073036      -0.03581450       0.06307090
H       21.82620000      19.71560000      17.42060000      -0.01412280      -0.03514720      -0.00235122
H       24.27890000      20.90050000      18.56380000       0.02899610      -0.00228962       0.00634846
O       18.62230000      14.10680000      22.88320000       0.00971751      -0.03711370      -0.00982747
H       18.87450000      12.69230000      24.04870000      -0.00519091       0.01796300       0.00116098
H       18.34100000      13.12050000      21.34910000      -0.00963964       0.01476640       0.00704283
O        5.67540000      14.06450000      15.51070000       0.00002320      -0.03832510      -0.07100770
H        5.22999000      14.71450000      13.55800000       0.01722930      -0.02579160       0.07557970
H        6.28752000      12.14910000      15.44590000      -0.01516370       0.06469420      -0.00643483
O        8.90070000      19.55570000       4.88896000       0.01853900      -0.03558870      -0.13119600
H       10.41580000      18.62210000       5.13971000       0.02668470      -0.01353160      -0.03185750
H        8.79219000      19.69280000       6.48938000      -0.04622760       0.03623940       0.17095300
O        0.96965800      10.94660000      11.75400000       0.05741190      -0.02984600       0.10105900
H        2.70125000       9.86652000      12.41830000      -0.05021660       0.02962250      -0.02882640
H        0.83864800      10.75890000      10.06630000       0.00223291      -0.00919045      -0.07073070
O        3.98800000       4.84574000      17.33250000      -0.08358510       0.07408240      -0.06334870
H        3.33865000       3.41541000      17.92880000      -0.00704557      -0.07560590       0.03957420
H        5.59173000       5.26171000      17.52320000       0.08800090       0.00809052       0.02264220
O       19.05050000       4.98990000      20.02320000      -0.09396400      -0.01370110       0.05374190
H       19.79450000       5.08924000      18.49910000       0.05045860       0.01374660      -0.06920690
H       17.17490000       4.97242000      19.61070000       0.04426030       0.00161251       0.01484040
O        7.14328000      15.11310000       2.53593000      -0.03029680      -0.06555660       0.06390990
H        6.65721000      13.58730000       3.95384000       0.02649420       0.06321350      -0.06651060
H        6.91641000      16.60950000       3.56187000       0.00649002       0.00153879      -0.00377244
O       16.04700000      24.00890000       7.43809000      -0.06197650       0.04999430      -0.03699460
H       15.57880000      24.62270000       5.55038000       0.01659460      -0.01772230       0.07389930
H       14.67570000       0.22385000       8.48590000       0.04356090      -0.02773480      -0.03733240
O       23.96810000      13.64720000      21.71070000      -0.05470840       0.00209227       0.00678372
H       24.20840000      13.87950000      19.93930000       0.01906930      -0.00634205      -0.01628430
H       22.05040000      13.66510000      21.79970000       0.04227570       0.00508033       0.00934609
O       14.55830000       8.19852000      24.30978400       0.03834170      -0.02899000      -0.03378270
H       13.63190000       6.71513000       0.09010800      -0.00639265       0.00455956       0.01565940
H       16.14550000       7.31415000      23.69511000      -0.03109970       0.02785560       0.02357950
O       19.63570000      19.28900000       1.48135000      -0.02775180       0.02449590      -0.00733881
H       18.32090000      20.51480000       0.76286900       0.03009680      -0.04639150       0.01666070
H       19.03660000      17.54870000       1.31226000       0.00013560       0.02279510      -0.00433394
O        9.27293000       2.21582000      20.72160000       0.02905090       0.04393000      -0.04735680
H       10.27140000       3.55426000      21.61610000      -0.03278730      -0.02048160      -0.01465220
H        9.13144000       2.94205000      18.83740000       0.00916601      -0.03302320       0.06172200
O       10.33030000      21.34120000      20.76180000       0.06794580       0.03893310      -0.10010200
H        9.79601000      22.83990000      19.69090000       0.00024675      -0.02909110       0.04569840
H        9.35005000      20.82980000      22.03570000      -0.06290330      -0.00341374       0.05832130
O       14.59460000      21.82200000      12.53500000      -0.04481780      -0.07975950      -0.10212200
H       14.87300000      23.14160000      13.64760000       0.12721600       0.05856740      -0.23683200
H       15.34950000      20.15410000      12.66180000       0.01283760       0.00564237       0.02524640
O       17.44720000      19.62840000      21.38630000       0.03278780       0.00355380      -0.10893700
H       18.34160000      18.42050000      19.91390000      -0.04514440       0.04767320       0.07118510
H       17.11770000      21.23630000      20.30290000       0.00497739      -0.04965570       0.03764870
O       17.08300000       4.92720000       6.40849000       0.01058690       0.02816410       0.03545080
H       17.78730000       6.31250000       7.58574000      -0.01591470      -0.04003570      -0.05807480
H       17.52970000       5.00465000       4.59867000       0.01364910       0.00757754       0.01953170
O       21.03980000      21.78030000       8.07369000       0.01676830       0.00220381      -0.04567280
H       21.98300000      21.44940000       6.33130000      -0.04535670       0.03841730       0.06119960
H       19.79240000      23.23840000       8.15942000       0.02490840      -0.03638370      -0.02822720
O       16.20360000      15.55680000      14.98430000      -0.06954770       0.02189560       0.02431350
H       17.80000000      16.00800000      14.70940000       0.09651240       0.06791080      -0.00155373
H       16.66350000      14.01630000      14.35930000      -0.02825030      -0.07828610      -0.02228430
O        5.63002000       8.10919000      12.55840000       0.01229610      -0.00388892      -0.00463598
H        7.21735000       7.83627000      13.57870000      -0.04106470       0.00061795      -0.01717260
H        2.19228000       4.69584000      10.83390000       0.01735520      -0.00824315       0.00926008
O       13.54500000      21.38290000       1.27860000       0.02195940      -0.07308860      -0.05984900
H       14.09120000      20.51660000       2.91021000      -0.00938416       0.00445683      -0.04283080
H       13.82210000      19.78760000      24.12750200      -0.00885836       0.06859020       0.09107690
O        9.07216000      21.22350000      10.21340000       0.17277000      -0.10264400      -0.07959270
H       10.30880000      20.50060000      11.49130000      -0.02610000       0.01940310      -0.03678070
H        7.98211000      21.83470000      11.18430000      -0.14752400       0.08661520       0.11535700
O        2.27957000      14.06540000       7.51878000      -0.18987000      -0.24757800       0.23637800
H        2.95383000      14.97950000       6.61293000       0.17913600       0.24705900      -0.24986200
H        3.05626000      14.26400000       9.11594000       0.00717927       0.00110547       0.01365110
O        6.07902000       9.96593000       5.23244000      -0.00914508      -0.05684130       0.03119050
H        4.78239000      10.48440000       4.12520000      -0.01790950      -0.00333215      -0.01254580
H        5.47253000       8.18166000       5.83146000       0.02420130       0.06152420      -0.02377510
O       23.03720000       6.78827000      16.28180000       0.03483550       0.00517628      -0.03562210
H        0.07195000       7.48269000      16.53630000      -0.04581070      -0.02553850      -0.00835094
H       23.00200000       6.10475000      14.49150000       0.00923160       0.01396830       0.04223040
O        8.23341000      12.60920000      21.02470000      -0.21565400      -0.19650900       0.08785360
H        6.81712000      13.36370000      22.17130000       0.04308900      -0.03114330      -0.04057400
H        9.10804000      13.82210000      20.78130000       0.17512400       0.22424900      -0.05046600
O       12.87450000       4.35067000       2.84681000       0.04256790       0.01536470       0.01267720
H       11.15650000       4.28520000       3.44639000       0.01441030       0.00456604       0.01221550
H       14.20830000       5.01977000       4.12457000      -0.06231750      -0.01931860      -0.02797390
O        0.92904900      11.43670000       1.56442000      -0.00156101      -0.03954240       0.12772000
H       24.15280300      10.63410000       2.41869000       0.04232490       0.01753360       0.00753415
H        0.10003900      11.65450000       0.16784700      -0.04884560       0.03784940      -0.13412500
O        0.48788400       5.01900000       5.86578000      -0.00533456      -0.05282430      -0.03989520
H        1.26591000       3.34739000       5.42030000      -0.01875970       0.03555480       0.00067919
H        1.49665000       5.57748000       7.16522000       0.02803060       0.01528870       0.03843460
O       19.01860000       5.80108000       1.76943000       0.03463910       0.00849753      -0.01579210
H       19.90590000       6.89004000       3.07479000       0.00206641      -0.02208070      -0.04312130
H       20.15580000       5.32923000       0.26852900      -0.02452020       0.01617310       0.05297570
O       16.12320000      24.56608900      17.08270000       0.08118210       0.05129590       0.01005380
H       17.60670000       1.09565000      17.44020000      -0.03617400      -0.03617130      -0.04218420
H       15.95290000      24.57658100      18.87490000      -0.04326760      -0.01895250       0.03586940
O        0.89378900      13.67860000      16.43990000      -0.02556320      -0.02902870      -0.04719230
H       24.68240700      12.71860000      14.92540000       0.05535130       0.03300370       0.05333840
H        2.90662000      13.62220000      16.16050000      -0.04433970       0.00438282       0.00014877
O        3.87583000      16.92080000      22.66650000       0.21145100       0.06461200       0.01121250
H        2.65271000      16.07920000      23.19840000      -0.17610500      -0.10565700       0.05217090
H        5.13026000      16.20000000      24.18360000      -0.03545880       0.03966460      -0.05608670
O       11.25740000       9.58619000       7.28329000       0.04564270       0.00154688      -0.04502840
H       11.70800000       8.07834000       8.13081000      -0.00319914      -0.02216350       0.02081060
H        9.96410000      10.42120000       8.04691000      -0.04737980       0.01365910       0.02638630
O       14.84730000       0.66282700      22.20140000      -0.08266950      -0.01206700       0.00296316
H       14.24790000      24.30191700      23.70220000       0.02036130       0.02704660      -0.03748170
H       12.99450000       1.11747000      21.41560000       0.06189700      -0.01826630       0.02615200
O        2.88992000      20.82820000      19.05170000      -0.05434810       0.07951920      -0.06752130
H        4.36625000      20.93530000      18.02110000       0.01087080      -0.00013179      -0.01382800
H        3.15549000      19.68210000      20.22080000       0.02624630      -0.08263700       0.08439810
O       12.69410000       5.03958000       9.61978000      -0.06257760       0.00557494       0.11700000
H       13.87970000       5.54915000      12.34670000      -0.04482520      -0.02444440      -0.04922520
H       14.03160000       5.16738000       8.63600000       0.08180700       0.00130787      -0.06657140
O        7.13772000       7.10511000      21.84260000       0.05406630       0.06646220      -0.02035040
H        7.89892000       8.93828000      21.92060000      -0.02849480      -0.06019370      -0.00267140
H        5.91032000       7.10090000      23.14930000      -0.01482280      -0.00102823       0.01380300
O        0.21625000      22.54340000      12.25750000      -0.05816470      -0.05502610      -0.03420610
H       22.63880000      22.07550000      16.66930000       0.01619090       0.06730280      -0.09159810
H       23.96400000      21.34370000      10.87800000       0.04488540       0.05474340       0.05853290
O       20.30890000       9.23328000      10.15920000       0.07074540       0.05015420      -0.03045350
H       21.45560000      10.09140000      11.37200000      -0.01951150      -0.01982390      -0.01342080
H       19.04390000       8.36185000      10.86540000      -0.04953900      -0.03001920       0.04588360
O       10.58440000      24.38710000       5.24670000       0.03599810       0.02172630       0.13810100
H       10.07410000      23.71010000       3.82287000      -0.03568710      -0.04590670      -0.09807150
H       10.42590000      23.00000000       6.55682000       0.00167364       0.03964980      -0.03389840
O       14.45620000      19.01930000       5.96468000      -0.04214080      -0.05352510      -0.04715250
H       14.72560000      20.62930000       6.45683000       0.02502730       0.06740440       0.03663580
H       15.40450000      17.78070000       6.79293000       0.01575640      -0.01205690       0.01645790
O       21.56990000       0.86554000      21.95930000      -0.02408560       0.01987730      -0.00007159
H       19.91870000       1.65919000      21.40840000       0.03615970      -0.02319040       0.00568409
H       21.93600000      23.98654500      21.30170000      -0.01701120       0.00271465      -0.00095678
O        4.70187000      24.75725000      12.31250000       0.06545750       0.03186510      -0.02718680
H        4.31287000       1.87154000       8.02166000       0.05140300       0.04456240       0.03370830
H        3.02030000      24.35584500      12.36060000      -0.07041360      -0.02141020      -0.00290169
O        6.40596000       3.94397000       7.93445000      -0.01538100      -0.03081820       0.01077220
H        8.09859000       3.06602000       7.95998000      -0.02470680       0.01433050       0.00261251
H        6.25206000       5.14820000       9.44672000       0.00079508      -0.02414230      -0.01197660
O        7.52922000      19.46970000      16.43950000      -0.06681410       0.00177136      -0.04533100
H        8.93877000      20.31150000      16.98010000       0.04080750      -0.00074573       0.03096100
H        7.01218000      17.78800000      16.81920000       0.02186000      -0.00795240       0.01083470
O       21.22030000      17.07660000      15.12330000       0.05105390       0.00707016       0.02387440
H       22.36990000      15.90560000      16.15090000      -0.01563810       0.02142630      -0.03064270
H       22.41110000      17.92970000      13.90570000      -0.01989650      -0.02146190       0.00868900
O        4.94788000      17.20390000      11.15470000       0.00637784      -0.04921000      -0.00088267
H        6.77155000      17.19950000      11.06920000      -0.01494230       0.02668590      -0.00215753
H        4.03249000      18.74240000      11.07830000       0.00851364       0.02027430       0.00401482
O       22.21770000       9.14877000       5.16390000      -0.19283800       0.05958050      -0.06136520
H       20.67270000       8.99883000       6.39081000       0.05631400       0.01518430      -0.03531540
H       23.43410000       8.58948000       6.03651000       0.13200200      -0.06677630       0.09087450
O        3.50518000       7.41054000       0.61001100       0.23607800       0.21009000       0.00952756
H        2.45118000       8.88954000       0.64035800       0.01457340       0.02609360       0.00452336
H        2.37754000       6.44955000       0.56410100      -0.24357600      -0.24967700      -0.00898508
O       21.98410000      24.50770000       2.58711000      -0.02933280      -0.04693410      -0.04713330
H       21.65100000      22.59670000       2.59767000       0.00931709       0.04798970       0.00026009
H       21.29550000       0.13395000       0.80513200       0.02153600      -0.00330636       0.04440050
O       22.46930000      16.91790000       9.23049000      -0.00064587       0.02857080      -0.05025800
H       21.72920000      18.47070000       7.69536000       0.04148380      -0.08179450       0.07361210
H       23.92980000      15.64400000       8.84410000      -0.04399500       0.04826470      -0.01300980
O       14.80460000      11.43330000      12.43510000      -0.04215290      -0.05894110       0.09162060
H       14.78850000       9.62886000      13.25820000       0.01822120       0.06466100      -0.05090330
H       15.68000000      12.02860000      11.04680000       0.02414870      -0.01339920      -0.04350040
O        6.82373000      22.28370000       1.12267000      -0.11055400       0.12373000      -0.07223750
H        7.61511000      21.08950000       1.84128000       0.08113090      -0.12413300       0.07837810
H        5.11512000      22.35530000       1.88891000       0.02898080       0.00473481      -0.01525980
O       21.98710000       2.53819000      12.20270000      -0.03470230      -0.03088650      -0.03455150
H       21.13250000       1.58189000      10.75660000       0.02419150       0.03253030       0.03385550
H       22.94130000       1.11234000      12.86090000       0.01341570      -0.00335501      -0.00179857
O        9.77659000       9.89503000      15.22890000      -0.11267200      -0.11528100      -0.33332900
H       10.98950000      10.45370000      13.83890000      -0.03730560      -0.01442800       0.02852250
H       10.42580000      10.44700000      16.42620000       0.15430200       0.13624400       0.30752800
O       15.37850000       5.95740000      13.74400000      -0.05164940       0.04129880      -0.00900254
H       15.90940000       5.56622000      15.33960000      -0.01612660      -0.01857930       0.07146040
H       16.75180000       5.66847000      12.82680000       0.08167800      -0.01836990      -0.06318480
