192
Lattice="24.39507 0.0 0.0 0.0 24.39507 0.0 0.0 0.0 24.39507" Properties=species:S:1:pos:R:3:force:R:3 TotEnergy=-1103.45801 cutoff=-1.0 nneightol=1.2 pbc="T T T"
O       23.12020000      21.42988000      17.65294000       0.00109819      -0.01140140      -0.00439236
H       21.45430000      21.81143000      16.73444000       0.04035840      -0.03867530       0.02020450
H       23.90530000      19.64268000      17.77364000      -0.04606690       0.03927840      -0.03118680
O        0.11136000      23.32743000      21.83298000      -0.04030260      -0.01085800      -0.01246490
H        1.79386000      23.18563000      22.40170000       0.03099950      -0.00289234      -0.00391284
H       24.06083000      22.34343000      20.20412000       0.01080400       0.02632400       0.02108470
O       13.09140000       2.55131000      16.34570000       0.02769890      -0.03093740       0.05977770
H       14.09600000       2.96606000      17.95280000      -0.02210830       0.01200480      -0.03675050
H       12.48450000       0.86106900      16.97290000      -0.00041157       0.01982030      -0.01890990
O       17.57095000      15.16099000      22.47360000       0.05048010      -0.02684430      -0.00921240
H       19.00115000      13.96127000      21.85463000      -0.02715040       0.04543860       0.01735130
H       18.27001000      16.46530000      23.65369700      -0.00773249      -0.01468300      -0.01276630
O        5.92954000       7.46923000      18.89400000       0.02358250      -0.01837440      -0.04401030
H        6.50110000       8.37463000      20.34470000       0.01104150       0.01063910       0.02157790
H        7.47372000       7.37133000      17.76610000      -0.02988480       0.00611888       0.01796720
O       19.60250000       9.85308000       5.70580000       0.01728650       0.02127730       0.11906900
H       18.55052000       9.41593000       7.32503000       0.02703430       0.00460436      -0.05502930
H       18.77429000       9.50719000       4.24884000      -0.04398890      -0.03306460      -0.05307220
O       19.57543000       4.14473000      13.20630000      -0.05935850      -0.04380350       0.00620286
H       21.21293000       3.61493000      12.85270000       0.03529740      -0.00511585      -0.00731436
H       18.48013000       2.43113000      13.03210000       0.02316180       0.04602940       0.00029678
O        0.67550500      17.22884000       7.25807000       0.01838730       0.08751820      -0.00169243
H        2.32405000      18.03854000       8.16564000      -0.03363790      -0.03633770      -0.01666610
H       24.34086600      18.94964000       6.59848000       0.00408515      -0.05483280       0.01868290
O        6.88883000      13.93874000      17.69900000       0.12096300       0.00363886       0.09818670
H        5.92123000      14.14294000      16.41820000      -0.10994300       0.01122120      -0.12216100
H        6.15573000      13.14304000      19.09160000      -0.00944855      -0.01440460       0.01852450
O        9.64037000      20.42444000      23.73424000       0.05755010      -0.05980160       0.02304560
H       11.57300000      20.31734000      23.46684000      -0.04039180       0.02186980      -0.00477785
H        9.63118000      18.90174000       0.57407000      -0.02098380       0.04706100      -0.02745910
O       13.09677000       0.24545100       8.53698000      -0.04317580      -0.14865400       0.18838100
H       13.38747000       1.22346000       7.34098000       0.01389890       0.13727000      -0.15742100
H       11.46147000       0.26161100       9.51333000       0.03081620       0.01103830      -0.02931570
O       12.27737000       3.66683000       4.19096000      -0.01802210      -0.01258960      -0.05767040
H       10.44517000       3.91943000       3.80646000       0.02635420      -0.00338706       0.01280390
H       12.89487000       2.94073000       2.47096000      -0.00523150       0.02188850       0.04733450
O       13.08140000      14.99934000       8.53447000       0.01307330      -0.02568950      -0.01255490
H       14.53900000      14.35824000       7.46147000      -0.02597350       0.01762420       0.00510978
H       11.61750000      13.92504000       8.13397000       0.01262860       0.00289291       0.00294331
O        3.47613000      14.43640000      13.71823000       0.05692940      -0.01346150      -0.02700590
H        1.94803000      14.92090000      14.52523000      -0.02555970      -0.00698271       0.00354462
H        3.69273000      12.92950000      12.58453000      -0.02869170       0.02322300       0.01901490
O       24.27928300       1.38829000       4.25222000       0.07339290      -0.04799040      -0.02636540
H        0.38256200      24.00029700       3.43762000      -0.02449480       0.05983530       0.01607150
H        1.64435000       2.19925000       4.32352000      -0.05028840      -0.01537480       0.00074462
O       17.58064000      19.69190000       6.60333000      -0.06827150      -0.02742030       0.02488310
H       15.68334000      20.08960000       7.20253000       0.07429030      -0.01772820      -0.02387410
H       17.70584000      17.74940000       6.61283000      -0.00808174       0.04937130      -0.00239172
O       14.88754000      11.41940000      24.27510000      -0.01404950      -0.04108270       0.10243400
H       14.05584000      11.21570000      22.82540000      -0.06508360      -0.02537650      -0.08316840
H       16.05024000      12.50140000      23.68870000       0.07097200       0.07049360      -0.01648480
O        3.09787000      16.97226000       2.29437000       0.13032000      -0.00229071      -0.30862000
H        2.45447000      16.87286000       3.63887000      -0.14366100      -0.02934750       0.29305800
H        2.91497000      15.25456000       1.44827000       0.00643169       0.02857540       0.02414230
O       18.48356000      20.54860000      14.81303000      -0.03167540       0.01974760       0.00056803
H       17.25346000      21.81310000      14.08663000       0.02387670      -0.01529180       0.00462984
H       17.41046000      19.47740000      15.85653000       0.00854893      -0.00083098      -0.00212148
O        6.38326000       3.85327000       3.27266000      -0.02300020      -0.02032300       0.05608310
H        5.64886000       3.12317000       5.02007000       0.02649550       0.02661240      -0.04801350
H        6.18756000       2.46827000       2.11699000      -0.00062746      -0.00355913      -0.00536921
O        4.61953000      18.41140000       9.90707000       0.04655040      -0.00987232      -0.01054100
H        6.52983000      18.48780000       9.30067000      -0.03917030      -0.00229908       0.01593350
H        4.51933000      16.76380000      10.77587000      -0.00410591       0.01584690       0.00394942
O        9.65907000       6.80359000      14.93116000       0.01586680       0.02054440      -0.02484630
H       10.84597000       7.79687000      13.75836000      -0.03601790       0.00001199       0.02539510
H       10.83307000       5.60104000      15.53306000       0.00569996      -0.02498180       0.01284750
O        5.15366000      23.62711800      23.56858600       0.05243610       0.03696110      -0.02000950
H        5.55034000       1.10057000      22.52318000      -0.01333240      -0.08928230       0.03023890
H        6.70716000      22.35209000      23.68611000      -0.04098480       0.05232900      -0.00938475
O       20.29593000       3.74870000       1.28983000      -0.05838090       0.03747070      -0.06044840
H       19.13403000       5.08397000       1.92293000       0.02312740      -0.01368250       0.00298965
H       21.40823000       2.96828000       2.34093000       0.03667660      -0.01944240       0.05043900
O        0.03780700      12.38276000       5.85163000       0.01654690       0.07652770       0.03147910
H       22.91842000      11.64836000       6.34983000      -0.03832290      -0.02663560       0.00323818
H       24.21386100      14.27516000       6.65763000       0.01988930      -0.05206150      -0.03275390
O       12.12680000       9.97623000      12.15170000      -0.07678770       0.06596370      -0.03469750
H       10.95890000      10.38643000      10.55940000       0.02877890      -0.01052830       0.04349880
H       13.04420000       8.65323000      11.58900000       0.05725660      -0.04998810      -0.02915260
O        8.02287000      19.03520000      18.98040000      -0.03346120       0.00933430      -0.11296000
H        7.57557000      17.42690000      18.20320000       0.00907339       0.00045382       0.02932150
H        8.53567000      19.19950000      20.59380000       0.02159850      -0.00836588       0.08273110
O        7.21013000       9.41603000       2.81836000       0.00868512      -0.06035420       0.01707040
H        6.63113000       7.48113000       2.75506000       0.00795283       0.06929670      -0.00304728
H        6.01163000      10.65723000       2.21806000      -0.01643110      -0.01771050       0.00420171
O       12.47500000      10.13243000      19.99740000      -0.00500484       0.03080720      -0.01288420
H       12.51670000      11.50783000      18.62130000       0.00358424      -0.03775740       0.02264470
H       13.57000000       8.67253000      19.81480000       0.00907666       0.00155197      -0.01588420
O        5.58427000      22.98694000      16.29580000       0.10526300       0.03824610       0.06554310
H        4.29660000      22.85444000      15.29050000      -0.10514700      -0.02009190      -0.07796030
H        6.00656000      21.45924000      17.12870000      -0.00051926      -0.01731740       0.01165110
O       23.49422500      20.43480000       1.46100000       0.02935800      -0.00800807      -0.02010660
H        0.58676200      19.25180000       1.38074000      -0.02361220       0.01588480       0.00302134
H       23.59981100      21.34620000      24.16758500       0.00191318       0.00065947       0.01829100
O        1.52593000       3.87180000      14.45820000      -0.01632740       0.05526970      -0.06196210
H        1.42164000       2.23338000      13.93930000      -0.00137703      -0.05685840      -0.02789400
H        1.85397000       3.69289000      16.10420000       0.01635130      -0.00139295       0.09085100
O       15.41204000       5.94826000      20.04034000       0.06941950       0.00147587      -0.09894900
H       17.41444000       5.55576000      19.56964000      -0.06595980       0.03269980      -0.00280662
H       15.46054000       5.41736000      21.62544000      -0.01212820      -0.03311560       0.10182500
O        4.36099000       2.78686000       8.05467000       0.02148300      -0.01418290       0.07189130
H        4.87714000       4.22716000       9.23977000      -0.01183510      -0.02610860      -0.02873590
H        4.46677000       1.26466000       9.33827000      -0.01208600       0.04381740      -0.04498810
O       13.26244000      16.03553000       1.77689000       0.06103570       0.01124700      -0.06012540
H       12.94954000      14.32583000       1.69773000      -0.01435790      -0.04451380      -0.00924086
H       12.27064000      16.68743000       2.96107000      -0.05836770       0.03563000       0.06714820
O       17.95200000      11.15413000      16.96240000      -0.00922090       0.07748970      -0.03626840
H       18.05870000      12.07053000      15.22960000      -0.00504965      -0.03730940       0.04373490
H       18.71320000       9.54053000      17.08430000       0.01194230      -0.02844920      -0.01100820
O        8.88187000      11.29657000       7.96770000       0.01985010      -0.04931970      -0.07803450
H        8.57387000      10.15947000       6.22796000       0.01803400       0.04693720       0.05356540
H        7.25107000      11.02767000       8.60463000      -0.03664260       0.00687071       0.02181350
O        4.19724000       2.46274000      19.59480000       0.04368910       0.02848520      -0.04913100
H        5.01564000       1.34150000      18.24250000      -0.02207780       0.01011760       0.03412750
H        4.98124000       4.18798000      19.10460000      -0.01977660      -0.02911180       0.02219180
O        3.66807000      11.24767000       9.52003000      -0.04252750      -0.05033780      -0.04476980
H        3.36147000       9.37807000       9.72063000       0.02250700       0.03469440       0.01658180
H        2.41947000      11.34207000       8.02353000       0.02409410       0.02421830       0.02593270
O       16.88440000      14.49520000       4.92503000       0.03355230       0.00005481       0.06866970
H       17.90240000      12.99840000       4.98193000       0.00606467      -0.00681645      -0.00068789
H       15.95350000      14.60240000       3.48253000      -0.03018620       0.00858630      -0.05483910
O        2.36057000      23.05467000      11.58693000      -0.01916330      -0.05663390      -0.04048710
H        3.25007000      21.36270000      11.05023000      -0.01950450       0.04267610       0.01947290
H        0.61117000      22.72095000      10.78813000       0.04305990       0.01295560       0.02012850
O       17.17013000       8.21812000      10.86623000      -0.03733090      -0.00236771      -0.05469770
H       17.82663000       6.75730000      11.58353000       0.02517980      -0.02123450       0.02412260
H       17.53133000       9.77860000      11.58103000       0.01306650       0.02699120       0.02374130
O       15.15708000      17.32544000      18.38584000      -0.00123369      -0.03415870      -0.02797300
H       16.40645000      16.39754000      19.41760000      -0.01468120       0.01088970       0.00061822
H       14.32307000      15.94644000      17.30618000       0.01118940       0.03295640       0.02580200
O        5.13156000       7.17587000      12.00297000       0.01323920      -0.01120490       0.01083420
H        6.64706000       7.14597000      13.09017000      -0.01031320      -0.00161783      -0.01136640
H        3.85126000       6.38507000      13.03087000      -0.00211176      -0.00348809       0.00075022
O        9.41771000      23.14340000      12.08630000       0.14919500      -0.06944790       0.01146020
H       10.63720000      22.70433000      13.72480000      -0.04535200       0.01667560      -0.06354640
H        8.07592000      23.89732400      12.69200000      -0.09491830       0.04945950       0.04774250
O       14.64414000      21.40038000      22.59033000      -0.02975710       0.01144470      -0.02346650
H       14.84534000      20.52941000      20.99483000       0.00650913      -0.00140910       0.01384920
H       15.86504000      20.83704000      23.74333000       0.03035090      -0.01985080       0.01277190
O       11.90140000      13.80087000      16.06281000      -0.03918480       0.05237840       0.09034440
H       10.03010000      13.84457000      16.37449000       0.02701510      -0.00183434      -0.00015300
H       12.18250000      12.90977000      14.67362000       0.01665760      -0.05653400      -0.08389060
O       21.34180000      17.58610000      11.90950000      -0.03368640      -0.04298910       0.04689910
H       20.64340000      19.18950000      12.07150000      -0.01577140       0.02947410       0.00766266
H       22.40070000      17.54060000      10.58040000       0.04745870       0.00072414      -0.06238990
O       12.03240000      21.75800000      16.76815000      -0.01934430       0.00542048      -0.00459005
H       10.25930000      21.23560000      17.00864000       0.01652590      -0.00379362       0.01138360
H       13.01130000      20.48510000      17.63975000      -0.00226132      -0.00358563      -0.00708764
O       22.63010000      22.17753000       7.58703000      -0.01487670       0.00425413       0.00915078
H       20.81100000      22.72053000       7.53433000       0.04292410      -0.01034280      -0.00813700
H       23.76710000      23.34563000       6.70133000      -0.02756200       0.00510420       0.00512521
O       16.70987000       7.61154000       2.15092000      -0.01387440       0.02022260      -0.02036460
H       15.90884000       9.10867000       1.07104000       0.01526250      -0.03205280       0.02134540
H       15.30775000       6.73346000       2.90919000      -0.00095262       0.00023127       0.00092289
O       16.19250000       0.18097000      12.72900000       0.02898850       0.01398600       0.08211750
H       15.38660000       0.20817000      11.10700000      -0.03048580       0.01122910      -0.00373769
H       15.45450000       0.90367000      14.50660000      -0.00712978      -0.01237930      -0.07725760
O       23.79365600      16.40590000      16.24033000       0.08801570       0.00442513       0.12611700
H       23.25043000      15.47730000      17.86593000       0.00143286       0.00337834      -0.04107200
H       22.73252000      16.17420000      14.99353000      -0.08357540      -0.00989702      -0.08421960
O       18.65333000      19.38583000       1.11572000       0.03820480      -0.01055860      -0.11736100
H       20.52523000      19.59633000       1.10432000      -0.00917352       0.00245385      -0.00135085
H       18.30343000      19.51093000       2.72522000      -0.03315320       0.00653063       0.12099900
O       21.95460000      13.15250000      19.45964000      -0.07011940       0.01413180      -0.02306360
H       23.08360000      11.92130000      20.08144000       0.01492860      -0.02673420      -0.00008218
H       20.35440000      12.39720000      18.38344000       0.04529640       0.01110410       0.02946760
O        7.97857000      18.29363000       3.46628000      -0.06049380      -0.01943070      -0.03688070
H        6.08777000      18.04123000       3.61311000       0.02966090      -0.00408699      -0.03873900
H        8.08777000      18.52803000       5.14927000       0.03893460       0.01594120       0.07921470
O        9.60840000      18.76714000       8.76573000       0.01151190       0.05573030       0.03477330
H       11.05250000      17.58584000       8.95653000      -0.01172520       0.01701060      -0.00072033
H        9.91719000      20.50324000       9.80133000      -0.00834835      -0.06474570      -0.03254840
O        2.54345000      11.80113000       1.63593000      -0.00226612       0.00392885      -0.01449290
H        1.26497000      11.57283000       2.91075000       0.00115509       0.00632058       0.01655820
H        1.65012000      11.38053000       0.12624200       0.00570162      -0.00642666      -0.01589220
O       17.23215000      13.50567000      11.70850000      -0.04103250       0.01506640      -0.01717490
H       15.40295000      13.93507000      10.87400000       0.06915290      -0.00359571       0.03179100
H       18.47238000      14.91171000      11.71130000      -0.02395100      -0.00830010      -0.00779944
O       19.74331000       6.70548000      17.79190000       0.03844540      -0.04516920      -0.00488610
H       21.31969000       6.16510000      18.79450000      -0.02711180       0.00935741      -0.02002070
H       19.73576000       5.62395000      16.18440000       0.00202085       0.01830610       0.02557180
O        1.34323000       9.81607000      20.57493000       0.00156733       0.00417020       0.00196103
H        0.90553000       8.04317000      20.92001000       0.01056210       0.00965000      -0.00927883
H        2.78883000      10.00287000      19.43353000      -0.01673010      -0.01820580       0.01281710
O       23.50060000       4.94632000      21.21253000       0.00702546      -0.06789200       0.01900550
H       22.25850000       4.33265000      22.55963000       0.02495570       0.01722540      -0.02069700
H        0.22963000       3.30537000      20.99643000      -0.03304660       0.05017360       0.00327944
O       15.12810000       2.18733000      24.37373000      -0.02023230      -0.02961680       0.00095038
H       16.94200000       2.26983000       0.05866000       0.00489742      -0.00538522       0.00656772
H       14.62080000       0.36523000       0.01786000       0.01586710       0.03204150      -0.01168530
O        8.22457000      10.47440000      22.30380000       0.06207380      -0.02193860      -0.02755460
H       10.15337000       9.84066000      21.56940000      -0.06354010       0.03375830       0.01028900
H        8.44967000      10.25560000      24.08770000      -0.00618212      -0.00365373       0.00622016
