192
Lattice="24.03247 0.0 0.0 0.0 24.03247 0.0 0.0 0.0 24.03247" Properties=species:S:1:pos:R:3:force:R:3 TotEnergy=-1103.40839 cutoff=-1.0 nneightol=1.2 pbc="T T T"
O       20.05230000       0.45949300      17.92684000      -0.04325440      -0.01287980       0.02978690
H       21.43810000       0.88981800      19.00184000       0.00524677       0.01134800       0.01304770
H       18.52410000       0.09184700      19.14844000       0.04452200       0.00195225      -0.04195280
O        1.67486000      20.91003000       5.80455000       0.01344000      -0.04634330      -0.02770010
H        3.48166000      20.20063000       6.09794000      -0.04568500       0.01584200      -0.01146970
H        0.87266000      19.80283000       4.39858000       0.02871350       0.03539610       0.04579200
O        9.90809000      23.92929100      15.24200000       0.04935940      -0.04738150      -0.02223140
H       10.30020000      22.02291000      15.08310000      -0.01925500       0.04744960       0.01254050
H        8.21089000       0.24482600      15.60140000      -0.02686690      -0.00307282       0.00770904
O       18.34479000      16.79889000       1.06511000       0.02484220      -0.04691500      -0.00328015
H       19.42293000      17.51506000      23.86246000       0.01272880       0.01140960      -0.01681120
H       17.19176000      18.02044000       1.47611000      -0.04122690       0.04236520       0.02012290
O        8.30221000       5.86023000      20.10300000      -0.06810750      -0.02793090       0.07594580
H        7.97395000       7.01093000      21.56230000       0.01835090      -0.00330789      -0.02299290
H        9.19903000       6.48713000      18.79050000       0.04356520       0.03243510      -0.04562490
O       22.83685000      12.26800000       9.21661000       0.05770010       0.02182770      -0.02801380
H       22.76006000      11.56410000       7.44976000       0.00337400       0.02034450       0.03602410
H        0.46449900      13.41870000       9.24933000      -0.05813150      -0.03826010      -0.00920816
O       20.56923000      23.50910000       9.94689000      -0.01454770       0.06877110       0.01830230
H       20.12883000       1.28463000      10.60470000       0.00442430      -0.05844830       0.00219674
H       21.39563000       0.10043000       8.48420000       0.00575071      -0.00519514      -0.02550720
O       22.67583000      19.14594000      11.23700000       0.01479640       0.07445200      -0.05987930
H        0.31466100      19.07344000      10.44010000      -0.00554327      -0.02114340       0.00966715
H       22.10600000      20.68834000       9.99377000       0.00156180      -0.04713560       0.05774310
O        5.00593000      13.86004000      19.08800000      -0.03687120      -0.08622460      -0.00059764
H        6.52573000      13.72484000      20.01400000       0.01976770       0.01097290       0.01573420
H        4.74453000      15.41624000      18.42610000      -0.00794985       0.07526140      -0.01740520
O        6.82184000      20.27074000      22.09354000       0.02502110       0.01638680      -0.01572190
H        8.38675000      19.40794000      21.36194000      -0.03641640       0.00986699       0.03581510
H        6.02199000      19.57284000      23.65374000       0.02134150      -0.01656110      -0.02698100
O       11.47587000       3.40923000       6.71475000       0.00083822       0.05263020      -0.05360550
H        9.95827000       2.77342000       5.84458000       0.00331401      -0.01696560       0.01249130
H       11.73157000       4.92197000       5.44273000       0.00895676      -0.04034870       0.04039080
O       12.78727000       6.25603000       2.00496000       0.06169460      -0.00732736      -0.03511990
H       12.93157000       4.80003000       0.76466000      -0.00427217       0.03201730       0.02678890
H       14.59425000       7.11803000       1.80026000      -0.06052260      -0.02366540       0.01507240
O       14.91720000      19.00004000       9.28927000       0.14826600      -0.04355180       0.01356250
H       15.61950000      17.08474000       9.15337000      -0.02295780       0.06117780       0.00226482
H       13.28770000      18.87644000       9.03047000      -0.11624700      -0.01510080      -0.01673120
O        3.31003000      16.11540000       9.25983000      -0.06356680       0.05885110      -0.15495000
H        4.71443000      16.23470000       8.05743000      -0.01960670      -0.00097467       0.00222313
H        4.09723000      15.59120000      10.54363000       0.08381490      -0.06292580       0.15840200
O       23.35140700       2.41070000      21.66973000      -0.05587630      -0.00463930       0.01131420
H        0.68272900       3.16121000      20.92000000       0.04942900       0.03172300      -0.02621550
H       23.98119100       0.96017300      22.44828000       0.01142460      -0.03448280       0.01963200
O       20.22274000       1.94003000       4.61623000       0.05740230      -0.00770175      -0.03912380
H       21.10164000       1.07853000       3.16133000      -0.01953440       0.01915840       0.03384290
H       18.57104000       1.29433000       4.66493000      -0.03503640      -0.01592270       0.00994742
O       14.75714000      13.46400000      23.36260000       0.04068260       0.05503620       0.02150670
H       14.38934000      12.42890000      21.91190000      -0.00492117       0.00209894      -0.02207150
H       15.95134000      15.04940000      23.02170000      -0.03572680      -0.06089620       0.01085480
O        7.79837000      13.75826000       5.63727000       0.00005118       0.03311810      -0.05872770
H        8.03747000      13.33736000       7.30397000      -0.00286944      -0.02846330       0.05074260
H        6.38517000      12.92136000       4.83277000      -0.00195964      -0.00862455       0.00676042
O       16.12816000      20.51430000      14.48213000       0.11207100       0.03669600      -0.00187488
H       18.12856000      21.23240000      14.11413000      -0.08631400      -0.03053490       0.03230700
H       15.77296000      20.63650000      12.74783000      -0.02662690      -0.00941597      -0.03186600
O        7.70356000       0.78897000       4.62890000       0.05462000      -0.01194980      -0.08619540
H        6.11306000       1.21557000       5.23528000      -0.05130600       0.02521320       0.01543980
H        7.82986000       1.02957000       2.61011000      -0.00839151      -0.00423053       0.06499340
O       10.09743000      17.21060000       9.63637000      -0.00736550      -0.02796130       0.01713600
H       10.17213000      15.24760000       9.95457000      -0.01178310       0.05975720       0.00494497
H        9.73433000      18.20010000      11.19487000       0.00701513      -0.03233860      -0.01680780
O       15.35983000       6.50190000      13.40466000      -0.00723145       0.00726580      -0.00634442
H       13.87147000       5.51421000      12.94396000       0.00419507      -0.00705902      -0.00347497
H       16.81168000       5.37363000      13.32726000       0.00120072       0.00116368      -0.00004190
O        7.63496000       1.57660000      23.34060000      -0.01652420      -0.09559900       0.01592390
H        7.46295000      23.56179000      22.73790000       0.00208683       0.06660980       0.01461360
H        7.91673000       2.57618000      21.90681000       0.00971891       0.01791320      -0.02861040
O       20.24553000       6.44441000      22.15200000      -0.04972360       0.12080400      -0.08646570
H       19.02333000       7.14110000      23.21470000      -0.01974850       0.01970290       0.02468130
H       20.84593000       5.10099000      22.79070000       0.06553600      -0.14295900       0.06703050
O       21.05091000      12.88556000       3.30543000       0.06136460      -0.00367703      -0.04286590
H       19.86114000      14.17926000       2.83923000       0.00199544       0.01312560      -0.00628202
H       22.66617000      13.14546000       2.08343000      -0.06432040      -0.00758411       0.04777120
O        8.85491000      11.77883000      10.28230000       0.06228640      -0.03079330       0.02297540
H        7.92550000      11.49323000      11.85190000      -0.00250560       0.01157090      -0.00852946
H       10.69240000      10.91573000      10.68470000      -0.05102140       0.02916940      -0.01670080
O        4.75757000      18.69540000      17.32130000      -0.08663820      -0.07761080      -0.15928900
H        2.98617000      19.36090000      16.47980000       0.06280470      -0.02095020       0.03102380
H        4.94247000      19.73420000      18.53860000       0.02216540       0.10239900       0.13003100
O        7.86183000       8.77043000       0.64576000      -0.02441390      -0.01998060       0.00939922
H        9.33863000       8.05163000       1.45846000      -0.00059153       0.00244258      -0.00308922
H        6.37113000       7.72013000       1.31566000       0.02950800       0.01889430      -0.01025110
O       13.16410000      11.17303000      19.49230000      -0.00756989       0.06144950       0.03559430
H       13.75480000      12.15153000      18.11600000       0.00371692       0.00318616      -0.02288260
H       13.06190000       9.48363000      19.15690000      -0.00365995      -0.06407950      -0.02361450
O        0.04266900      21.48024000      23.65610000       0.01267930      -0.01975570      -0.00045771
H       23.14239900      20.57034000      22.33060000       0.00928417      -0.00045419       0.01439170
H        1.38761000      20.30434000       0.21663000      -0.02042450       0.01686190      -0.01384900
O        3.31154000      11.82070000       3.58411000       0.01105570      -0.03846070       0.05991150
H        3.10345000       9.99105000       4.12861000       0.00234052       0.03670710       0.00141473
H        2.85622000      11.75430000       1.89877000      -0.01217520       0.00340668      -0.05224900
O        4.82227000       1.79328000      15.91100000      -0.06556570       0.04182420       0.00749262
H        3.41353000       0.55795900      15.80560000       0.01717790       0.00784406       0.00158108
H        3.79696000       3.46974000      16.44670000       0.03953460      -0.05709440      -0.01053940
O       12.70914000       6.47216000      17.62634000      -0.04026500       0.03420540       0.00627419
H       13.65114000       6.98536000      16.17564000       0.02202420      -0.01500810      -0.00732771
H       13.38664000       5.26556000      18.72374000       0.01889520      -0.02115240       0.00663143
O        3.59301000       1.64626000       7.35227000      -0.00834082      -0.00325710       0.00104958
H        4.27679000       2.37046000       9.01797000      -0.01791090      -0.02540930      -0.02495620
H        2.43436000       0.13346000       7.07057000       0.02767840       0.03313650       0.02477970
O       12.68354000      14.45753000       4.46342000      -0.02621020      -0.00381981      -0.05505340
H       13.05794000      14.11133000       2.56515000      -0.00903366       0.00405966       0.05124660
H       10.76224000      14.19973000       4.75226000       0.03334630       0.00208761      -0.00755604
O       22.03700000       8.00663000      13.65170000      -0.03459490       0.04300850       0.00036844
H       23.73670000       8.52243000      13.19470000       0.00092083      -0.00784399       0.00008937
H       20.95830000       9.55643000      13.30830000       0.02332710      -0.04107700       0.00606822
O       11.24597000       3.68917000      11.94720000      -0.02753830      -0.07473240       0.01402880
H       11.17047000       3.51087000      10.14990000       0.00912106       0.01028080      -0.02022610
H       10.77817000       1.73117000      12.43160000       0.01784350       0.07144300       0.00796845
O        2.88554000       5.42821000      19.42120000       0.00088399      -0.06423790      -0.00597894
H        2.04544000       6.92188000      19.38130000      -0.03669390       0.06297670      -0.00602459
H        4.61544000       5.78164000      19.47810000       0.03993440       0.00403947       0.00571400
O        2.48547000       8.40927000      12.08413000      -0.08558390       0.09701780       0.04499090
H        3.68927000       7.35347000      11.77763000       0.11019300      -0.10122500      -0.02291850
H        1.79277000       8.83167000      10.51463000      -0.00972198       0.00875283      -0.03472350
O       16.08880000      13.92520000       7.84893000      -0.01412820       0.01483010      -0.00830621
H       17.79120000      13.92340000       7.25483000       0.00384076      -0.00269106      -0.00126402
H       14.88860000      14.24410000       6.38233000       0.01318940      -0.01049230       0.01158860
O        0.66597000      21.67795000      15.63913000      -0.07152350      -0.01058480      -0.03169390
H       23.08534000      22.28122000      16.52793000       0.04105110      -0.01478330      -0.01794900
H       23.81814000      20.83241000      13.99653000       0.02900120       0.02307140       0.04352950
O       20.87173000       6.85789000       6.19633000      -0.00877134      -0.03969870       0.00538075
H       20.00463000       7.57190000       4.82013000      -0.01151930       0.01709630      -0.01357450
H       20.85653000       5.02451000       5.68543000      -0.00118272       0.02179840       0.01047950
O       13.37567000      14.49934000      15.37078000       0.00760126       0.00924881      -0.00220824
H       14.68412000      15.51444000      14.67435000       0.02597270       0.02604040       0.02007680
H       13.21157000      13.77404000      13.74547000      -0.02430950      -0.03835850      -0.01497560
O        5.86526000       4.14727000      11.38787000       0.01979530      -0.03127560       0.03409940
H        7.81166000       4.56517000      11.38707000      -0.05568200      -0.02387050       0.01145660
H        5.37356000       2.75037000      12.87277000       0.03180730       0.05573590      -0.03984570
O       15.66360000      23.90959100       6.39199000      -0.04215620       0.00297609       0.06050650
H       14.13570000       1.37389000       6.74817000       0.05362320      -0.06412510      -0.00678737
H       15.93180000      22.52158000       7.95333000      -0.01916030       0.06221960      -0.06334040
O       12.05894000      18.12130000      21.96183000      -0.00919674      -0.04689830      -0.02309100
H       11.76014000      16.23414000      22.34593000       0.00901127       0.05905370      -0.00164590
H       12.12664000      19.04225000      23.48753000       0.00219453      -0.00179161       0.02604610
O        5.28290000      12.77647000      13.84797000      -0.05957990      -0.04452180      -0.02019760
H        5.13856000      13.15657000      15.62624000       0.00118921      -0.00425406       0.00431040
H        3.77794000      11.45637000      13.47867000       0.05724500       0.04314070       0.01313410
O       19.63800000      15.40780000      12.31660000      -0.10887300       0.12238600       0.11776400
H       20.15050000      17.18310000      12.05400000       0.00135940      -0.03176040      -0.00281192
H       20.52220000      14.46010000      11.38660000       0.10204500      -0.10176500      -0.10947500
O       10.28240000      18.61910000      15.76634000       0.11883200       0.04379010      -0.03993770
H       11.23800000      17.14270000      16.08852000       0.00740055      -0.01781120       0.00044276
H        8.69885000      18.43430000      16.11331000      -0.13569300      -0.02245940       0.03299510
O        1.52113000       7.39536000       6.33073000       0.00178976      -0.03385400       0.02549770
H       23.65220000       7.38096000       6.71153000       0.03200330      -0.00373007      -0.01598720
H        2.17553000       5.66306000       6.82713000      -0.01400380       0.03837750      -0.01608820
O       17.20730000       9.46294000       1.86082000       0.00371120       0.05975060      -0.05764190
H       18.68951000      10.67570000       2.19670000      -0.02438220      -0.02793030       0.00165606
H       16.31612000      10.63490000       0.41234700       0.02442170      -0.03180250       0.05630060
O       15.87530000      22.31154000      19.35710000      -0.07643540      -0.06921130       0.03865560
H       14.78710000      21.01864000      20.61320000       0.04801270       0.05318010      -0.04715600
H       15.00840000      21.80474000      17.74840000       0.02363250       0.01313740       0.01432800
O       20.47781000      18.58650000      20.68273000       0.02538230       0.14792700       0.11023100
H       20.43084000      17.10930000      20.03313000      -0.00732743      -0.13848200      -0.09149260
H       19.78712000      20.00130000      19.86753000      -0.01701110      -0.00030368      -0.02239900
O       14.01653000      19.44293000       2.71866000      -0.00259716      -0.11873500      -0.05962840
H       13.97003000      20.75343000       3.68630000       0.00402815       0.12978200       0.07853400
H       13.58003000      18.14933000       3.96527000      -0.00006892      -0.00639231      -0.01613820
O       20.97570000      14.71020000      17.70144000      -0.00719869       0.01368710       0.03955080
H       22.01970000      13.33220000      18.17154000       0.00408529      -0.01367820      -0.01345150
H       20.63070000      14.99580000      15.98424000       0.00174839      -0.01019550      -0.03015310
O        4.44267000      17.78493000       1.62507000      -0.00319004      -0.06307550       0.04573440
H        4.35587000      15.79653000       2.16903000       0.00472103       0.08475870      -0.02349860
H        5.29377000      18.66193000       3.10899000      -0.00693520      -0.02163240      -0.01685340
O        6.82979000      20.03164000       5.44333000      -0.00699424       0.00674208       0.00885231
H        7.95243000      19.20104000       6.64943000      -0.00279042       0.01134940      -0.00837944
H        7.01121000      21.94134000       5.28043000       0.01788600      -0.02461260       0.00543929
O        4.54255000       5.12153000       2.08538000       0.00782094      -0.03721010      -0.03080650
H        5.49265000       3.68493000       1.08436000      -0.03529010       0.03920250       0.02251210
H        2.73369000       5.07503000       1.66105000       0.02573820      -0.00396296       0.00424413
O       13.81297000      10.86657000      11.19100000      -0.03317840      -0.00250004       0.02264040
H       14.65766000       9.28047000      11.38250000       0.00927181      -0.00997211       0.00579560
H       14.50790000      11.80677000       9.85496000       0.02259890       0.01280980      -0.02515890
O       19.44127000       3.53926000      13.76350000       0.01856770       0.00781397       0.00096690
H       20.98101000       4.53545000      13.94230000      -0.01024350       0.00660888      -0.01708370
H       19.25388000       3.11900000      15.51380000      -0.00785471      -0.02079570       0.00665252
O        1.49233000      12.34497000      22.96012000       0.04025050      -0.01501170      -0.05381100
H        2.91453000      12.51287000      21.47346000      -0.04865310       0.00617525       0.04368630
H        0.56473000      10.83787000      22.44244000       0.00473090       0.01296850      -0.00039149
O       22.85610000       9.13283000      18.64933000      -0.02822850      -0.07999990      -0.00430506
H       21.96690000       7.63151000      19.66743000       0.02166070       0.06039570      -0.01853750
H       22.59750000       8.33272000      16.89813000       0.00678086       0.02964450       0.02627630
O       15.03600000       3.29393000      21.62903000      -0.01736300       0.16962900       0.07995800
H       16.55190000       4.14283000      21.15853000       0.00835976       0.01165550       0.00424796
H       15.20400000       1.89283000      20.90653000       0.00808939      -0.18017000      -0.08483410
O        8.65817000      13.86390000      21.96970000      -0.02588350       0.05197710       0.02041360
H        9.83427000      13.25160000      20.87900000       0.05008930      -0.03539350      -0.03372430
H        8.40077000      12.74500000      23.29890000      -0.00071004      -0.03135650       0.02496380
