192
TotEnergy=-1103.35822000 cutoff=-1.00000000 nneightol=1.20000000 pbc="T T T" Lattice="24.04344000       0.00000000       0.00000000      -0.00000100      24.04344000       0.00000000      -0.00000100      -0.00000100      24.04344000" Properties=species:S:1:pos:R:3:force:R:3:Z:I:1
O              20.45440000      3.01551000    -31.73830000     -0.01332870     -0.07293260      0.08246110       8
H              20.78130000      3.75772000    -29.84550000     -0.01249340     -0.01317380     -0.06791090       1
H              19.87010000      1.00061000    -31.30230000      0.01345180      0.08654350     -0.01757020       1
O              42.50140000     42.15640000     10.30680000     -0.09254920      0.02432370      0.00523144       8
H              44.09190000     42.29900000      9.75363000      0.08563840     -0.00362715     -0.03737540       1
H              41.64420000     43.60290000      9.34573000      0.01519300     -0.02768780      0.01902230       1
O              13.22210000     -0.78928000     21.46640000      0.04763130      0.00840196     -0.02710180       8
H              12.19350000     -2.25613000     21.03850000      0.00325636      0.00108270     -0.00723066       1
H              14.71560000     -0.70826800     20.06200000     -0.04406830     -0.00793129      0.03346210       1
O              -4.70531000     -6.26416000     -4.96817000     -0.00764532      0.00565089     -0.00920580       8
H              -3.96743000     -6.24358000     -6.66256000     -0.01124990      0.00462270      0.00089890       1
H              -3.27320000     -6.49951000     -3.92795000      0.01754400     -0.00038069      0.02233250       1
O               7.23881000     28.75770000     23.84470000      0.00426557     -0.01865090     -0.03586210       8
H               8.33835000     30.11340000     24.19260000      0.01340370      0.01769730      0.00907412       1
H               8.07040000     27.92170000     22.30020000     -0.02074640      0.00279186      0.02270420       1
O              -0.43402900     15.71810000      9.07211000     -0.23488800     -0.13453800      0.02470180       8
H              -0.41599000     14.75730000      7.53078000     -0.01217120     -0.01586660     -0.00479503       1
H               0.87659600     16.46640000      8.91719000      0.25002100      0.14697600     -0.01339900       1
O              38.18150000     22.16960000     12.58660000      0.15930400      0.14569700     -0.06588860       8
H              39.34690000     21.83800000     10.96740000     -0.04469470      0.01073150      0.05023360       1
H              37.15230000     20.96500000     12.70080000     -0.11985000     -0.15157900      0.01487250       1
O              -0.06038600    -22.39860000     13.09610000      0.07656830      0.00055769     -0.06916450       8
H               0.51207100    -24.13000000     12.98960000      0.01015200     -0.00488243     -0.01020500       1
H              -1.28151000    -22.41700000     14.23500000     -0.08278870      0.00998534      0.07446100       1
O              32.66350000    -36.22090000     18.15660000      0.03073100      0.00801518      0.01938340       8
H              33.88430000    -37.54270000     17.57390000     -0.00656475      0.02122130      0.01032000       1
H              33.60830000    -34.91230000     19.23660000     -0.01190730     -0.03282870     -0.02726680       1
O               5.48542000    -28.04280000    -21.21510000      0.03774460     -0.09047520     -0.00498391       8
H               7.27689000    -28.76210000    -21.47610000     -0.03374250      0.01907870      0.00342433       1
H               5.46848000    -26.34870000    -21.55910000      0.00997229      0.06593960     -0.00765688       1
O             -12.46260000      1.08685000      4.59637000     -0.07838040      0.00550786     -0.05769700       8
H             -14.27510000      1.18706000      3.57691000      0.05863260      0.00265391      0.04959050       1
H             -11.72380000     -0.25995600      3.56688000      0.01319490     -0.00407923      0.01297760       1
O             -12.16590000     33.03070000     49.21730000      0.03140390     -0.00974921     -0.01865720       8
H             -11.06650000     34.03410000     48.14200000      0.00236444     -0.01754000     -0.00031378       1
H             -13.16990000     34.32840000     49.83520000     -0.03795220      0.02619080      0.02224310       1
O              13.13880000    -29.88100000    -17.64080000     -0.05922490     -0.04745410      0.05174490       8
H              14.61550000    -30.96890000    -17.63440000      0.00048731      0.00333798     -0.00578157       1
H              11.77020000    -30.92550000    -16.43150000      0.04567600      0.04722660     -0.04000640       1
O              26.91710000     21.47930000     37.05100000      0.01972540      0.02645590     -0.10041000       8
H              27.03230000     20.95130000     35.11110000     -0.00117066      0.02157610      0.06852240       1
H              26.29470000     20.06390000     37.80710000     -0.01883820     -0.05396770      0.03168960       1
O              -2.65682000      5.85756000     -3.36351000      0.00218546     -0.04849500      0.02863090       8
H              -0.80163400      6.20100000     -3.70462000     -0.03367460     -0.01615650      0.01911130       1
H              -3.09007000      4.25513000     -2.13774000      0.03559800      0.06021640     -0.03293220       1
O             -26.18140000     18.73060000     28.87910000      0.06068060      0.01269570      0.00040652       8
H             -24.43280000     18.20490000     29.46850000     -0.04667530      0.00477414     -0.00952898       1
H             -25.81670000     20.47310000     28.34960000     -0.01338970     -0.00688254      0.00819209       1
O             -31.73170000     13.94650000     19.60450000      0.01412240      0.02347260      0.04188980       8
H             -32.54740000     13.83800000     17.99450000      0.00273432      0.00605763     -0.01870520       1
H             -30.67150000     15.62060000     19.90930000     -0.02067510     -0.03900320     -0.03189050       1
O             -16.61040000     60.56370000    -21.85350000     -0.01522780     -0.01442930      0.10259700       8
H             -17.72110000     60.35890000    -20.06940000      0.04615650      0.00826451     -0.08229140       1
H             -17.55300000     60.73010000    -23.39840000     -0.02733760      0.00235880     -0.00417971       1
O              64.84390000     22.86810000     41.67910000     -0.01302030      0.01811980      0.00141219       8
H              63.78250000     23.12410000     40.09710000      0.02959090     -0.03069210      0.02696720       1
H              65.59030000     21.22370000     42.14320000     -0.01452020      0.01027840     -0.02704700       1
O              54.15890000    -22.84030000      3.40166000     -0.03807860      0.03721200     -0.01059450       8
H              52.70070000    -22.94570000      4.73314000      0.04259970      0.01273520     -0.03007030       1
H              54.01080000    -21.25500000      2.18633000      0.00313370     -0.04868990      0.03724010       1
O              32.78020000     16.76390000    -14.62710000     -0.00518945     -0.00442506     -0.05961010       8
H              32.27510000     14.96690000    -14.79800000     -0.00205686      0.00988731      0.01421050       1
H              33.22120000     17.43410000    -13.06840000      0.00910232     -0.00287146      0.04304330       1
O             -11.01010000      6.43153000     59.33040000     -0.02724210     -0.00409294     -0.00967685       8
H             -11.52910000      4.88945000     58.36410000      0.02189060      0.01339130      0.02304090       1
H              -9.24164000      6.75972000     59.75820000      0.00598428     -0.02514550     -0.00132634       1
O               8.98678000      2.09982000     -4.33449000      0.03133470     -0.05350540      0.00596924       8
H              10.77470000      1.59865000     -3.75888000     -0.03767180      0.00659899     -0.01293550       1
H               8.26842000      0.29929400     -4.68801000      0.00896783      0.04952270      0.01161940       1
O              41.20550000      9.52242000     21.94740000      0.00659878     -0.04796060      0.03389810       8
H              41.19960000     11.05550000     20.97260000      0.01627320      0.00967712     -0.01688510       1
H              42.69940000      8.33186000     21.96650000     -0.01927260      0.03875240     -0.01658960       1
O              -0.19563000     61.13720000     28.57710000      0.01775800     -0.09057120     -0.03149620       8
H              -1.77993000     60.51530000     27.60890000      0.04203400      0.02265640      0.02487180       1
H               1.10415000     59.43770000     28.40420000     -0.05659330      0.07626310      0.00144317       1
O               7.42394000     36.15030000      8.08022000      0.01751290     -0.07176270      0.04728990       8
H               5.94704000     34.65730000      8.92942000      0.05115000      0.04762630     -0.01600120       1
H               9.26797000     35.52420000      8.72730000     -0.07085280      0.01595470     -0.03204300       1
O             -13.67420000     19.57040000     19.08720000     -0.04083160     -0.05593940      0.01833520       8
H             -15.59940000     19.59940000     19.23900000      0.04531840      0.01157750     -0.00985527       1
H             -13.33520000     17.71190000     19.56040000      0.00169791      0.04288560     -0.00198082       1
O              26.10950000     32.79440000     49.97460000      0.07121750     -0.00547388     -0.01861880       8
H              25.18000000     33.39580000     48.52000000      0.00434734      0.00231401     -0.00572490       1
H              28.02130000     32.60070000     49.34390000     -0.07593640      0.00834456      0.02267210       1
O              11.89610000     32.71270000     15.66830000      0.01385820     -0.08379490     -0.05917180       8
H              11.82810000     31.41790000     14.01960000     -0.00901559      0.05673080      0.03039290       1
H              12.84800000     31.29540000     16.45970000     -0.00268320      0.02887240      0.02677650       1
O              -3.66105000    -21.71760000     25.14890000     -0.09217860      0.04051320     -0.04458740       8
H              -5.61124000    -22.15070000     24.94230000      0.08185670     -0.00013941      0.01969620       1
H              -2.52461000    -22.86170000     25.86560000      0.00556059     -0.03326490      0.01847130       1
O               4.96198000     13.14560000     -1.94630000     -0.08236310     -0.02230490     -0.02875130       8
H               6.02923000     12.32690000     -3.12541000      0.01387420     -0.00874656     -0.01695880       1
H               2.91969000     12.39900000     -2.66622000      0.06126640      0.02428990      0.03821300       1
O               4.12464000      1.85880000     16.08430000      0.04480330     -0.10742300     -0.03164850       8
H               2.67796000      2.03433000     15.19310000     -0.06921490      0.01039070     -0.03577060       1
H               4.46217000      3.17840000     16.99730000      0.02089870      0.10446200      0.07284190       1
O             -34.06040000     54.12560000    -28.45720000      0.09192750      0.06226790     -0.04473270       8
H             -35.24800000     53.29850000    -27.63280000     -0.06642530     -0.04415260      0.05858580       1
H             -32.94270000     55.23160000    -27.36940000     -0.02669860     -0.01790300     -0.01541960       1
O               3.61067000     48.14050000    -16.21970000      0.00278433      0.03095490      0.00353450       8
H               4.77899000     49.25640000    -15.07440000     -0.02205700     -0.03421110     -0.02026660       1
H               4.18255000     46.48880000    -16.76970000      0.01058880      0.00138393      0.01916110       1
O             -29.11450000     35.58610000      2.64623000     -0.02854800     -0.02538040     -0.03103770       8
H             -30.30100000     35.02370000      1.18228000      0.03742970      0.01413530      0.03152780       1
H             -28.44810000     33.99620000      3.26307000     -0.00709922      0.00274409      0.00151872       1
O              21.24650000     34.17060000     12.86330000     -0.05660620      0.05032590      0.02000590       8
H              19.88490000     35.44210000     12.16870000      0.04656800     -0.03843440      0.00532196       1
H              22.29390000     33.43980000     11.62970000      0.00804069     -0.00827491     -0.02497970       1
O             -13.39450000    -22.56230000      9.84339000      0.01332540      0.00854031     -0.01349770       8
H             -13.26740000    -22.36400000      7.95652000      0.00882746     -0.02348960      0.02964280       1
H             -12.19190000    -23.82060000     10.58900000     -0.01388810      0.01812480     -0.01838610       1
O             -44.91450000      6.91512000     19.99450000     -0.01443190      0.02550280     -0.04528480       8
H             -43.84310000      7.73039000     18.65720000     -0.01860780     -0.00727157      0.02089380       1
H             -43.89030000      6.04070000     21.11170000      0.02731910     -0.01784140      0.02450200       1
O             -19.53280000    -15.42010000     34.71970000     -0.02273210     -0.04040620     -0.03174850       8
H             -18.14590000    -16.63350000     35.04260000     -0.02521150      0.00659568     -0.01096980       1
H             -21.19340000    -16.53860000     33.98480000      0.05446710      0.03320800      0.04241980       1
O              17.31350000     16.50960000     28.50640000      0.02123870      0.06267590      0.01708120       8
H              18.95340000     17.46190000     28.81720000     -0.03033340     -0.01394800     -0.00483174       1
H              17.93190000     14.93730000     28.12560000      0.01289290     -0.05401660     -0.01556690       1
O             -18.16490000     -2.06985000     42.77130000     -0.03859940     -0.02228240      0.03540920       8
H             -19.57860000     -2.63395000     43.90160000      0.03650710      0.00408617     -0.00978728       1
H             -19.12180000     -0.98898000     41.68890000      0.00219638      0.01600300     -0.02359860       1
O              41.61160000      3.42705000     31.85380000      0.02875320      0.00657853      0.07027960       8
H              41.84340000      4.50040000     33.45750000     -0.00537585     -0.02502760     -0.04548420       1
H              40.68170000      4.38270000     30.67910000     -0.01734090      0.01849390     -0.02273900       1
O              -6.94736000    -35.44710000    -13.93470000      0.05073740      0.01508880      0.07933700       8
H              -6.30070000    -34.00660000    -14.70540000      0.00419600      0.02731610     -0.02148540       1
H              -7.92985000    -36.45320000    -14.88820000     -0.04805090     -0.03644440     -0.05369070       1
O              54.09500000    -21.00830000    -12.82270000     -0.00833100      0.03894670     -0.11085300       8
H              55.84500000    -21.12310000    -13.04690000      0.03579550     -0.01512020      0.00576398       1
H              53.54430000    -21.33470000    -11.28580000     -0.02359080     -0.02810580      0.10187800       1
O              16.48330000     -1.69589000      7.80987000      0.01031690      0.01007310      0.02002110       8
H              16.74730000      0.16369800      8.12396000     -0.00561131     -0.02344150     -0.02404570       1
H              15.72860000     -2.17569000      6.20969000     -0.00005507      0.01775660      0.00991367       1
O             -36.43560000     -9.12102000     45.39590000      0.04835260     -0.01967520     -0.08564580       8
H             -34.54380000     -9.50708000     45.27020000     -0.02842010      0.00548460     -0.01199070       1
H             -36.70950000     -8.97415000     47.05160000     -0.02426410      0.01628910      0.09391710       1
O               4.66206000    -14.02520000     -8.15204000      0.06299760      0.01981450      0.02817180       8
H               6.57699000    -13.32560000     -7.86171000     -0.06953920     -0.01440010     -0.00468411       1
H               4.68487000    -15.18070000     -9.51677000     -0.00194244     -0.00093571     -0.01842600       1
O              20.50130000     19.94140000     14.62130000     -0.00505592     -0.03469540     -0.04939270       8
H              19.87200000     18.99780000     12.97520000     -0.00151928      0.03223440      0.04496860       1
H              22.19780000     19.30340000     14.64700000      0.00761839      0.00347004      0.00840777       1
O              11.22890000     17.91370000     -9.79288000      0.02579340     -0.03577140     -0.04346500       8
H              12.53780000     16.66210000     -9.39427000     -0.01489790      0.00182343     -0.01317760       1
H              11.05590000     18.74010000     -8.27838000     -0.01477210      0.03171690      0.04845360       1
O              22.89950000     48.33920000     28.96410000     -0.03077480      0.02884390      0.05123390       8
H              21.36100000     49.35910000     29.93710000      0.07132660     -0.04374360     -0.03248710       1
H              24.48270000     48.25930000     30.06080000     -0.03768780      0.01114380     -0.01269490       1
O               0.05472600      6.26083000     10.65730000      0.00859722     -0.01530780      0.01577560       8
H               0.01878300      4.69756000     11.73010000      0.00384700      0.01641420     -0.01168160       1
H              -0.12015300      5.59451000      9.00717000     -0.01299990     -0.00434027     -0.02163750       1
O              14.91880000    -26.00670000     26.52260000      0.00595138     -0.08381730     -0.06341350       8
H              15.05380000    -28.06720000     26.79220000     -0.00677927      0.08254150     -0.01212730       1
H              14.75690000    -25.83680000     24.47730000     -0.00125433     -0.00276495      0.06464470       1
O              -0.89456100     17.11190000     47.15370000      0.05609650      0.01418660     -0.07203200       8
H               0.90327300     17.89900000     46.68910000     -0.04911790     -0.03356200      0.00039874       1
H              -0.89498300     17.56590000     48.80120000     -0.01674570      0.01252600      0.07264730       1
O              34.19400000     40.87760000      2.34106000     -0.04021770     -0.02001610     -0.00659097       8
H              35.18280000     41.33590000      3.77679000      0.01607680      0.00625396      0.01570760       1
H              33.04940000     39.44560000      2.89284000      0.02264350      0.01807330     -0.01452630       1
O              25.12370000     17.50610000    -31.22010000     -0.01496220     -0.02191850     -0.02876120       8
H              25.47950000     15.70090000    -31.64210000     -0.00588614      0.02867260      0.01466850       1
H              26.25760000     18.23930000    -30.06840000      0.01682680     -0.00524008      0.01114210       1
O             -20.15240000     42.25460000     -1.83962000     -0.11418400      0.18691800      0.05592690       8
H             -19.27950000     41.00390000     -2.19594000      0.11518900     -0.18312300     -0.05012130       1
H             -19.74800000     42.68990000     -0.09127300      0.00282820      0.00396047     -0.00278226       1
O               4.17081000    -29.16600000     31.63120000      0.04418770     -0.00696587     -0.04740940       8
H               5.90123000    -29.58080000     32.14780000     -0.00554209     -0.00773012      0.03506580       1
H               4.93572000    -29.20330000     29.83480000     -0.04459470      0.01108760      0.01899450       1
O              -1.52130000     30.48110000      5.02379000      0.04993190      0.07114130      0.07540380       8
H              -0.28130600     31.55280000      4.19010000     -0.00799706     -0.01938360     -0.00548349       1
H              -2.36594000     29.50590000      3.96043000     -0.04312690     -0.05695510     -0.07017030       1
O             -11.03030000    -13.84640000      7.93320000      0.02388280     -0.03671540     -0.08785950       8
H             -11.11720000    -15.21660000      9.13169000     -0.00352485     -0.00911026      0.00932327       1
H             -10.53550000    -14.89580000      6.19865000     -0.02346990      0.04883640      0.07547760       1
O              -6.20436000      6.46144000     13.01580000     -0.00014749     -0.01843310     -0.00184958       8
H              -5.14920000      7.91008000     13.49080000      0.00370739     -0.01390900     -0.00657243       1
H              -5.35774000      4.88913000     13.58430000     -0.00943401      0.02508830      0.00659388       1
O              23.84350000    -12.10490000     -2.24588000      0.02439230     -0.12925200     -0.05857450       8
H              23.50460000    -12.27670000     -4.09300000     -0.00096232      0.02882270      0.01413650       1
H              23.89840000    -10.73420000     -1.30364000     -0.01549760      0.10674100      0.03824030       1
O              24.05510000     12.23320000     40.65180000     -0.03390640     -0.05072180     -0.02225300       8
H              22.93460000     10.89940000     39.50850000      0.03571730      0.05573060      0.02818410       1
H              25.75610000     11.54190000     40.56290000      0.00009319     -0.00314719     -0.00549171       1
O              14.77060000     29.22450000     51.90110000     -0.02281310      0.02045470     -0.00652046       8
H              13.76710000     27.61080000     51.76350000      0.00049681      0.03143690      0.00521048       1
H              13.69040000     30.78150000     51.48780000      0.02059830     -0.05068070     -0.00182220       1
O              -9.90214000     13.07430000     14.55300000     -0.03170800     -0.06296780      0.03456590       8
H              -8.64086000     13.20370000     13.32650000      0.02189680      0.00217223     -0.02718470       1
H             -10.36880000     11.05290000     14.65470000      0.00722963      0.06824100      0.00347245       1
