192
Lattice="23.86062 0.0 0.0 0.0 23.86062 0.0 0.0 0.0 23.86062" Properties=species:S:1:pos:R:3:force:R:3 TotEnergy=-1102.95587 cutoff=-1.0 nneightol=1.2 pbc="T T T"
O        6.15481000       0.93592400       6.14436000       0.00457472       0.00315389      -0.00927955
H        5.21776000       1.61447000       7.52231000      -0.00789292       0.00740974       0.01549850
H        6.28687000      23.00507900       6.54037000       0.01029240       0.00225834      -0.00864874
O       17.98930000      22.40640000       0.62184200      -0.00454004       0.03955490      -0.08029360
H       17.97150000      21.60840000       2.12092000       0.00738708      -0.04761060       0.07379730
H       16.44050000      23.34030000       0.78444600       0.00412273       0.01501860      -0.00739884
O       16.96310000      17.63660000      13.80690000       0.00827699       0.05133880       0.02607090
H       17.41320000      15.88870000      14.32850000      -0.00341712       0.02619820       0.01898710
H       17.56440000      19.20090000      14.97070000      -0.01316240      -0.07378130      -0.03939920
O       23.15000000      23.05380000      20.37660000       0.10384200      -0.17358000       0.07617030
H       22.49680000       0.51688000      19.81900000      -0.07645750       0.16863200      -0.06698820
H        1.14748000      23.28150000      20.48070000      -0.02506050       0.00790196       0.00092426
O        8.61315000       5.02604000      11.75770000       0.01525470       0.06427530      -0.02903550
H        9.29542000       3.72790000      12.70180000       0.02503590      -0.03833180       0.02570980
H       10.09330000       6.21799000      11.36730000      -0.04314620      -0.03600060       0.00773877
O       17.28540000      22.61930000      10.20000000      -0.00456085       0.08829830      -0.00424254
H       17.37290000      21.15930000      11.11140000       0.00053984      -0.04591730       0.03460390
H       17.33090000       0.26618000      11.41150000       0.00465865      -0.04628340      -0.02584760
O       12.34120000       9.97326000      16.82680000      -0.02488420       0.06474580       0.04568240
H       11.75760000      11.77140000      18.05610000       0.02484180      -0.08539840      -0.05246260
H       12.65070000       8.41809000      17.92830000      -0.00859318       0.03062900      -0.00487256
O        8.02315000      21.45060000      18.15040000      -0.01718610      -0.04250830      -0.04142140
H        7.06827000      22.38890000      19.33370000      -0.01333860       0.01646450       0.01362480
H        6.77033000      20.14350000      17.39480000       0.03892740       0.03333950       0.01445980
O       22.80460000       7.11939000       2.92380000      -0.00557610      -0.01263380      -0.01812570
H       21.26940000       6.30165000       3.82787000       0.02417900       0.01596970      -0.04824600
H       22.96620000       7.04788000       0.91646100      -0.02416100      -0.00701205       0.06633500
O       16.64750000       7.49030000      14.06770000      -0.02994660      -0.05482940       0.00827463
H       15.48730000       8.67452000      14.74040000      -0.00927008       0.02808640       0.00907263
H       15.70920000       5.93525000      14.69920000       0.03068670       0.02174330      -0.01331310
O       18.03760000      19.77530000       4.66099000      -0.01753360      -0.06394550       0.02824940
H       17.13450000      17.85740000       4.67847000       0.02744060       0.06052300       0.01155360
H       18.33670000      20.32540000       6.41694000      -0.00978877      -0.01060430      -0.02212520
O       22.84910000      17.94980000      19.29010000      -0.00824953      -0.21720600      -0.07739930
H       23.62560000      17.57670000      17.57640000      -0.02469220       0.00833728       0.03396200
H       23.08640000      19.48350000      19.56130000       0.02752210       0.20543600       0.03724680
O        7.12337000      17.88290000      13.84570000       0.08263970       0.01100720       0.05161830
H        6.30604000      18.27450000      12.35160000      -0.00671567       0.01236670      -0.03754080
H        9.34424000      18.51870000      13.83120000      -0.06335040      -0.02013180      -0.01298360
O        9.25417000       6.21697000       5.66868000       0.00456059      -0.03392380       0.01957240
H        8.49049000       4.44716000       5.79985000       0.02195830       0.03951660       0.00044166
H       10.65330000       6.31994000       6.93686000      -0.02775100      -0.00534347      -0.01771660
O        1.24570000       7.81404000       7.82842000      -0.01765840       0.00472980      -0.00088883
H        0.29816400       7.64822000       6.21026000       0.01041400       0.00365830       0.01670130
H        0.17759500       8.75577000       9.02700000       0.01379990      -0.01264760      -0.01591090
O       23.03880000      14.11890000      22.79240000       0.00345130      -0.01906630       0.01842270
H       23.15480000      15.23830000      21.40060000      -0.00355060       0.01869210      -0.01451470
H       21.33240000      13.51990000      22.86680000       0.00189055       0.00002154      -0.00130679
O        5.23328000       9.54585000       5.14894000      -0.00081134       0.03443640      -0.02344700
H        6.65335000       8.51554000       4.82323000       0.01140960      -0.01486000       0.00816120
H        4.14939000       8.72188000       6.30244000      -0.01584420      -0.01514010       0.01074510
O       18.16810000       5.65491000       4.60116000      -0.02195340      -0.02899160       0.00102184
H       17.09390000       6.90900000       3.90729000       0.00237481       0.02615180      -0.01045320
H       16.97580000       4.22175000       4.43081000       0.02775550       0.00539410       0.01464800
O       10.00790000      11.23910000      12.06670000      -0.14453100      -0.10116500       0.15091700
H       10.34620000      10.83670000      14.06460000       0.01903480       0.01356790      -0.07335320
H       11.17400000      11.99300000      11.26600000       0.13583900       0.08058250      -0.07161730
O       21.52560000       7.25174000      12.14010000       0.04761830       0.01919160      -0.02996110
H       20.53970000       7.11156000      13.54180000      -0.03923800      -0.00710998       0.04506240
H       21.52660000       5.65083000      11.30880000      -0.00505433      -0.01674150      -0.01057120
O        4.27822000       0.66561300      20.11080000      -0.00939065       0.02169050      -0.01848770
H        3.68389000       0.54338700      18.31450000       0.01586640       0.00628072       0.01451040
H        4.39953000       2.52508000      20.40440000       0.00069240      -0.02432750      -0.00194095
O        7.76903000      17.02000000       2.14824000       0.10306200      -0.11683500       0.06364300
H        8.30175000      15.32860000       1.33213000      -0.03192720       0.05489300       0.01177740
H        6.72730000      18.03570000       1.37064000      -0.07387810       0.05982120      -0.07897320
O        0.41402500      14.32340000       9.85714000      -0.06219120       0.02752730      -0.02357680
H        0.23197100      15.74790000       8.65042000       0.01463140      -0.01739810       0.01515340
H        2.09893000      13.94440000      10.09710000       0.04725250      -0.00789710      -0.00722642
O        3.29288000      10.66240000      23.29541800      -0.00290619       0.01540190       0.08050630
H        2.22477000      12.19630000      23.40461500       0.00594565      -0.01193960      -0.01018900
H        3.59152000      10.43370000       1.42504000      -0.00546192       0.00053235      -0.06326540
O       14.93000000       2.03542000      16.89340000      -0.04055880       0.00760446       0.00116064
H       13.04170000       1.42192000      16.73990000       0.06749810       0.00124547      -0.00811688
H       16.28550000       0.78324500      16.92070000      -0.02231780       0.00044277      -0.00346883
O       13.42320000       5.59994000       9.31035000      -0.01744260       0.29700700       0.26261400
H       13.52990000       4.48657000       8.33028000       0.05723630      -0.26240700      -0.20349100
H       14.70350000       6.08490000      10.73390000      -0.03131070      -0.03049780      -0.05915320
O       18.76300000      13.11500000      16.11380000       0.01703030       0.07397120       0.10474200
H       18.87180000      12.19830000      17.78550000      -0.01647250       0.00028412      -0.04224860
H       18.60940000      12.27560000      14.68450000      -0.00448797      -0.07258590      -0.07633490
O        5.19471000      12.16290000      10.22430000       0.04905830      -0.00715357       0.02990420
H        5.06249000      11.38010000       8.56103000       0.01273600       0.00477589       0.01394510
H        7.07395000      11.83040000      11.12530000      -0.05908180       0.00715571      -0.04258720
O        3.22616000      14.31930000      14.91050000      -0.03303820      -0.06267910      -0.04249090
H        3.39749000      13.53510000      13.10010000       0.00802368       0.03689910       0.05554720
H        4.11570000      15.81720000      15.14340000       0.02953320       0.02465870      -0.01132290
O       15.37830000       1.49547000       6.44547000       0.02029030      -0.00027816       0.05978200
H       14.71480000       1.02118000       4.86825000      -0.01007790      -0.02948300      -0.00955423
H       15.81490000       0.20417900       7.92635000      -0.01897300       0.02233660      -0.06043660
O       18.12610000       9.85192000      20.02440000      -0.17189200       0.03233260      -0.05630610
H       19.63040000       9.58479000      20.50760000       0.15817100      -0.04194250       0.06605080
H       16.83100000       9.22252000      21.18790000       0.02128540       0.00817769      -0.00815190
O        9.86018000      14.51620000      18.10200000      -0.01240560       0.05509140      -0.04948350
H        8.56989000      15.85950000      18.59540000       0.01915800      -0.03046970       0.00138356
H       10.19190000      15.15040000      16.28850000      -0.00572086      -0.02244820       0.04822210
O        3.95052000       3.28696000      10.24080000       0.00458388       0.04736730       0.00398180
H        5.68254000       3.53279000      11.01650000      -0.01746270       0.01961600      -0.02603300
H        3.25751000       5.09837000       9.62032000       0.02045030      -0.05887310       0.02616760
O       22.51100000      17.69010000      13.59970000      -0.16680000       0.10373400       0.08648410
H       23.32700000      16.49500000      12.96740000       0.11876400      -0.15213900      -0.08361160
H       20.74270000      16.74800000      13.70070000       0.05964260       0.04635170      -0.00083683
O       12.03910000      19.05910000      13.21190000       0.04790440      -0.03267340      -0.04724880
H       13.93500000      18.36180000      13.56070000      -0.05303040       0.01564210      -0.00119552
H       11.97260000      18.69250000      11.21990000      -0.00580337       0.01482450       0.04540180
O       11.32730000      18.54390000       8.17792000       0.11246100       0.00107624       0.08091820
H        9.79179000      18.25910000       7.71824000      -0.13616900      -0.02254570      -0.03453050
H       12.15410000      19.15220000       6.77467000       0.02726330       0.01931270      -0.03922050
O       13.69580000       6.33399000      19.84190000      -0.06190390       0.03122810       0.06470650
H       12.49690000       5.61396000      21.19080000       0.04182320       0.01598810      -0.03824750
H       14.64790000       5.12162000      19.05580000       0.02203730      -0.05463100      -0.02119150
O       16.01900000      14.95880000       4.92291000      -0.07003030      -0.06106990      -0.00257889
H       14.65920000      14.71130000       3.52355000       0.04057090       0.01235030       0.04314450
H       15.28200000      13.59010000       6.29183000       0.03115340       0.05275300      -0.03663700
O        8.65746000      12.30960000      22.99350000       0.05695540       0.03449420       0.00470624
H        9.85153000      12.99970000      21.72120000      -0.02499950      -0.01272610       0.01422160
H        7.34333000      11.53370000      22.15030000      -0.03524890      -0.01592220      -0.02184750
O        6.29617000      19.75800000       6.62800000       0.11940900      -0.04826340      -0.02457250
H        6.39726000      18.69020000       5.07445000       0.02080440       0.00688387       0.02259090
H        4.70618000      20.10280000       6.42486000      -0.14306700       0.02720550       0.00892854
O       10.64110000       0.40788000      14.25940000      -0.06600120      -0.02472670       0.06647990
H       11.18140000      22.77150000      13.37770000       0.00185758      -0.00318231       0.00247943
H        9.12595000      23.36420000      15.81270000       0.05718980       0.02541380      -0.05722910
O       10.56040000       5.72773000       0.66108500      -0.06071960       0.01289650      -0.05451790
H        9.08336000       5.84712000      23.16019200       0.04330800      -0.01103470       0.04615200
H        9.72950000       6.61724000       2.03832000       0.01359480      -0.01209310       0.00126136
O       22.75140000       7.92689000      21.40120000       0.04715650       0.03485150       0.01638840
H        0.24268000       9.20821000      22.10580000      -0.03431180      -0.03909730      -0.02642920
H       23.61410000       7.10015000      19.96660000      -0.00284838       0.00611276       0.01499860
O        1.43407000       6.40878000      16.84740000       0.33021500      -0.08077720       0.18978000
H        0.26618000       6.86602000      16.09200000      -0.29778500       0.11451300      -0.20027600
H        2.82873000       7.72119000      16.55550000      -0.02664810      -0.03733560       0.00673286
O       22.75130000      20.76220000       2.89502000      -0.03134420       0.00144229      -0.02162820
H       21.11290000      19.83270000       3.59098000       0.03528860       0.03473600      -0.02945480
H       22.38610000      21.95260000       1.42854000      -0.00255312      -0.03124260       0.03930690
O        3.11089000       1.37530000      15.01870000       0.05803410      -0.08387920      -0.10959100
H        3.62061000       2.12219000      12.86250000      -0.02552090      -0.02452210       0.06199080
H        2.66798000       2.89287000      15.48430000      -0.04108220       0.11687000       0.04546480
O       19.92550000       3.48229000      18.90830000       0.00753290      -0.11038100       0.11295700
H       19.08500000       3.14060000      20.81120000       0.03950480       0.00988930      -0.08263720
H       19.20100000       4.94201000      18.58710000      -0.04487360       0.10080200      -0.02948230
O       19.34000000      11.31200000      10.24520000       0.01779300       0.07701950      -0.05182830
H       20.01940000       9.84287000      10.96970000       0.02869030      -0.02688360       0.00366860
H       20.67100000      12.34420000       9.10581000      -0.04544660      -0.04779180       0.05355370
O        3.03166000       3.27503000       2.67674000       0.06763350      -0.04955460      -0.03471600
H        4.09056000       2.43412000       3.95510000      -0.00622401       0.00225450      -0.00890059
H        1.76380000       4.12608000       3.40241000      -0.06423810       0.04375560       0.03647670
O       17.66090000      19.63210000      20.07590000       0.02662100      -0.05435530      -0.03122880
H       18.95050000      18.12940000      19.77640000      -0.03632610       0.05591470       0.02224810
H       17.91620000      20.60940000      21.62660000       0.01145010      -0.00512593       0.00730892
O        5.41648000      17.03850000      19.92290000       0.05292200      -0.10641500      -0.08524460
H        4.87424000      18.33340000      20.80320000      -0.05032120       0.07457600       0.07166880
H        4.38396000      15.53220000      19.76750000      -0.00151280       0.02263480       0.00927279
O       13.93140000       1.53690000       0.80014300       0.00938997      -0.08752670      -0.04295580
H       12.86940000       2.93611000       0.90578800      -0.03253480       0.02433440      -0.00520633
H       13.29660000       0.10114900      23.32344400       0.01108330       0.06266520       0.03921270
O        5.11363000       5.69775000      22.51840000       0.01141390      -0.13996800      -0.00153768
H        4.91872000       7.33781000      22.66700000      -0.02662250       0.10464200       0.01240370
H        4.15236000       4.66977000      23.84190000       0.01858440       0.03048690      -0.01086890
O       12.11190000      19.79850000       3.18245000       0.38756000       0.17200000       0.04863100
H       12.64200000      20.67620000       1.64117000      -0.00722274      -0.01318220       0.02019650
H       10.80060000      19.24420000       2.94155000      -0.37845400      -0.16228300      -0.07278250
O        0.97049400      19.39760000       7.07309000      -0.01145810       0.01356110      -0.02368950
H        0.14959500      20.30480000       8.44864000       0.01205900       0.00292673      -0.00978237
H        0.48058900      20.26040000       5.38816000       0.00324164      -0.01688080       0.03873760
O       11.77640000      11.38560000       2.87933000       0.10838700      -0.01711950       0.11254200
H       10.81790000      10.37640000       3.97835000      -0.00254717      -0.01330090       0.02360490
H       10.68740000      11.64430000       1.71729000      -0.10361400       0.03025130      -0.12766700
O        5.72400000       9.83829000      15.88180000       0.08064340       0.00120691      -0.02596170
H        7.42626000      10.52350000      14.96480000      -0.08323090      -0.03177430       0.04152200
H        4.52343000      11.11860000      15.57640000      -0.00739435       0.02745540      -0.00276959
O       14.40760000      11.32870000       9.18731000       0.04524220       0.07668050       0.04419880
H       13.66970000      10.04830000       8.38693000      -0.03147310      -0.07653900      -0.03595100
H       15.96680000      10.79140000      10.08800000      -0.01319210       0.00699023      -0.02287740
O        0.32626400      22.23050000      11.71510000      -0.01249380      -0.05433760       0.01487580
H       23.80887800      20.46350000      12.55140000       0.00005028       0.05388100      -0.02135200
H        1.71014000      22.90190000      12.68460000      -0.00593886       0.00453006       0.00295455
O       12.84210000      21.23530000      20.78450000       0.01414880      -0.06631760      -0.07163140
H       11.41080000      20.99930000      19.37090000       0.04672030       0.00960237       0.05452070
H       14.46030000      19.82050000      20.11570000      -0.05893310       0.06341480       0.03029850
O       20.74710000       2.83034000       9.69082000       0.06242630      -0.07281770       0.06631360
H       21.65780000       0.96885100      10.21120000      -0.03422270       0.07786890      -0.02026770
H       19.87710000       2.54192000       8.21456000      -0.02374430      -0.00686866      -0.04162040
O        4.54893000      20.23190000      23.76885600      -0.06921860      -0.28736700       0.11782200
H        4.52739000      21.68610000      23.36818100       0.00249093       0.29356000      -0.08037920
H        2.83250000      20.02610000       0.90847500       0.05518210       0.00279152      -0.03305710
O       19.34640000      22.47990000      15.89200000       0.00703186       0.01477160       0.05206500
H       18.70110000      21.29290000      17.34930000       0.02793560       0.04565690      -0.02136280
H       20.45320000       0.09838000      16.68120000      -0.04352840      -0.05945720      -0.02497820
O       16.63620000      10.09360000       1.60092000       0.02139630      -0.03130740      -0.02213240
H       15.03960000      10.67130000       2.05940000      -0.03422550       0.01215620       0.01076580
H       17.85160000      11.09430000       2.41131000       0.01261950       0.01460870       0.01166770
