192
TotEnergy=-1102.09655000 cutoff=-1.00000000 nneightol=1.20000000 pbc="T T T" Lattice="25.10088000       0.00000000       0.00000000      -0.00000100      25.10088000       0.00000000      -0.00000100      -0.00000100      25.10088000" Properties=species:S:1:pos:R:3:force:R:3:Z:I:1
O               9.96620000      5.23800000      0.62999600      0.05888850      0.06085330     -0.01649260       8
H               9.06979000      4.23473000     24.69080000     -0.02971760     -0.05557610     -0.05482100       1
H               9.13377000      5.10336000      2.11397000     -0.02168540     -0.00359890      0.06722570       1
O              -0.44219600     22.04670000      1.33922000     -0.00966890      0.03258020      0.01313480       8
H               0.35695100     23.18780000      2.63982000     -0.01784080     -0.02561750     -0.02173670       1
H              23.03520000     22.86050000      0.84563300      0.03244180     -0.00974976      0.01182080       1
O              13.52570000     14.78720000     16.73970000      0.04530170     -0.02544720     -0.07045130       8
H              11.77350000     14.91320000     17.20900000     -0.00597156     -0.00670028     -0.02238500       1
H              14.02800000     14.01530000     14.80320000     -0.04556330      0.03489510      0.09686290       1
O              19.91130000      5.50324000      0.88516500      0.04225210     -0.03681200     -0.00231853       8
H              18.27420000      5.41886000      0.03486800      0.02097610     -0.00660562     -0.00000862       1
H              21.17300000      4.02147000      0.44819900     -0.06198510      0.04655070      0.00893820       1
O              16.76410000     11.77260000     19.83880000      0.00302534     -0.11848000      0.04302590       8
H              15.73530000     10.16290000     20.63660000      0.04844270      0.05788400     -0.02859790       1
H              15.46140000     12.87510000     19.89270000     -0.05412310      0.05359280     -0.01299930       1
O               2.75792000     18.96270000     23.25500000      0.15934900     -0.05409060     -0.05999520       8
H               4.59596000     19.00980000     24.09250000     -0.07759890     -0.00053381     -0.02875780       1
H               1.66789000     19.51120000     24.36460000     -0.07986800      0.05060910      0.09126040       1
O               6.93986000     18.28220000     13.95330000      0.04063310     -0.01946020     -0.08832590       8
H               6.90096000     19.96160000     14.47730000     -0.01183280      0.03624850      0.00542255       1
H               7.76810000     18.55100000     12.09290000     -0.03118720     -0.01112460      0.07456300       1
O               2.90007000      9.19078000     10.23170000      0.02806050     -0.00746848     -0.01618380       8
H               2.18014000      9.70903000      8.64567000     -0.00969158      0.00007549     -0.00197414       1
H               1.58133000      8.59190000     11.26130000     -0.02374620     -0.00584174      0.01548050       1
O               7.67989000     10.18090000      5.44543000      0.02682390     -0.00086597     -0.02739130       8
H               9.04639000      8.89870000      5.57871000     -0.00752673      0.00867162      0.00894000       1
H               8.61448000     11.06260000      4.08773000     -0.01847250      0.00454401      0.00925505       1
O              14.79850000     15.65460000      9.35510000      0.06758700      0.08633460     -0.06676570       8
H              14.03930000     14.63040000     10.36730000     -0.06804640     -0.08563870      0.09850670       1
H              14.03300000     15.22900000      7.82102000      0.00153713     -0.00064861     -0.03086460       1
O               2.85888000      5.99079000     20.37940000      0.02056550     -0.04452860     -0.01839120       8
H               2.37810000      5.38932000     22.10650000      0.02125170     -0.00487053     -0.03775170       1
H               3.68717000      4.67863000     19.10830000     -0.02932050      0.03425140      0.06377210       1
O              24.53730000      0.86240900     13.22880000      0.01312270      0.15979500      0.14097200       8
H               0.90171500     25.31590000     13.75250000      0.08084470     -0.04501200      0.00921143       1
H              23.87230000      0.02354300     12.08220000     -0.08527180     -0.11681900     -0.15240800       1
O              23.00830000      1.85493000     18.46800000     -0.04101430     -0.04433510     -0.00438084       8
H              23.33460000      3.04799000     19.69360000      0.03336070      0.03259790      0.01232040       1
H              24.18580000      1.51367000     17.16280000      0.00885448      0.01487790     -0.00583177       1
O              24.00650000     14.88830000     23.83890000      0.01423290      0.00219069      0.03290960       8
H               0.47564200     15.64990000     23.23480000     -0.02661060     -0.00653389     -0.01002970       1
H              22.89050000     14.09810000     22.66560000      0.00960937      0.01173010     -0.02091760       1
O              12.48270000     21.95990000     20.70000000     -0.01205640      0.02439760      0.00121833       8
H              11.80540000     23.73380000     20.63630000      0.00577818     -0.03976060      0.00523090       1
H              11.14110000     20.75570000     21.07440000      0.01089830      0.01688710     -0.00077579       1
O               6.16332000     13.66980000      9.73590000     -0.02961880     -0.00310345      0.04513840       8
H               5.84759000     14.30970000     11.54460000      0.00267849     -0.01588420     -0.05033250       1
H               4.77077000     12.42250000      9.43369000      0.03022280      0.02442040      0.01290770       1
O               4.56738000     14.67010000      2.78070000     -0.01259340     -0.05008340     -0.01651380       8
H               4.52606000     14.06260000      1.03256000      0.00725577      0.01811440      0.01061030       1
H               3.91352000     13.05570000      3.47849000      0.00524134      0.02912530      0.01089680       1
O              24.04530000     16.71590000     10.16180000      0.15147100     -0.02465600      0.03521900       8
H              22.85490000     15.54520000     10.44640000     -0.07280300     -0.04673360      0.01236220       1
H               0.70983300     15.21170000     11.46630000     -0.06642680      0.07122290     -0.04836280       1
O               4.28125000     11.87190000     22.51770000      0.04024940      0.06269330      0.03623590       8
H               3.93195000     13.73430000     22.69090000      0.00772629     -0.04214920     -0.01583900       1
H               2.84283000     11.18090000     21.85630000     -0.04721440     -0.02163010     -0.02613350       1
O              16.56760000     23.52010000     17.58270000      0.08205380      0.03266980     -0.03429000       8
H              18.18250000     23.45540000     18.51630000     -0.02047400      0.00216487     -0.02263320       1
H              15.52010000     22.87930000     18.74330000     -0.06186750     -0.03692590      0.05214340       1
O               6.18857000      1.32966000     18.15950000      0.08453580      0.06343250     -0.03754680       8
H               6.84219000      1.42351000     16.35130000     -0.02235390     -0.01068170      0.03732070       1
H               4.78325000      0.42604800     18.46780000     -0.06091040     -0.05439940     -0.00433618       1
O              15.68380000      7.10794000     22.95980000      0.00369307     -0.05002870     -0.00089915       8
H              14.41960000      5.82137000     23.59290000      0.02529140      0.02896510     -0.01904050       1
H              16.99580000      6.08506000     21.93400000     -0.03518450      0.01682990      0.01373000       1
O              19.37650000     17.36610000     11.79120000      0.07404680      0.04015490     -0.01050380       8
H              20.10950000     18.10930000     13.30770000     -0.00500934     -0.00423960     -0.00882755       1
H              17.93680000     16.59470000     12.20570000     -0.07299790     -0.03470200      0.02334350       1
O               9.27614000      3.05402000     14.01960000     -0.00847418     -0.07444540     -0.02271260       8
H               8.69102000      3.55492000     12.42120000     -0.00318836     -0.01090700     -0.02109380       1
H               9.31133000      4.59614000     14.72090000      0.01705400      0.08019830      0.04839800       1
O              10.08740000     17.65530000     24.30240000      0.06706710     -0.06170070      0.02310940       8
H               9.66101000     17.90050000      1.04767000      0.01360540     -0.00783890     -0.04205400       1
H              11.79070000     16.11960000     24.21070000     -0.08824860      0.06762330      0.00951040       1
O              10.47860000      7.77035000     15.72610000     -0.07824130      0.01709780      0.02991850       8
H               8.18747000      7.84837000     16.99540000      0.10530600      0.01594200     -0.05907570       1
H              10.86870000      9.22536000     14.49560000     -0.02881500     -0.02341790      0.03195060       1
O              19.21100000      8.08002000     11.55790000     -0.00379495      0.00437563     -0.04176190       8
H              18.23030000      6.60275000     11.16040000      0.00215433     -0.00505375      0.02038190       1
H              18.93740000      8.85552000      9.90588000      0.01369610      0.00862448      0.01347510       1
O               2.19804000      1.06415000      4.88229000      0.00657845      0.00839986     -0.00540445       8
H               2.49435000      0.45395300      6.62683000     -0.00823661      0.01460140     -0.02355420       1
H               2.09912000      2.88855000      4.51450000     -0.00015167     -0.02507710      0.02247390       1
O              24.13510000      6.47584000     13.78290000      0.10483000      0.01566870      0.03879790       8
H              24.13030000      4.86696000     13.17110000     -0.00953197     -0.05881890     -0.01953950       1
H              22.69570000      7.26907000     13.51540000     -0.09619290      0.04074740     -0.02790570       1
O              11.36200000     11.94940000     11.36880000      0.00439772     -0.01478660     -0.04217320       8
H              12.29440000     11.13360000      9.86587000     -0.03150460      0.01122330      0.04367040       1
H               9.57532000     12.06570000     10.78060000      0.02361660      0.00337165      0.00454432       1
O               7.70782000     24.84990000      2.40688000      0.03375700     -0.05114720      0.02894190       8
H               7.44825000     23.14630000      3.23992000     -0.00451826      0.03660560     -0.02287240       1
H               6.23993000      0.40649500      1.71041000     -0.03820180      0.00096852     -0.00712836       1
O               0.05925400     12.39100000      6.09790000      0.08124280      0.04655690      0.13573100       8
H              24.26930000     12.28390000      4.71647000     -0.06818460     -0.00211672     -0.10376000       1
H              25.14260000     14.16200000      6.86466000     -0.00683798     -0.04249890     -0.02232560       1
O              13.64100000     24.05190000     12.66290000     -0.03338680     -0.00558283      0.00576526       8
H              12.42180000     23.94190000     14.06900000      0.01542370      0.00048824     -0.02480600       1
H              15.02280000     24.86060000     13.40860000      0.02443790      0.00817296      0.01886190       1
O              18.34230000     21.30750000      8.09430000      0.10779700     -0.11747200     -0.11213000       8
H              17.46370000     22.46370000      8.70803000     -0.11348800      0.13328300      0.08581270       1
H              18.38350000     19.81560000      9.03544000      0.00057066     -0.02108910      0.02541130       1
O              20.96370000      0.31080200     23.87070000     -0.06720900      0.00860676      0.07240260       8
H              22.27880000      0.52704300     22.85730000      0.06962710     -0.00352324     -0.06327770       1
H              20.04480000     23.89020000     23.59240000     -0.00374662     -0.01119960     -0.01236400       1
O               9.60704000      2.90027000      5.49024000     -0.24630300      0.10103000     -0.07274690       8
H              10.91990000      2.25000000      5.91673000      0.23956800     -0.10873800      0.08100590       1
H               8.74273000      1.54042000      4.43935000      0.00745034      0.01817220      0.00578345       1
O              12.23860000     11.98270000      0.59787000      0.05132220      0.10944300      0.07313840       8
H              11.83410000     10.60530000     24.88030000     -0.02882450     -0.09496270     -0.06714730       1
H              14.02070000     11.86480000      1.06044000     -0.02162780     -0.00626589     -0.00288816       1
O              19.86140000     12.39190000     15.33350000      0.12946000      0.30620700     -0.05238740       8
H              19.81020000     12.39450000     13.69160000     -0.00867120     -0.01285730     -0.11475300       1
H              19.40790000     11.20150000     16.06640000     -0.12196700     -0.29219200      0.16612600       1
O               7.62979000     16.33770000     18.56030000      0.03862370      0.02045790      0.12190400       8
H               7.48829000     17.19770000     17.01020000      0.00589615      0.02699610     -0.02185900       1
H               8.43431000     17.53200000     20.30290000     -0.04124060     -0.05487220     -0.09456710       1
O              14.69140000     16.38700000      3.99252000      0.00820605      0.02148860      0.02965420       8
H              13.39890000     15.55170000      3.21210000     -0.04492380     -0.03372890     -0.02018210       1
H              15.81360000     16.66150000      2.65197000      0.02954810      0.00795213     -0.00936416       1
O              18.51200000      4.56611000      6.21864000     -0.01585640     -0.02727830      0.02154710       8
H              18.54820000      3.59948000      4.72532000      0.00971530      0.01294550     -0.04437470       1
H              18.38590000      3.00106000      7.17828000      0.01704120      0.02154540      0.02531960       1
O              16.38760000     10.41150000      4.63967000      0.05569540     -0.05751740     -0.05689640       8
H              17.23140000      8.65390000      4.55645000     -0.03105780      0.03415210      0.02669910       1
H              17.21990000     10.68430000      2.94583000     -0.01893190      0.02030870      0.03006730       1
O              17.76470000     20.61750000     23.37420000     -0.02765670      0.04536460     -0.05263820       8
H              16.06650000     21.35320000     23.55130000      0.01692800     -0.01316310     -0.00280743       1
H              18.16420000     19.76160000     -0.29211000      0.01344110     -0.02990460      0.05898570       1
O              15.62220000      6.08057000     14.19950000     -0.06609540     -0.00402537      0.02237780       8
H              14.67040000      6.41427000     15.77450000      0.02482110      0.00127362     -0.00477640       1
H              13.95720000      5.99237000     13.33880000      0.02741770     -0.00438777     -0.01189150       1
O               2.24842000     13.87590000     15.48580000     -0.03739340     -0.03868330     -0.00472487       8
H               3.89383000     13.92870000     16.36260000     -0.03171320     -0.01359910     -0.00113266       1
H               0.86506000     12.40180000     15.94530000      0.07061510      0.05989600      0.00225446       1
O              11.41440000     19.97690000      9.76772000     -0.08061110      0.01709330      0.02659270       8
H              11.83400000     21.19030000      8.61508000      0.00254599      0.05120600     -0.02511390       1
H              12.71250000     18.93640000      9.51459000      0.07228990     -0.07156940      0.00183711       1
O               2.57866000     22.07260000     18.50710000      0.34234300      0.01054460     -0.02578210       8
H               1.12348000     22.29460000     18.48000000     -0.35035800      0.04169610     -0.00488939       1
H               3.01934000     20.66320000     19.37890000      0.00765141     -0.04977860      0.03225510       1
O              18.11870000      3.93247000     19.43270000      0.02977090     -0.01371930      0.06351670       8
H              19.74860000      3.02113000     19.28070000     -0.03202320      0.01470400     -0.02163790       1
H              17.37370000      4.58155000     17.99880000     -0.00066090      0.00247129     -0.04464610       1
O               5.56383000      3.91827000      9.20304000     -0.24494000     -0.11034900      0.03142110       8
H               4.75446000      5.39762000      9.72557000     -0.04212930      0.03371410      0.01504900       1
H               7.02943000      4.13501000      8.90385000      0.29501400      0.04354320     -0.06793100       1
O               9.33466000      1.17901000     22.46710000      0.04800920      0.06941690      0.01461680       8
H               9.00905000     24.77160000     23.16390000     -0.01868550     -0.06787580      0.03296100       1
H               8.45141000      1.40051000     20.99230000     -0.03484250      0.00019170     -0.05031780       1
O               9.41443000      9.96329000     21.83300000      0.09850830     -0.12754000     -0.01485560       8
H               9.59443000      7.88926000     22.55140000      0.00852557      0.08833170     -0.04008580       1
H               8.01720000     10.04560000     22.72400000     -0.10914500      0.03446730      0.05167860       1
O               6.71654000     18.65740000      4.99568000      0.00149912      0.03825650      0.02074430       8
H               6.02484000     17.07430000      4.41499000      0.02224930     -0.02052430     -0.00273333       1
H               8.40510000     18.92740000      5.85765000     -0.04320280     -0.02458090     -0.01354010       1
O              12.10020000      7.45188000      9.03542000     -0.13742000      0.08375120      0.05050400       8
H              12.97430000      6.45320000      8.10986000      0.08734740     -0.09729730     -0.09288310       1
H               9.26095000      7.02946000      6.88472000      0.05581370     -0.00834585      0.04484400       1
O              21.67620000     20.23320000     17.09110000     -0.01659240     -0.03185900      0.01152170       8
H              20.91080000     19.03070000     18.45020000      0.02840040      0.04560020     -0.02635550       1
H              22.18040000     21.94940000     17.44620000     -0.01296460     -0.01636940      0.01423090       1
O               2.54343000      6.24257000      1.00904000      0.02531130     -0.05322070      0.01146010       8
H               4.35785000      6.33606000      1.36826000     -0.02812570      0.01922710     -0.01057550       1
H               1.68764000      7.72672000      0.58367100      0.00352720      0.03275910      0.00280836       1
O              20.25650000     16.12580000     20.44060000     -0.02473190      0.00910845      0.00867562       8
H              18.91060000     15.27050000     19.57110000      0.00864292     -0.01136170     -0.01416640       1
H              19.20450000     16.85810000     21.75590000      0.01479750      0.00486265     -0.00176003       1
O              11.65500000     20.85040000      3.59331000      0.00564843      0.04466520      0.03834110       8
H              12.50090000     21.73100000      5.03367000     -0.01552170      0.00129361     -0.03137990       1
H              12.34590000     19.27800000      3.99962000      0.01765910     -0.03858420     -0.00470550       1
O              14.74750000      0.57311600      7.84447000      0.03294180      0.01295830     -0.15311900       8
H              14.36090000      0.44184800      9.44815000     -0.02433680      0.00661648      0.12201500       1
H              15.64250000      2.04367000      7.12912000     -0.02671790     -0.01766150      0.02996780       1
O               1.73079000     21.10920000      6.72661000      0.03010800     -0.06517170      0.00867443       8
H               3.86051000     18.80380000      6.41040000     -0.03442420      0.07345550      0.00586467       1
H               0.43818300     20.31580000      7.83383000      0.02120850      0.00258176     -0.01668890       1
O              21.97780000      0.10828200      7.90785000     -0.09763960      0.04820880      0.00572160       8
H              20.48330000     24.60130000      6.90571000      0.04476040     -0.00322905      0.02448590       1
H              23.35900000     -0.76997000      7.48334000      0.06091870     -0.04915970     -0.02934080       1
O              23.14740000     10.20030000      2.12909000     -0.00882505     -0.01833510     -0.11624800       8
H              23.04050000     10.03880000     -0.05498000      0.00429442      0.01497250      0.10533400       1
H              22.13950000      8.73696000      2.53164000     -0.00095050     -0.00218035      0.00261924       1
O               4.41376000     23.06880000     11.39800000     -0.02535680      0.01430340     -0.04577490       8
H               5.13543000      1.91906000      8.88743000     -0.01165270      0.02259040      0.03058180       1
H               3.26925000     22.32560000     10.01870000      0.03282370      0.01566300      0.03400010       1
O              19.93000000     17.08830000      2.43566000     -0.21719100     -0.12829800     -0.14767300       8
H              21.09080000     16.13810000      1.41360000     -0.01490100     -0.02573650     -0.03023960       1
H              21.14920000     17.67540000      3.08376000      0.23470000      0.15563700      0.17064000       1
O               0.45483100      9.57311000     18.28700000     -0.16484600      0.01145220      0.01814520       8
H              23.22900000      8.93628000     17.30250000      0.11464300      0.02738580      0.03906920       1
H               1.61580000      9.22390000     17.09070000      0.04119810     -0.02977980     -0.05609690       1
