192
TotEnergy=-1102.23743000 cutoff=-1.00000000 nneightol=1.20000000 pbc="T T T" Lattice="22.86705000       0.00000000       0.00000000      -0.00000100      22.86705000       0.00000000      -0.00000100      -0.00000100      22.86705000" Properties=species:S:1:pos:R:3:force:R:3:Z:I:1
O              13.48740000     20.01410000      9.93215000      0.05195240     -0.03767720      0.04787160       8
H              15.04340000     18.69500000     11.04810000     -0.05256590      0.04820150     -0.03732900       1
H              12.96410000     21.37170000     11.06910000      0.01608650     -0.01467980     -0.01424480       1
O              19.00740000      4.55069000     -0.08682400     -0.01453480     -0.02791020      0.02911670       8
H              18.70930000      3.20141000      1.31363000      0.01480690      0.03251930     -0.05006990       1
H              19.29180000      3.76425000     21.12240000     -0.00138295      0.00203159      0.02419360       1
O              15.73110000     22.37840000     21.35560000     -0.02791730      0.05440860      0.07628440       8
H              13.83890000     -0.21364400     21.26600000      0.02909740     -0.00439881      0.00660932       1
H              16.12570000      0.51539000      0.25247800     -0.01183710     -0.04242990     -0.07707990       1
O               6.40678000      4.71697000      1.56167000      0.05527600     -0.03112950      0.04615330       8
H               7.61557000      3.45391000      2.73716000     -0.03915240      0.03729440     -0.03666760       1
H               7.16161000      6.17919000      2.37886000     -0.01382120     -0.00120823     -0.00823013       1
O              18.77830000     14.62630000      4.47364000      0.00787769      0.01731900     -0.02140340       8
H              17.28010000     14.01730000      5.26307000     -0.02398240     -0.00440362      0.00731054       1
H              18.44110000     14.94240000      2.68097000     -0.00896244     -0.02057230      0.00793864       1
O              20.68620000     20.08620000     19.52790000      0.06879920     -0.00101998      0.05116890       8
H              22.39140000     19.12360000     19.51010000     -0.05399120      0.03204810      0.00563260       1
H              20.80870000     20.97110000     21.37570000     -0.00862748     -0.01773620     -0.04868260       1
O              21.92760000      9.41915000     13.97250000      0.04846920      0.05365250     -0.01823110       8
H               0.69885300      9.82127000     12.81820000     -0.06882680     -0.01254130      0.04579790       1
H              21.45570000     11.00840000     14.97950000      0.02781020     -0.04587140     -0.03167420       1
O              14.13470000      6.53411000      5.26506000     -0.00866358      0.00403828     -0.01373540       8
H              15.09030000      4.92914000      5.06606000      0.00060065      0.01005960      0.00584252       1
H              13.87220000      7.27039000      3.59322000      0.00907547     -0.00400284      0.01022940       1
O              16.49010000      9.28902000      8.99534000     -0.02420540      0.04964010     -0.12914300       8
H              16.91560000      8.40399000     10.36390000      0.01378210     -0.05707020      0.07815500       1
H              16.01500000      8.27327000      7.43636000     -0.00068215      0.00743547      0.03562480       1
O               0.95136600     20.92050000      7.05606000     -0.00463987     -0.03659190      0.05884010       8
H               0.73835100     20.52970000      9.09928000      0.00245679      0.01694570     -0.07252280       1
H              22.31990000     19.98890000      6.10135000      0.03187950      0.01814410      0.03099400       1
O               7.02635000     16.08460000     10.70960000     -0.04691690      0.02355370     -0.05034600       8
H               7.24425000     17.39060000      9.12915000     -0.01267070     -0.05008670      0.07125670       1
H               4.92453000     15.67260000     10.86190000      0.08175220      0.01179470     -0.01970820       1
O               5.34869000     10.28400000      9.92823000      0.21514400     -0.33962200     -0.04713700       8
H               6.22274000     10.02480000      8.31665000     -0.01560920      0.01251010      0.01473030       1
H               4.54975000     11.49810000     10.00490000     -0.20414100      0.32958000      0.01726650       1
O              13.28530000     21.18310000      5.10174000     -0.02937140      0.02725710     -0.12137900       8
H              12.19320000     20.03970000      4.11628000      0.01612280      0.01634670      0.01840560       1
H              13.56530000     20.64000000      6.67352000      0.00614796     -0.03777520      0.09720720       1
O              10.59610000      1.39713000     22.07820000      0.02845280     -0.04392530      0.13030700       8
H               9.71224000      0.59443800      1.11684000      0.04425750      0.04118020     -0.09315390       1
H               9.27842000      1.50742000     20.98030000     -0.05721030      0.00688296     -0.04612320       1
O               9.72730000      2.88244000      4.88025000      0.04717840     -0.03532850     -0.00667635       8
H              10.73860000      4.43534000      4.94450000     -0.00742029     -0.01291440      0.00255212       1
H              11.04710000      1.44764000      4.99630000     -0.03625540      0.03579950      0.00267879       1
O              12.53170000      5.72514000     15.60740000      0.04458510     -0.01837530      0.05224610       8
H              11.79670000      6.16128000     14.07450000     -0.04143930      0.03535380     -0.01232230       1
H              12.12650000      6.33522000     17.38750000     -0.00923392     -0.00397775     -0.03881730       1
O              17.23700000     16.99560000     11.83510000      0.03266870      0.01994100     -0.00412450       8
H              18.94690000     17.85610000     11.92160000     -0.03412970     -0.02614950      0.00336432       1
H              16.86170000     16.43460000     13.54640000     -0.00677439      0.00788757      0.00439039       1
O               7.83605000      7.06729000     12.77630000     -0.05613500     -0.02404910     -0.04481710       8
H               6.05502000      5.61195000     13.46500000      0.06067390      0.06768980     -0.02381050       1
H               7.40845000      8.19795000     11.03220000      0.00717197     -0.04719460      0.09044630       1
O              19.48410000     19.09880000      5.92919000     -0.05907960      0.00575172      0.06506260       8
H              18.50420000     19.60770000      7.80094000      0.04096600     -0.02722180     -0.09657310       1
H              18.80010000     17.35920000      5.21439000      0.01910850      0.03040160      0.03194220       1
O               4.72010000     21.44970000     21.20220000      0.00382901     -0.02933140     -0.01326400       8
H               6.26880000     -0.30841100     21.13300000     -0.04198960     -0.02222220     -0.01091030       1
H               3.74631000     21.82070000      0.09099700      0.00475561      0.01013380      0.00701776       1
O              12.95760000     12.15410000     15.58700000     -0.01043620      0.02696960     -0.00220160       8
H              12.12880000     11.60300000     14.04720000      0.00457570     -0.00298093     -0.00482151       1
H              12.63670000     14.00650000     15.60790000      0.01414430     -0.02664370      0.00383942       1
O               8.62709000     11.39610000      1.97180000      0.01760600      0.00378979      0.01388930       8
H              10.39420000     11.98490000      1.86516000     -0.02110190      0.00523056      0.00431052       1
H               7.59441000     12.54320000      2.99434000      0.00631464     -0.00269005     -0.01512800       1
O               3.85122000      4.91384000      7.61769000     -0.01059070      0.01154310      0.02885810       8
H               5.34830000      5.80174000      7.10564000      0.00406550     -0.00298761     -0.00658445       1
H               3.30013000      5.93824000      9.06496000      0.00620699     -0.01101890     -0.01547210       1
O               0.37146300     21.92540000     12.17370000     -0.02106890      0.00018756      0.00605742       8
H              21.84810000      0.33604200     12.28000000      0.02905970     -0.01535670      0.00982507       1
H               1.95242000     22.11510000     13.35710000     -0.01700280      0.00558644     -0.02694330       1
O              17.37950000     10.04990000     17.90840000      0.01381600     -0.00122017      0.02897320       8
H              16.72030000     10.17660000     19.62760000      0.01279380     -0.00558672     -0.01881130       1
H              16.29770000     11.11790000     16.98120000     -0.02511920      0.01161810     -0.01639560       1
O               4.45506000     22.30290000     14.51710000     -0.05604900      0.01642160      0.05575820       8
H             -21.08590000    -22.91480000     16.56040000      0.06120780     -0.01236300     -0.03485470       1
H               5.15620000     20.67360000     15.25860000     -0.00284267     -0.01226770     -0.00431489       1
O              -0.20048500      5.84927000     17.80620000      0.01580320      0.01670230     -0.00166137       8
H              22.16680000      6.31127000     16.04940000      0.00968098      0.01092420      0.03765820       1
H               0.36951700      7.32499000     18.92610000     -0.02131660     -0.03486270     -0.03152990       1
O              12.39990000      1.56665000     12.96430000      0.03469870     -0.04693170      0.02360060       8
H              12.27460000      0.22423900     14.16390000      0.00032820      0.00017542      0.01916020       1
H              12.64930000      3.11151000     13.91350000      0.00010662      0.00436635      0.01433290       1
O              18.54930000      2.67862000     12.38530000     -0.02334410     -0.01586270     -0.00479789       8
H              17.29970000      1.26558000     12.46460000      0.01902940      0.03328270      0.00886490       1
H              17.64690000      4.24250000     12.94670000      0.01091250     -0.01860420     -0.00807116       1
O               1.80391000      8.14054000     22.04590000      0.08435360      0.15277100     -0.34991300       8
H               1.62384000      7.56083000      0.51732200     -0.04362490     -0.15102700      0.33509400       1
H               3.66316000      7.98613000     21.59170000     -0.03438680      0.00529143      0.01052930       1
O              14.37190000     17.28440000     16.06980000      0.01592430     -0.01636350      0.00228007       8
H              14.80060000     17.83340000     17.82330000     -0.00979191     -0.00721592     -0.01989820       1
H              12.83350000     17.91160000     15.27850000     -0.00177478      0.01310950      0.01364670       1
O              21.73680000      8.18351000      8.49263000     -0.05517340     -0.00345125     -0.03284550       8
H              19.94230000      9.03978000      8.10460000      0.05775220     -0.03282180      0.01894610       1
H              21.67200000      6.53390000      7.58072000     -0.00784009      0.02920500      0.02302270       1
O              10.85080000     11.56740000     10.46800000      0.01495560      0.02914840     -0.01465610       8
H              12.53410000     11.59010000      9.60570000     -0.03449890      0.00633487      0.01805270       1
H              10.13980000     13.33200000     10.25380000      0.01121320     -0.03738440      0.00340666       1
O               6.29960000     20.32080000      8.29826000     -0.07932490      0.06624730     -0.01040670       8
H               6.81856000     23.22770000     10.04410000      0.00678953     -0.02886860     -0.03595720       1
H               4.34049000     19.86280000      8.24548000      0.05602970      0.01185300      0.01426270       1
O              17.80270000     13.11300000     22.64810000      0.02344540     -0.01786710      0.02535480       8
H              17.13300000     14.33210000     21.58070000     -0.01770960      0.02639440     -0.02903140       1
H              16.78100000     11.59950000     -0.02962600     -0.00099134     -0.00169371      0.00696736       1
O               8.47913000      7.89535000      5.94238000      0.01899260      0.01328270      0.01932230       8
H               9.92660000      7.83496000      7.17961000     -0.02817370      0.00827570     -0.02903790       1
H               8.56206000      9.43759000      4.88718000      0.01076740     -0.01904310      0.01208900       1
O               4.10831000     13.38750000      2.91643000      0.15359500     -0.03990120     -0.14914000       8
H               3.23060000     12.45820000      1.57295000      0.01201310      0.01202370      0.00618834       1
H               2.92690000     13.61860000      3.92290000     -0.15952800      0.03648160      0.14772400       1
O              15.06030000     13.96610000      8.27437000      0.01447680      0.17322100      0.03519960       8
H              16.33400000     14.81940000      9.71817000     -0.05458080     -0.02118390     -0.05577110       1
H              15.60700000     12.44200000      8.44811000      0.04613110     -0.14815700      0.01135180       1
O              17.16920000      7.60138000     13.37990000     -0.00118861     -0.01901840     -0.01448890       8
H              15.94440000      7.81300000     14.70780000      0.01284940     -0.00184317      0.00578162       1
H              18.93770000      7.93906000     13.72060000     -0.00885381      0.00849171      0.01217980       1
O               0.06880400     12.70520000      6.15951000     -0.01648690     -0.03183860     -0.02896810       8
H              21.21370000     13.05190000      5.37894000      0.03494020      0.00012037      0.01776450       1
H               0.41217200     10.90430000      5.64226000     -0.00734331      0.03390360      0.02149210       1
O              21.50390000     13.88340000     17.19130000      0.09513260      0.06507540      0.02420410       8
H              21.82580000     14.63410000     18.88640000     -0.01273660     -0.02451450     -0.01495230       1
H              20.04700000     13.06710000     17.32100000     -0.09403600     -0.04872170      0.01680840       1
O              16.08220000     -0.21333800     15.96580000     -0.02944270     -0.03029600      0.03998380       8
H              15.97500000     -0.22283700     17.90800000      0.00946077      0.00108901     -0.04886800       1
H              14.78180000     21.37780000     15.44930000      0.03243310      0.02076340      0.01620240       1
O              20.32290000     -0.41634300      1.30539000      0.03878890      0.01075090      0.01474110       8
H              22.04150000      0.35697600      1.85664000     -0.02679000     -0.01843950     -0.00823172       1
H              19.82220000     21.34280000      2.68126000      0.00404250      0.00646430     -0.00064869       1
O               9.90584000      3.02178000     10.23770000     -0.14381400     -0.07957560      0.04229840       8
H               8.17952000      2.76914000     11.58060000      0.05946530      0.04216140     -0.05729310       1
H              10.42930000      1.31997000     11.39040000      0.02482240      0.06426200     -0.03626210       1
O              16.55520000      2.37852000      5.54157000      0.01044950      0.00889534     -0.00409748       8
H              18.14620000      1.81416000      6.40048000     -0.01671200     -0.00260507     -0.02014070       1
H              15.35650000      1.12448000      5.02674000      0.00842785     -0.01738130      0.00874806       1
O               6.29523000     17.74610000     15.72290000      0.01883750      0.03430770      0.00962766       8
H               1.36649000     16.84710000     17.45260000      0.07932480      0.02844570      0.07035920       1
H               6.95936000     16.84510000     14.28200000     -0.00627736      0.00385276     -0.00372715       1
O               7.47655000     17.95010000      4.17085000      0.01250650     -0.02118770     -0.03491290       8
H               6.29469000     16.60030000      3.63381000      0.00947124      0.02698100      0.02388730       1
H               7.27247000     18.84100000      5.76621000     -0.01480230     -0.00907935     -0.00533693       1
O              22.21510000     16.95780000     13.58730000      0.04416060      0.11059100     -0.24988700       8
H              22.53130000     18.74040000     13.41930000      0.00304805      0.01194600      0.00784630       1
H              21.96950000     16.32220000     14.95100000     -0.05656630     -0.10268100      0.24330000       1
O               7.18630000      8.65479000     20.96190000     -0.00506252      0.01189810     -0.00708325       8
H               7.50485000      9.60257000     22.57470000      0.00110243      0.00190160     -0.02698970       1
H               7.55630000      9.67467000     19.40950000     -0.01200070     -0.00103714      0.02003230       1
O              11.56720000      6.55829000     20.77690000     -0.00341876     -0.06976350     -0.00225289       8
H              11.35310000      4.55334000     21.15440000      0.00783756      0.07007180     -0.00470816       1
H               9.82074000      7.21646000     20.85940000      0.00481873     -0.00451024      0.00150514       1
O               0.63548200      5.23122000      3.55451000     -0.01804950      0.01564810     -0.02154710       8
H              22.01860000      5.63650000      2.40250000      0.02357830     -0.01261870      0.04990090       1
H               0.57113500      5.38917000      5.42494000     -0.00542121     -0.00441130     -0.04374930       1
O              20.96250000      1.94076000      7.64236000      0.03335800     -0.00700389     -0.03216310       8
H              22.47800000      0.87932600      8.00614000     -0.02218080      0.01136250     -0.01662540       1
H              20.05490000      2.18798000      9.10447000     -0.01959810      0.01369850      0.05412140       1
O               7.26776000     10.74910000     15.85880000     -0.01090640     -0.00129787      0.03401680       8
H               8.67988000     11.82960000     15.55400000      0.00188454     -0.00647377     -0.00216615       1
H               7.72775000      8.98184000     15.53090000      0.00261082      0.01621060     -0.02359590       1
O              10.65930000     20.13710000     15.03850000     -0.07478470      0.00407921     -0.00673044       8
H               9.59095000     20.40950000     13.52420000      0.02853140     -0.00499634      0.00347929       1
H               8.72384000     19.51350000     15.81150000      0.02162290     -0.02064280      0.00262043       1
O               2.70600000     17.39370000     19.25170000     -0.05797280     -0.00200418     -0.06858270       8
H               2.72666000     15.97600000     20.36090000      0.00176472     -0.01076420      0.01268720       1
H               3.89530000     19.16210000     19.82920000      0.00367713      0.01443660      0.00721666       1
O               0.09039900     13.44800000     22.55940000     -0.06043160     -0.08221770     -0.02817150       8
H              -0.24210900     11.48900000     21.45800000      0.02066480      0.08293970      0.05553410       1
H              21.28370000     13.47920000      0.73881000      0.04918180     -0.00293477     -0.03901470       1
O              15.55910000      8.61914000      0.39944000     -0.02014380     -0.00172854     -0.03663400       8
H              14.22540000      8.73762000     21.87650000      0.01959220     -0.02070760      0.03657410       1
H              16.42360000      6.97554000      0.08486900     -0.00161675      0.01752390      0.00030832       1
O               4.63335000      4.66254000     15.53940000     -0.03283370     -0.00899091      0.01978920       8
H               3.29101000      5.42716000     16.67010000      0.00854995     -0.00798161     -0.02592820       1
H               4.21029000      2.86301000     15.40620000      0.00183646      0.00565480     -0.00900273       1
O              13.00720000     14.82780000      2.20181000      0.03946400      0.01510910     -0.02803760       8
H              14.00060000     15.70920000      0.77150200     -0.04053700     -0.02561010      0.04600310       1
H              12.67190000     16.14600000      3.41918000     -0.00026601     -0.00865332     -0.00662361       1
O               2.90665000      0.26080400      2.34557000      0.03710880     -0.00289752      0.00009833       8
H               4.35975000     21.89750000      6.08870000     -0.00049863     -0.00680977     -0.00851901       1
H               4.18008000      1.60488000      1.94398000     -0.03602830     -0.01330010      0.01766920       1
O               2.34840000     14.53520000     10.74270000     -0.00437172     -0.02979860     -0.03577210       8
H               1.65746000     15.04550000     12.28570000     -0.01901830      0.01072460      0.02133940       1
H               1.02998000     13.62500000      9.76157000      0.01818700      0.01655820      0.00298371       1
O              16.55560000     17.62510000     20.38580000     -0.08467420     -0.02991270      0.06596040       8
H              15.94510000     18.68900000     21.86460000     -0.00024329     -0.01882490     -0.03532590       1
H              17.92710000     18.58640000     20.06660000      0.07989500      0.04100090     -0.03084510       1
O               6.62349000      2.86454000     19.68180000     -0.00158628      0.03990020      0.01542230       8
H               5.78289000      3.43311000     18.11540000      0.02145300     -0.00319430      0.02126810       1
H               6.62822000      4.35031000     20.92860000     -0.00416925     -0.03626060     -0.02235710       1
O              11.46190000     18.84250000      0.04876000     -0.06613660      0.01330710     -0.07642150       8
H               9.60837000     18.54780000      0.72500200      0.05389130      0.00713717     -0.02618800       1
H              11.06230000     19.27700000     19.84620000      0.00539410     -0.01344090      0.09764240       1
