192
TotEnergy=-1103.45891000 cutoff=-1.00000000 nneightol=1.20000000 pbc="T T T" Lattice="24.41789000       0.00000000       0.00000000      -0.00000100      24.41789000       0.00000000      -0.00000100      -0.00000100      24.41789000" Properties=species:S:1:pos:R:3:force:R:3:Z:I:1
O              22.63320000     -4.27955000    -29.16960000      0.05734220     -0.04803950     -0.04070080       8
H              21.02580000     -4.04488000    -30.06600000      0.00141293     -0.00917520      0.00171818       1
H              23.61690000     -5.55290000    -30.46570000     -0.04199170      0.05085020      0.05402780       1
O              47.45930000     44.35370000      0.75236600      0.00942797      0.00958324     -0.03072350       8
H              48.30280000     45.99920000      0.94833600     -0.01053290     -0.01019950      0.00409151       1
H              47.46820000     44.12090000     -1.12495000     -0.00398381      0.00363260      0.01972410       1
O              11.03380000      6.23729000     14.64560000     -0.03857700     -0.02285240     -0.02141190       8
H              12.12510000      5.55147000     15.94480000     -0.00170934     -0.01027840     -0.00209246       1
H              10.14930000      4.81819000     13.58970000      0.04126660      0.03283240      0.02941950       1
O              -5.96277000    -10.10640000     -3.19915000      0.04213220      0.03904350      0.04725140       8
H              -4.21018000    -10.77650000     -3.20731000     -0.01388780      0.00218476     -0.01784130       1
H              -5.67242000     -8.33798000     -2.42854000     -0.01853190     -0.03613360     -0.01642360       1
O               4.57086000     32.41080000     19.91370000     -0.02929950     -0.02994920      0.03159950       8
H               5.56072000     32.60260000     21.47610000      0.01686680      0.01621540     -0.04116480       1
H               4.88700000     33.07740000     18.27230000      0.02534100      0.01605740     -0.00044440       1
O              -5.20814000     11.08690000      6.57680000      0.03288160      0.03955060     -0.07244280       8
H              -5.63645000     10.59920000      8.10356000     -0.02317670     -0.03269780      0.10952900       1
H              -6.05990000      9.90543000      5.50291000     -0.01009940     -0.00325471     -0.02477740       1
O              45.08120000     26.91590000     11.94570000     -0.01691900      0.02343700     -0.00607596       8
H              46.87180000     26.73900000     12.12990000      0.00736592     -0.01748370      0.00444155       1
H              44.06300000     25.44970000     11.52630000      0.00900213     -0.01448810      0.00664075       1
O              -2.19841000    -30.46300000      7.73350000     -0.00789941      0.00962084      0.00499430       8
H              -0.77778200    -31.30210000      6.95740000      0.00344785      0.00114793     -0.00678589       1
H              -3.62926000    -30.92180000      6.68575000     -0.00554614     -0.01086730      0.00518061       1
O              31.69570000    -33.74680000     19.38910000      0.01357330      0.06973990     -0.07866200       8
H              30.27530000    -34.08790000     18.37010000     -0.01597010     -0.00949202     -0.00185838       1
H              31.76770000    -34.75210000     20.72370000     -0.00084481     -0.06643010      0.07742070       1
O               8.79345000    -26.47860000    -25.30660000      0.00893025     -0.01552220      0.01061650       8
H              10.56310000    -26.53520000    -26.06380000     -0.03625230     -0.00855188      0.02920980       1
H               8.39510000    -27.80620000    -23.91260000      0.03230290      0.02383470     -0.03552410       1
O             -10.85680000      0.25618700      7.97756000      0.01999860      0.02799250     -0.03641510       8
H             -10.26400000      1.32753000      6.49772000     -0.01848070     -0.01835040      0.03347000       1
H             -12.06050000      1.27513000      8.99450000      0.00827645     -0.00518719     -0.00040794       1
O             -10.42140000     28.83540000     52.86260000      0.01318870     -0.04344750     -0.07373370       8
H             -12.24160000     28.55830000     52.63680000     -0.00108598      0.00786479      0.01930660       1
H              -9.96817000     27.90240000     51.11490000     -0.00442344      0.03314780      0.05656280       1
O              14.40160000    -30.63390000    -15.14270000     -0.00651844     -0.03863290     -0.00520903       8
H              15.61630000    -31.64800000    -16.20660000     -0.00955808      0.01686160      0.01046030       1
H              13.35660000    -32.03320000    -14.41630000      0.01468600      0.02072740     -0.00615470       1
O              29.80360000     13.58650000     36.98350000     -0.05674780      0.01450150      0.06294010       8
H              28.33540000     14.32800000     38.35350000      0.05652710     -0.00553203     -0.05242350       1
H              28.70260000     12.22080000     36.33960000      0.01026860      0.01036270     -0.01402100       1
O               0.44640400      0.79003500      2.21831000     -0.03962010      0.00152756      0.00101313       8
H              -0.28970900      0.61985500      3.88628000      0.00423909     -0.00888835      0.00075320       1
H               2.20169000      0.62937000      2.37522000      0.03115350      0.00232948      0.00284723       1
O             -31.43660000     23.14170000     35.50360000     -0.00285437     -0.06575230     -0.03234610       8
H             -32.80670000     23.70650000     34.26110000      0.01415310     -0.01231490      0.01400980       1
H             -31.06770000     21.20580000     35.09590000     -0.01623520      0.07225220      0.00846774       1
O             -34.20360000     12.25220000     23.81470000     -0.00786579     -0.02473720     -0.02320040       8
H             -34.94270000     11.59850000     22.15780000     -0.00154113      0.00913949      0.02317350       1
H             -32.58690000     12.72960000     23.12610000      0.01142350      0.01460060     -0.00128317       1
O             -18.88320000     63.35830000    -21.12990000      0.02042960     -0.00627287      0.04861820       8
H             -18.25130000     62.40260000    -19.51510000     -0.01232960      0.02908560     -0.03766260       1
H             -19.75300000     62.04260000    -22.00510000     -0.00287433     -0.01276350     -0.00997840       1
O              67.63740000     19.42270000     41.39790000     -0.01700700     -0.02978110      0.00725908       8
H              66.47610000     20.75680000     41.02920000     -0.01262440     -0.00094347     -0.00558610       1
H              66.59840000     17.79250000     41.61800000      0.01762570      0.02510870     -0.01292990       1
O              57.92890000    -20.93970000      4.32398000     -0.03170990      0.00187237     -0.09714770       8
H              57.03650000    -21.46510000      5.76098000     -0.01958040     -0.00446304      0.02579280       1
H              56.61330000    -21.25920000      2.66590000      0.03882690      0.00167349      0.06797280       1
O              30.42610000     18.52510000    -13.60700000      0.06399340     -0.05584860     -0.04893540       8
H              31.55460000     19.11420000    -15.09860000     -0.02318590     -0.00760707      0.03997990       1
H              30.98060000     16.49250000    -13.58960000     -0.03692940      0.07261500      0.01056220       1
O             -18.24440000      9.00901000     63.97330000      0.05439860     -0.00625843      0.00991538       8
H             -17.42780000     10.57280000     63.44710000     -0.02295410      0.00519931     -0.00663261       1
H             -16.59800000      8.15348000     64.41190000     -0.02468310     -0.00323611     -0.00517351       1
O               5.41650000      1.59977000      1.10098000      0.02709180      0.01721910     -0.08903850       8
H               4.67675000      2.59321000     -0.51418600      0.01753480     -0.03260150      0.05476890       1
H               6.86441000      0.59235600      0.17775800     -0.03755880      0.01476400      0.02591990       1
O              45.05680000      4.06628000     25.23020000      0.07505490     -0.02777570      0.05877610       8
H              44.76930000      5.73911000     25.74100000     -0.01916270      0.03002780      0.00452740       1
H              46.59090000      3.68540000     26.61910000     -0.05962110      0.00119007     -0.06786960       1
O              -0.28372000     60.44370000     29.81840000      0.10085200      0.02873770     -0.01605640       8
H              -1.90756000     60.23530000     30.09920000     -0.11714200     -0.04266450      0.02757720       1
H              -0.46508500     62.23690000     29.51180000      0.02475680      0.01049150     -0.01095730       1
O              11.60840000     37.79890000     10.57330000     -0.04649840     -0.00277831     -0.00937712       8
H               9.98828000     37.12250000      9.78766000      0.03578510      0.01851840      0.00728025       1
H              12.69290000     36.37260000     10.52070000      0.01749570     -0.01484080      0.00334957       1
O             -17.35080000     20.66000000     19.01110000      0.02477920      0.12313800      0.00881734       8
H             -17.86580000     19.08270000     18.83140000     -0.02572380     -0.09717670      0.00266849       1
H             -17.08860000     21.25160000     20.77270000      0.00112175     -0.01813870     -0.01296550       1
O              32.59380000     33.05840000     52.22320000     -0.06308770     -0.00803486     -0.03111430       8
H              32.76070000     31.20590000     52.57310000     -0.00031265      0.02380730     -0.00363118       1
H              30.75540000     33.32070000     51.26580000      0.05607170     -0.01307090      0.04456060       1
O              12.87340000     34.79670000     19.43290000      0.01601240     -0.03674540      0.03809200       8
H              12.37740000     35.66380000     17.91430000      0.00639766     -0.00360694     -0.01549030       1
H              13.82370000     33.15120000     19.34240000     -0.01774890      0.02679010     -0.01997490       1
O               2.36446000    -25.56060000     17.98290000      0.11021000      0.03968930     -0.02967850       8
H               1.33118000    -26.59860000     18.84690000     -0.05005110     -0.05265560      0.03827970       1
H               4.28120000    -26.20010000     18.26980000     -0.06331540      0.01164160     -0.00944252       1
O               0.57384100     16.44860000      3.97761000      0.00936432      0.01364480     -0.03045530       8
H               2.34536000     16.19380000      3.46714000     -0.00900159     -0.00319472      0.01262410       1
H              -0.14228900     17.47210000      2.54085000      0.00468746     -0.00690645      0.02252170       1
O               1.15416000      1.07057000     13.16710000     -0.02718710      0.09045310     -0.00116321       8
H               1.80810000      0.26643300     11.80120000      0.02785970     -0.05075460     -0.04647730       1
H               1.08604000      0.19883700     14.65520000      0.00642015     -0.04091240      0.04408910       1
O             -33.76810000     53.78900000    -30.34860000     -0.12400100     -0.04451670      0.13436100       8
H             -32.31070000     54.14620000    -31.05410000      0.11508800      0.01859330     -0.05078930       1
H             -33.55700000     52.98670000    -28.38040000     -0.00219642      0.03250690     -0.07905130       1
O               6.11996000     51.54990000    -15.86510000     -0.00632583      0.03513780      0.03804210       8
H               5.23577000     52.69860000    -14.47640000      0.01487580     -0.03116220     -0.04494900       1
H               5.15344000     50.05280000    -16.24190000     -0.01221470     -0.00486743      0.01099580       1
O             -34.56750000     40.63900000      2.41806000     -0.04769560     -0.01522660      0.01602870       8
H             -34.93180000     39.01010000      1.40222000      0.00308716      0.03176680      0.01810740       1
H             -36.16780000     41.20020000      3.38514000      0.03922290     -0.01732960     -0.03657680       1
O              20.10640000     35.28030000     15.81710000     -0.03835940     -0.02835810     -0.04422900       8
H              18.75590000     36.62300000     15.45480000      0.02468660     -0.03810780      0.00967421       1
H              19.66690000     33.49940000     14.95260000      0.00824851      0.05934890      0.03329240       1
O             -16.69850000    -12.49360000      7.32130000     -0.00334779      0.02034250      0.01174780       8
H             -16.63530000    -13.86270000      6.17073000      0.01665090     -0.02470430     -0.02755770       1
H             -17.99050000    -13.07260000      8.41850000     -0.01972100      0.00052282      0.01609740       1
O             -46.32730000      3.51482000     20.42750000     -0.00609480     -0.06148000     -0.00788769       8
H             -46.76290000      1.74093000     19.61590000      0.02539950      0.04527230      0.01446160       1
H             -45.06770000      4.36069000     19.40880000     -0.00922920      0.00106755      0.00302108       1
O             -21.72370000    -13.93270000     34.22680000      0.01962870     -0.03886140      0.04647860       8
H             -22.04380000    -15.54360000     35.40310000     -0.01021040      0.04980150     -0.06159480       1
H             -22.74720000    -13.20100000     32.88050000     -0.01525870     -0.02570210      0.00970822       1
O              17.82500000     15.90800000     30.51860000     -0.03109840     -0.03745020     -0.02778380       8
H              18.21810000     14.03720000     30.87070000     -0.00187630      0.03336980     -0.00765093       1
H              16.42500000     15.73430000     29.11380000      0.03527950      0.01062900      0.02904740       1
O             -21.32950000     -1.60574000     33.34270000     -0.00939894     -0.08140310     -0.02375330       8
H             -20.59830000     -3.38192000     33.98790000     -0.02283230      0.05934040     -0.01777980       1
H             -22.72030000     -2.14367000     31.99320000      0.03878870      0.02548390      0.04898030       1
O              41.88030000      5.45459000     33.06990000      0.01538570      0.05802280      0.02772700       8
H              40.91220000      4.62022000     31.93960000     -0.03753900     -0.03438580     -0.04691350       1
H              43.08160000      4.36605000     33.76410000      0.02076940     -0.01834240      0.01657480       1
O              -7.69161000    -34.17330000     -7.52297000     -0.05699290      0.01075840      0.02097860       8
H              -7.24738000    -34.31880000     -5.59903000     -0.00646930     -0.00546358     -0.04272560       1
H              -9.65465000    -34.25180000     -7.68337000      0.05844240      0.00194951      0.00233806       1
O              52.40980000    -18.69460000    -12.30320000     -0.02557320      0.00000980     -0.06879640       8
H              53.57060000    -17.81150000    -11.38940000      0.04201100      0.02872330      0.04498510       1
H              51.85610000    -20.19700000    -11.58010000     -0.01819900     -0.03127070      0.02875530       1
O              10.35840000      1.93022000     11.30110000     -0.04623730      0.02328460     -0.02184290       8
H              10.53360000      0.73939300     12.65770000     -0.01194280     -0.01399080     -0.00537092       1
H               8.54500000      1.86801000     10.38910000      0.04754200     -0.00367068      0.02727110       1
O             -34.41000000     -2.05707000     45.71340000      0.03040110     -0.02689730      0.01493450       8
H             -34.00800000     -2.43026000     44.02450000     -0.01821960      0.01828870     -0.04810960       1
H             -33.09990000     -3.33383000     46.15680000     -0.01422600      0.01207270      0.03501930       1
O              11.40830000    -10.69180000     -8.44587000      0.00812727     -0.00409595      0.02710080       8
H               9.80210000    -10.43420000     -7.70702000     -0.01360470      0.01357070      0.02587770       1
H              10.91130000    -10.95470000    -10.10770000      0.00696081     -0.00485880     -0.05338620       1
O              22.45050000     19.35570000     13.36630000      0.09104340     -0.00311991     -0.11926500       8
H              21.05600000     19.05610000     14.25890000     -0.08695390     -0.01718960      0.04270660       1
H              22.29300000     18.88670000     11.41180000     -0.00424596      0.01402140      0.06881710       1
O               9.50625000     21.58240000    -10.44610000     -0.05718100     -0.04326440     -0.02097150       8
H               9.01246000     21.76850000     -8.68870000     -0.00232829     -0.00662290     -0.00641397       1
H               8.01057000     20.31590000    -11.26730000      0.05865560      0.04889100      0.02773530       1
O              22.92220000     47.76620000     31.32730000     -0.03207700      0.00342222      0.03590900       8
H              22.40230000     48.70210000     32.96940000      0.01333730     -0.03566970     -0.05111640       1
H              22.17020000     45.97100000     31.34690000      0.01771320      0.03575870      0.00998254       1
O              -7.47299000      9.03238000      2.88268000      0.02837420      0.07124460     -0.06682810       8
H              -8.17575000     10.09890000      1.29508000      0.00791237     -0.03763670      0.05672000       1
H              -8.48990000      7.69862000      3.27039000     -0.04667730     -0.04794200      0.00593936       1
O              14.76850000    -26.76660000     15.42530000      0.12370000      0.01927340     -0.00798917       8
H              13.26740000    -27.05610000     14.82480000     -0.13768000     -0.02727770     -0.02580260       1
H              15.53680000    -26.86110000     13.65300000      0.00695702      0.01540870      0.03891710       1
O               1.98258000     16.54350000     39.82530000     -0.04793950      0.00705785     -0.04178480       8
H               1.20367000     15.37800000     40.90930000     -0.00747371     -0.02883810      0.03605850       1
H               0.27099900     16.84870000     38.81640000      0.05500600      0.01380850      0.01566770       1
O              41.85610000     43.28940000     -0.43443900      0.03676230      0.00134278      0.00214487       8
H              43.33780000     43.23080000      0.69203100     -0.01448310      0.01007950     -0.01439780       1
H              40.53890000     42.53780000      0.55459600     -0.01542280     -0.00840405      0.00948350       1
O              23.20490000     13.07980000    -30.00320000      0.03709620     -0.05872150      0.03922620       8
H              24.08830000     11.53170000    -28.86120000     -0.03427240      0.06241610     -0.04044550       1
H              22.25720000     12.08470000    -31.29470000     -0.00000394      0.00608208      0.00640893       1
O             -15.34650000     42.83170000      2.74103000      0.09542940      0.06603420     -0.08817760       8
H             -16.49250000     41.68720000      2.88963000     -0.10759500     -0.11941200     -0.00919172       1
H             -15.45470000     43.44640000      4.29893000      0.01037370      0.05681190      0.09756070       1
O              10.12770000    -28.00100000     31.88940000      0.02619830     -0.02007330     -0.00967387       8
H              11.78570000    -29.05870000     32.21480000     -0.03579410      0.04089620     -0.00394642       1
H              10.55770000    -26.29460000     31.24490000      0.00661474     -0.03083900      0.01646580       1
O               3.42386000     34.53210000      1.96439000      0.03374160     -0.01429170     -0.11654700       8
H               2.22659000     34.69690000      3.13724000     -0.06625170      0.00792432      0.07625510       1
H               2.30214000     34.41890000      0.29605200      0.02999220      0.00415259      0.03705710       1
O              -9.47261000    -15.45880000     12.10440000     -0.01363460      0.00177560      0.00147136       8
H             -10.78260000    -16.02330000     13.30050000      0.01429520     -0.00217927     -0.01894880       1
H              -9.16674000    -16.83800000     10.92600000      0.00064336      0.00361454      0.01114540       1
O              -5.09318000      5.54117000     15.86430000      0.06952350     -0.05503510      0.00720632       8
H              -3.56990000      5.51345000     17.28630000     -0.05760780     -0.00432540     -0.05236080       1
H              -4.73882000      3.86413000     14.64260000     -0.00943901      0.06758480      0.03902350       1
O              25.09220000    -14.76160000     -2.23709000     -0.18624200      0.04742210      0.12344500       8
H              23.78300000    -16.20330000     -1.78359000      0.03863840      0.05045680     -0.02275440       1
H              26.23360000    -15.58900000     -2.97885000      0.14316200     -0.10031400     -0.10355700       1
O              22.37990000      5.33700000     44.44860000     -0.01877180     -0.00921885      0.04210790       8
H              21.43040000      4.78024000     45.93130000     -0.02959070      0.01594100     -0.00908580       1
H              23.66320000      4.23989000     45.10020000      0.04302940      0.00024226     -0.02739400       1
O              15.42550000     27.04060000     47.79220000     -0.03674450     -0.05020160     -0.04304760       8
H              17.03860000     27.06290000     48.44820000      0.05047880      0.00838810      0.01890920       1
H              15.41200000     25.25000000     46.91520000     -0.01256340      0.03920310      0.02142170       1
O             -15.92740000      9.90559000     22.46060000      0.01227100      0.00652640      0.04147300       8
H             -14.23150000      9.71796000     21.64420000     -0.02409030      0.00517151      0.01796130       1
H             -15.84950000     10.03170000     24.41160000      0.01599620     -0.00851196     -0.05511910       1
