192
TotEnergy=-1103.40020000 cutoff=-1.00000000 nneightol=1.20000000 pbc="T T T" Lattice="24.37724000       0.00000000       0.00000000      -0.00000100      24.37724000       0.00000000      -0.00000100      -0.00000100      24.37724000" Properties=species:S:1:pos:R:3:force:R:3:Z:I:1
O              21.27220000      1.81006000    -32.15510000      0.12194700      0.02813380      0.00811389       8
H              22.45750000      1.86703000    -30.62820000     -0.05134200     -0.00619829     -0.02791380       1
H              19.63930000      1.40195000    -31.89860000     -0.06904510     -0.02053030      0.02577670       1
O              47.14560000     44.17350000     10.72440000     -0.02607770      0.01991810     -0.01731940       8
H              48.67130000     43.14310000     10.65830000     -0.00411104      0.00633472     -0.01529170       1
H              46.56690000     45.14370000      9.16437000      0.02523570     -0.02901510      0.02552860       1
O               8.15360000      3.01924000     16.87250000     -0.00763678      0.00843635      0.01301820       8
H               8.96988000      2.01776000     15.65010000      0.00198632     -0.01072910     -0.01275810       1
H               6.37984000      3.19299000     16.39740000      0.00525618      0.00503777     -0.00571810       1
O              -7.14084000     -9.84412000     -0.36565800      0.00029758      0.02278360     -0.00174454       8
H              -7.18383000     -7.88808000     -0.32641700      0.00017841     -0.03682940      0.00424158       1
H              -7.87967000    -10.62600000      1.10959000      0.00681257      0.01011770     -0.00287055       1
O               6.27698000     33.39490000     20.92180000      0.02253910     -0.04207060     -0.02463190       8
H               6.50346000     34.65570000     19.59920000      0.01153050     -0.00370268      0.00295493       1
H               7.52607000     31.91010000     20.78720000     -0.02106580      0.04673090     -0.00127729       1
O              -1.37641000     13.45810000      8.96527000     -0.07204580     -0.06366340     -0.02934490       8
H              -0.62491400     12.47070000      7.63112000      0.00158330     -0.01240710     -0.00229513       1
H              -0.12565300     14.45290000      9.45662000      0.07408070      0.06917240      0.03042860       1
O              36.73290000     24.09360000     11.40630000     -0.00046763     -0.11827300      0.03553340       8
H              37.68200000     22.52730000     10.50030000     -0.03249160      0.06432590      0.01945110       1
H              35.75400000     22.85910000     12.76510000      0.03182260      0.04195650     -0.05387040       1
O               0.19782800    -25.46050000     13.64010000      0.07747900     -0.02182910     -0.01417090       8
H              -0.66964100    -26.55560000     12.51520000     -0.00786660     -0.02211230     -0.01501800       1
H              -0.96116000    -24.38760000     14.24930000     -0.06285070      0.05469430      0.03304350       1
O              31.67110000    -35.53170000     18.03940000     -0.04771170      0.01952320      0.00715937       8
H              33.33120000    -34.97890000     18.24650000      0.05094530     -0.00183565     -0.00425294       1
H              30.87000000    -33.88030000     18.35260000     -0.00366589     -0.01761130     -0.00635363       1
O               7.37764000    -27.29530000    -26.76700000     -0.03023410      0.04815160     -0.03544000       8
H               8.98858000    -27.84470000    -26.65710000      0.07497690     -0.01900670      0.00657410       1
H               6.53123000    -28.26010000    -25.57800000     -0.03840770     -0.02639590      0.03060050       1
O             -11.57130000      2.99298000      4.36073000      0.11303100      0.02794480     -0.00606610       8
H             -13.11670000      2.40993000      4.67452000     -0.09402010     -0.03308560      0.01294960       1
H             -11.06230000      2.57886000      2.64226000     -0.00198987      0.00423142     -0.00627876       1
O             -10.66030000     32.28220000     51.05420000     -0.00932997      0.06955210     -0.01812380       8
H             -10.58070000     30.74410000     51.92590000     -0.01769420     -0.01566050      0.02220460       1
H             -11.90790000     33.67030000     51.64920000      0.01624390     -0.04748720     -0.00457416       1
O              14.38230000    -30.74080000    -18.24510000      0.05898120     -0.01613270      0.09084240       8
H              15.88690000    -31.83820000    -17.80250000     -0.03292930      0.01841480     -0.01063800       1
H              14.02190000    -31.11400000    -19.85470000     -0.02409990     -0.02403680     -0.08118130       1
O              26.86440000     16.55780000     35.30600000     -0.27192100     -0.03287130      0.10763900       8
H              28.30780000     16.58250000     34.87570000      0.29400600      0.03767980     -0.12044400       1
H              27.34100000     15.36590000     36.61390000     -0.02623940     -0.00749718      0.01759960       1
O              -1.05707000      1.97215000     -2.24740000     -0.01223080     -0.02335780      0.00550742       8
H               0.45377800      2.94186000     -2.01455000      0.00779746     -0.00145857      0.00610853       1
H              -1.33496000      0.67820300     -0.91661200      0.01427410      0.01796100     -0.01671640       1
O             -28.18290000     23.22960000     31.06090000      0.05832400      0.00633353     -0.04924530       8
H             -27.70610000     22.88940000     29.19700000     -0.01043780      0.00781864      0.05411080       1
H             -29.69840000     22.41630000     31.39800000     -0.04323030     -0.01124910     -0.00017301       1
O             -31.15470000      8.64136000     21.52800000     -0.00615987      0.03816990     -0.01608180       8
H             -32.53720000      8.96754000     20.26150000      0.01328810     -0.01330700      0.00457746       1
H             -31.07010000     10.24230000     22.41760000     -0.00338790     -0.00753133      0.00989293       1
O             -14.56390000     60.05780000    -21.12810000      0.01555910      0.05809890      0.10081800       8
H             -15.09620000     60.79190000    -19.14560000      0.03625850     -0.02876850     -0.07234160       1
H             -16.13730000     59.43220000    -21.57890000     -0.04319550     -0.02132850     -0.02473960       1
O              64.96950000     23.99550000     40.56070000     -0.03292730      0.01797440     -0.03741430       8
H              63.92700000     24.31470000     38.97960000      0.01773250      0.00094766      0.03597230       1
H              65.67970000     22.41640000     40.10490000      0.01822210     -0.02124200      0.00009234       1
O              57.04420000    -23.01540000      5.12268000     -0.00057821     -0.01395830      0.03720460       8
H              56.78280000    -22.31830000      6.94685000     -0.00188477      0.00141443     -0.06027710       1
H              56.20200000    -22.22730000      3.66732000     -0.00750172      0.01490320      0.02901010       1
O              31.44810000     17.62630000    -14.88730000      0.00976646      0.07542520      0.02624900       8
H              32.36840000     16.21900000    -15.11180000      0.02772370     -0.09443000     -0.03681300       1
H              32.94760000     18.22690000    -13.76480000     -0.04118790      0.02360910     -0.00188228       1
O              -9.02065000      7.50726000     61.77150000      0.08645760      0.05742000      0.02135860       8
H              -9.70692000      6.09478000     61.07880000     -0.03308880     -0.05356090     -0.03470590       1
H              -7.14360000      7.25136000     61.33380000     -0.04393230      0.00804313      0.01564050       1
O               5.18791000      2.40887000     -2.55064000     -0.01034170      0.03835140     -0.01874350       8
H               5.85929000      0.78681700     -2.29703000      0.01819040     -0.02242920     -0.00669592       1
H               5.99569000      3.23821000     -4.02039000     -0.00741374     -0.02356470      0.02506190       1
O              43.90050000      4.81938000     23.85530000      0.02215090      0.03500880     -0.04463300       8
H              43.69050000      6.55735000     22.81560000     -0.00009573     -0.06330660      0.03983380       1
H              45.48050000      3.99411000     23.12720000     -0.03440040      0.01253320      0.00903898       1
O               0.75063500     58.41980000     30.02090000      0.07931960      0.05687830      0.06273380       8
H              -0.56112500     57.49470000     29.53320000     -0.07118180     -0.05513980     -0.04342240       1
H               1.39944000     59.52360000     28.77410000     -0.00120816      0.00234602     -0.02072020       1
O               9.69805000     36.93230000      8.70457000      0.01103970     -0.02457980      0.01408570       8
H               8.63996000     35.26770000      9.13968000      0.04961560      0.05335880     -0.00761077       1
H              11.67410000     37.17740000      9.21521000     -0.06576300     -0.03126620     -0.01027020       1
O             -17.27460000     19.14400000     17.44960000      0.00752268      0.03696910      0.03130830       8
H             -18.88710000     19.98110000     17.13810000      0.00386861     -0.00982919      0.00112048       1
H             -16.74050000     20.10950000     19.11320000     -0.02005860     -0.02901230     -0.04194570       1
O              29.66730000     33.96360000     49.78410000      0.01414290      0.04586250     -0.03125580       8
H              30.30690000     34.23460000     47.87970000     -0.01814340     -0.02345770      0.05762530       1
H              29.86590000     32.25660000     50.27620000     -0.00301681     -0.02142000     -0.00114110       1
O              14.43820000     33.49790000     17.71450000     -0.02951690      0.05314060      0.07778090       8
H              15.08880000     32.79490000     16.29540000      0.01322040     -0.03929320     -0.06592040       1
H              12.85790000     32.81440000     18.38210000      0.01026240     -0.01473420     -0.00845858       1
O              -1.37095000    -27.22110000     26.06750000      0.00589125      0.01167280     -0.00057409       8
H              -2.67658000    -28.47320000     25.96280000      0.00328893     -0.00651242     -0.00798863       1
H               0.27480000    -27.90290000     25.57570000     -0.00877548     -0.00283775      0.00750366       1
O               1.85772000     13.81300000      1.27171000     -0.08687990      0.03400130     -0.04642100       8
H               2.82051000     12.42880000      0.82090100      0.03154650     -0.03912370     -0.00710986       1
H               0.20091600     13.67890000     -0.14828400      0.05341970      0.01129180      0.05556620       1
O               3.11754000      4.79488000     16.08430000     -0.01882160     -0.01735460      0.02505650       8
H               2.22181000      3.26108000     15.51660000      0.00850807      0.02450260      0.01040680       1
H               2.35174000      5.32998000     17.83390000      0.00700994     -0.01164980     -0.03663860       1
O             -37.62840000     54.88330000    -28.52960000     -0.06626080      0.06961030     -0.07122810       8
H             -37.79120000     53.64910000    -29.78410000     -0.01258870     -0.01984450     -0.02313740       1
H             -36.73410000     54.13600000    -27.36030000      0.06984580     -0.05152470      0.09964400       1
O               5.44794000     49.11020000    -12.52020000      0.02369470      0.10119200      0.03192840       8
H               6.30930000     47.77630000    -13.04010000      0.02866080     -0.08524200     -0.03021490       1
H               3.72466000     49.16960000    -12.40780000     -0.05145460     -0.02234840      0.00087675       1
O             -30.54910000     34.56010000      2.93073000     -0.02256630      0.05837280     -0.01110360       8
H             -32.19140000     33.79020000      2.78408000     -0.01235770     -0.01388980     -0.00263046       1
H             -29.44880000     33.36420000      3.53367000      0.03688310     -0.04839610      0.01189590       1
O              23.51920000     35.30630000     13.67000000      0.08356510     -0.06446600      0.13071300       8
H              25.40950000     35.67220000     14.00290000     -0.03885310     -0.00654086     -0.01552630       1
H              22.97140000     36.18240000     12.39470000     -0.03792080      0.06889180     -0.10831600       1
O             -10.41170000    -20.27210000      9.80169000      0.00159205      0.00027370      0.06500060       8
H             -10.41920000    -20.41740000      8.12025000     -0.00012661      0.01684400     -0.10055300       1
H             -10.29200000    -22.04390000     10.07070000     -0.00448269     -0.01623640      0.02615350       1
O             -47.40290000      6.74958000     20.47740000     -0.02873120      0.05827190     -0.02602700       8
H             -48.82190000      8.29200000     19.95830000      0.05218210     -0.06087610      0.01626440       1
H             -45.69780000      7.53434000     20.46620000     -0.02205730     -0.00112478      0.01009200       1
O             -19.08150000    -15.47270000     33.85720000     -0.01237150      0.00721084     -0.00317588       8
H             -18.95000000    -17.23860000     34.19690000      0.01291780     -0.00905829      0.00190508       1
H             -20.45300000    -15.49280000     32.64170000      0.00160635      0.01021490     -0.00063387       1
O              18.20970000     13.61350000     31.34790000      0.01858540     -0.03490440     -0.00746608       8
H              19.87820000     13.31610000     32.06280000      0.00060516      0.02676070      0.01308110       1
H              18.39650000     12.12110000     30.20330000     -0.02618260      0.01924500     -0.00901896       1
O             -22.99220000     -3.26723000     42.50910000      0.02143250     -0.02503660      0.09832380       8
H             -22.55480000     -2.25820000     44.06830000     -0.01041060     -0.02191410     -0.03690300       1
H             -23.04750000     -2.17042000     41.19030000     -0.00873788      0.04172090     -0.05803790       1
O              46.32950000      4.21181000     33.13810000     -0.01269070     -0.08467850     -0.09006960       8
H              46.28840000      4.81796000     34.73100000     -0.00901955      0.02757940      0.08106090       1
H              45.59940000      2.40467000     33.03190000      0.02125910      0.05076630      0.00680893       1
O              -9.84797000    -32.10830000    -10.56450000      0.01903220     -0.00324327      0.00515751       8
H              -8.11115000    -31.75890000     -9.92552000     -0.02111040      0.00393850     -0.01631820       1
H              -9.80585000    -33.60410000    -11.68100000      0.00611479      0.00558245      0.00373259       1
O              57.12640000    -19.82710000    -14.74560000     -0.02285240     -0.00165684     -0.01255120       8
H              58.86670000    -19.72460000    -14.49340000      0.03945790      0.00579303     -0.00047261       1
H              56.60360000    -20.78270000    -13.33220000     -0.01418370     -0.01310290      0.01185750       1
O              15.16390000     -1.79515000      7.02160000     -0.00229778      0.20547900      0.01670740       8
H              14.48870000     -0.43858500      5.70015000      0.02183640     -0.05173650      0.04527650       1
H              15.08450000     -3.34526000      6.52294000     -0.01996340     -0.13708000     -0.05513480       1
O             -36.63770000     -6.24095000     45.56340000     -0.01021730      0.04142490     -0.00094026       8
H             -36.51900000     -7.48472000     44.28480000      0.00403823     -0.02252310      0.00309272       1
H             -36.39120000     -6.79215000     47.26410000     -0.00137070     -0.01694200      0.00440258       1
O               4.40022000    -12.27530000    -10.52950000      0.02501580     -0.01334310      0.02042500       8
H               5.59274000    -12.35060000     -8.99791000     -0.02478080      0.00716913     -0.03890950       1
H               5.11516000    -13.38450000    -11.85810000     -0.01057220      0.00876650      0.01126870       1
O              19.18620000     19.42220000     15.25830000      0.03105360     -0.03190650      0.01075270       8
H              20.37520000     19.14020000     13.86290000     -0.01265480      0.01028110      0.00145455       1
H              20.15300000     18.57410000     16.66510000     -0.02506380      0.01883240     -0.01436140       1
O              10.08260000     19.46650000    -11.38900000      0.01702770     -0.01385190      0.06137670       8
H              11.66980000     18.14500000    -11.09280000     -0.05182480      0.05200800      0.00596699       1
H               8.95773000     19.91740000     -9.61854000      0.04288280     -0.04004360     -0.05448270       1
O              27.64010000     52.38540000     31.68790000      0.12112500     -0.11252600     -0.03193070       8
H              26.11300000     52.64300000     32.33840000     -0.09351750      0.00373555      0.03751890       1
H              28.22600000     50.19680000     31.97140000     -0.03582410      0.10975300     -0.00906728       1
O              -2.89807000      6.36709000      4.06903000     -0.02667920     -0.07167640      0.05532110       8
H              -3.20345000      5.42673000      5.91756000      0.01902780      0.03925110     -0.05891050       1
H              -3.43370000      4.95659000      2.89641000      0.00798280      0.03989500      0.01147960       1
O              14.46660000    -25.91840000     21.16440000     -0.00607265     -0.00396323      0.00179531       8
H              13.29700000    -27.34410000     21.15940000      0.01178060      0.00034469     -0.00429648       1
H              15.07030000    -25.73480000     19.44380000     -0.00358470      0.00321773      0.00275006       1
O              -6.04231000     19.33170000     48.11950000      0.12671300     -0.12719200     -0.04313110       8
H              -4.62809000     19.25190000     46.53020000     -0.05538570      0.00943603      0.04596510       1
H              -6.90789000     20.71210000     48.16320000     -0.07242760      0.12128100     -0.00994444       1
O              35.45910000     41.41090000      1.93939000      0.00440999      0.07198960      0.01566720       8
H              34.45250000     42.83610000      2.82527000      0.01444380     -0.04969360     -0.02109640       1
H              34.56560000     39.89000000      1.84175000     -0.02088180     -0.02417720      0.00841593       1
O              21.52000000     18.00740000    -28.87670000     -0.05528450      0.01263720      0.00235436       8
H              21.99810000     16.76010000    -27.67770000      0.00313955     -0.03866840      0.01110060       1
H              23.00690000     18.70250000    -29.40380000      0.05414460      0.03646860     -0.02017690       1
O             -20.52900000     44.04610000      0.80577000     -0.01108100     -0.02534880     -0.00598578       8
H             -20.94060000     42.18170000      0.80370500      0.01319510      0.03316920      0.01045720       1
H             -19.41620000     44.54540000      2.23920000     -0.00931546     -0.01718540      0.00063665       1
O               7.16703000    -28.25550000     28.92750000     -0.02037990     -0.04247930      0.06268170       8
H               6.59196000    -29.19000000     30.93940000      0.03787510      0.04030310     -0.07457220       1
H               7.91950000    -26.57090000     29.02250000     -0.00832800     -0.00199692      0.01898520       1
O               4.98253000     28.75780000      2.32033000      0.01063500      0.00705600      0.02763270       8
H               4.74356000     27.96310000      0.72725600     -0.01453760     -0.00703751     -0.00997370       1
H               3.80057000     28.40840000      3.71633000      0.00598437      0.00007363     -0.01842950       1
O              -9.59680000    -11.91540000     10.58220000     -0.06199930     -0.03004940      0.06403220       8
H              -9.74916000    -13.55940000     11.63520000      0.01895150      0.03594310     -0.03688570       1
H              -8.18301000    -11.69300000      9.55060000      0.03639760     -0.00701439     -0.02858690       1
O              -2.98045000      6.27897000     13.48870000      0.03365670      0.09064960     -0.01331690       8
H              -1.80864000      7.94990000     13.94460000     -0.04369120     -0.04911870     -0.02957910       1
H              -2.56010000      5.24585000     14.82420000      0.00223905     -0.03874020      0.03508860       1
O              22.01110000    -10.35100000     -1.97375000     -0.01068030     -0.07559140     -0.00685121       8
H              22.22090000    -12.21810000     -3.17491000     -0.01650130      0.07202770      0.04352310       1
H              20.29530000    -10.33750000     -0.91737800      0.03186160     -0.00884511     -0.02858560       1
O              21.89650000      9.84792000     43.41850000      0.00081695      0.02132360      0.00438631       8
H              20.18530000      9.54371000     44.18450000      0.00650052     -0.00397924     -0.01571820       1
H              21.92840000     10.89000000     41.87220000     -0.00689914     -0.01594880      0.01212800       1
O              14.27230000     27.17520000     48.23670000      0.03739790      0.06170180      0.00931619       8
H              16.01850000     28.16780000     47.98400000     -0.04861620     -0.04651000      0.00538723       1
H              14.12500000     25.58250000     47.41860000      0.01713420     -0.01326460     -0.01756890       1
O             -11.83320000     13.97540000     17.77780000      0.01040230     -0.01161280     -0.00136152       8
H             -10.73320000     15.14490000     16.82660000     -0.01364690     -0.02218270     -0.00093385       1
H             -11.19720000     12.18500000     17.61600000     -0.00016705      0.03350430      0.00054440       1
