192
Lattice="26.12354 0.0 0.0 0.0 26.12354 0.0 0.0 0.0 26.12354" Properties=species:S:1:pos:R:3:force:R:3 TotEnergy=-1103.09043 cutoff=-1.0 nneightol=1.2 pbc="T T T"
O       20.28310000      13.68010000       7.92285000      -0.00990284       0.00865610      -0.00474530
H       18.69560000      13.04160000       7.22620000       0.00916724       0.00447848       0.00662913
H       20.15560000      15.52200000       7.88770000       0.00410608      -0.01524900      -0.00274690
O       17.99650000      19.52680000      15.37550000       0.00916405      -0.00299837       0.00740635
H       18.78550000      20.56710000      16.66620000       0.00184917      -0.00633461      -0.00190799
H       16.20990000      19.53970000      15.76560000       0.00248762       0.00744306      -0.00459612
O       17.88920000      13.87000000      13.87100000      -0.00237910       0.00690222       0.00027980
H       17.82690000      13.87040000      12.06050000       0.00407694      -0.00223585      -0.00018636
H       18.18890000      15.61600000      14.34120000       0.00123541      -0.00594682      -0.00043336
O        8.55630000      17.27510000      11.49130000       0.00058365       0.00553927       0.00147067
H        8.11548000      18.85480000      12.29800000       0.00265240      -0.00501315      -0.00329142
H        9.16018000      17.75820000       9.82716000      -0.00474876      -0.00562947       0.00432289
O        5.87909000      12.52840000       6.75705000       0.00210446       0.00215749      -0.00436023
H        5.17817000      13.29160000       5.26594000       0.00151491       0.00003074       0.00180627
H        5.44229000      13.71820000       8.05231000       0.00113110      -0.00317182       0.00042718
O        3.62070000      23.01330000      20.36050000      -0.02138020       0.02746850       0.03068060
H        2.69397000      23.67510000      18.92950000       0.00200067      -0.00157082      -0.00094701
H        2.70408000      23.74910000      21.85790000       0.02061920      -0.01256870      -0.02904450
O        7.71789000      22.01370000      14.10990000       0.00463499       0.00044013       0.00272968
H        7.81797000      23.70310000      14.77100000       0.00003806      -0.00364432      -0.00460934
H        6.00958000      21.49660000      14.35520000      -0.00879702       0.00247892       0.00331454
O        9.12189000      24.99110000      21.52170000       0.00453524       0.00804601      -0.00062551
H        9.18140000       0.67977600      21.80690000      -0.00138676      -0.00667650      -0.00029255
H        7.40440000      24.56100000      21.10700000      -0.00404213       0.00037020       0.00003647
O        1.49941000       8.19471000      10.05850000      -0.04123670      -0.01056290      -0.03678710
H       25.17011300       8.55063000       8.27643000       0.04317210       0.01568090       0.01167680
H        1.38583000       8.93804000      11.70110000      -0.00496511      -0.00024881       0.00233069
O        0.12293500      24.69920000      25.21080000      -0.00402173      -0.02374530       0.00065685
H       25.95942300       0.34007200      25.76304500      -0.00761686      -0.00836211      -0.00925157
H        0.26140000      23.69100000       0.62971600       0.00507316       0.00371360       0.00659223
O       21.80560000      20.27860000       7.20550000      -0.00291366      -0.00486829       0.01065910
H       21.21060000      20.92570000       8.81832000       0.00300154       0.00315991      -0.01061140
H       20.41510000      20.57550000       6.07758000       0.00243245       0.00065986      -0.00769272
O        4.12252000      13.75680000      13.24250000       0.00693784      -0.00230203       0.00166084
H        5.62434000      14.46670000      12.52330000       0.00052993       0.00357552      -0.00407989
H        3.00811000      13.37880000      11.85290000      -0.00006133       0.00278600       0.00739634
O       22.95510000      20.73100000      24.33820000       0.02095170       0.02729650      -0.00711506
H       23.39650000      18.92200000      24.51380000       0.00806594       0.03083520      -0.00833107
H       24.87850000      23.02230000      24.20630000      -0.03290380      -0.02254730       0.01729760
O        6.10673000       6.43304000      19.95020000      -0.00589850      -0.00484529      -0.00485062
H        6.18090000       6.93332000      18.20180000       0.00208944       0.00375476       0.00216421
H        7.62347000       5.46901000      20.25900000       0.00265812       0.00172788       0.00088450
O        0.42452000       3.20382000       9.49669000       0.00337433       0.00149050      -0.00113690
H        1.92820000       2.33193000       8.96548000      -0.00200511       0.00004385       0.00360684
H        0.93898900       4.98252000       9.85647000       0.00253035       0.00497533       0.00162649
O       10.61000000       4.65333000      22.04880000      -0.00195044       0.00344473       0.00292164
H       12.36010000       4.37743000      21.44920000      -0.00521589      -0.00094385      -0.00116136
H       10.62590000       6.36549000      22.65770000      -0.00270712      -0.00467150       0.00232812
O        1.75889000      24.44520000      14.90120000      -0.01104480       0.00137310       0.00766247
H        2.83260000      25.91050900      14.84060000       0.00155449       0.00412105      -0.00514816
H        0.05437100      25.16100000      14.82640000       0.00841450      -0.00257780      -0.00086357
O       14.25350000      24.82620000       8.10055000       0.00467739       0.00895510      -0.00451412
H       13.20210000      23.65660000       7.20680000       0.00110946       0.00084732      -0.00510459
H       15.05700000      25.83910600       6.78798000       0.00008607      -0.00617291      -0.00010703
O       18.74880000      20.11120000       2.53677000      -0.00099125      -0.01031620      -0.00423085
H       17.81540000      18.56430000       2.80276000       0.00341189       0.00175390      -0.00968021
H       19.26140000      20.07270000       0.75742500       0.00706020       0.00225308       0.01400810
O        2.48451000      17.87900000      20.41740000       0.04445380      -0.00324646       0.02649720
H        5.97764000      18.10750000      22.13630000      -0.06035830      -0.00281526      -0.03183140
H        1.77560000      19.50600000      20.90850000       0.01223480      -0.00457156       0.00407716
O       13.28090000      21.36300000      15.70690000      -0.00086158       0.00317515       0.00907308
H       11.94590000      20.59830000      14.76370000      -0.00917251      -0.00098215       0.00069338
H       12.79040000      21.25530000      17.46640000      -0.00251748      -0.00255440      -0.00548722
O        7.68685000       9.65383000      14.74270000       0.00293506      -0.00133442       0.00756969
H        9.43485000      10.17340000      14.76110000      -0.00356356       0.00204445      -0.00086885
H        6.70716000      11.15010000      15.12530000      -0.00207771      -0.00721949      -0.00854319
O        5.69884000       3.08312000       3.96531000       0.00639005       0.00515740       0.00473014
H        6.89746000       2.43795000       2.74686000      -0.00548909       0.00099867       0.00176847
H        6.48726000       4.53099000       4.76475000      -0.00117792      -0.00207820      -0.00499035
O        9.86302000       0.15750400      10.32340000      -0.00499137      -0.00608036      -0.01069650
H       11.54860000       0.06566000       9.63130000       0.00346153      -0.00561246       0.00453682
H        9.78051000       1.67605000      11.27940000      -0.00480027       0.01164750       0.00701554
O       16.36630000      14.85720000       0.79551200       0.00684765      -0.00059032      -0.00123036
H       16.56110000      14.49170000      25.14020000       0.00126655       0.00458508       0.00301782
H       17.48800000      13.62280000       1.55532000      -0.01218670       0.00225966      -0.00018321
O       19.32690000      22.84870000      11.28020000      -0.01312450       0.03354940      -0.02185330
H       17.80690000      23.84200000      11.68030000       0.02162690      -0.02003790      -0.00375980
H       19.54840000      21.63340000      12.54760000      -0.00914230      -0.01756610       0.02776980
O       19.30260000       3.17236000      16.48190000      -0.00328730      -0.00262525      -0.00246102
H       18.46370000       1.64329000      15.94970000      -0.00030170       0.00369885       0.00560915
H       19.58800000       4.05641000      14.93080000       0.00448365      -0.00601476      -0.00268411
O        7.99911000      13.55050000      20.99110000       0.00463253      -0.00580452      -0.01135890
H        8.57700000      12.48190000      19.60710000      -0.00821590       0.00478130       0.01171080
H        9.48572000      14.43840000      21.48980000       0.00906713       0.01050500      -0.00684962
O       14.37230000       0.54015700      15.40290000       0.00058789       0.00614416      -0.01240440
H       13.30220000       1.46690000      16.54670000       0.00685155      -0.00349690       0.00135468
H       13.65370000      25.01040000      15.14860000      -0.00139097      -0.00187883       0.00536356
O       17.51990000       9.80145000       1.76414000       0.00676814       0.00415194       0.00473522
H       18.99000000      10.14000000       0.75083800      -0.00086527      -0.01037060      -0.00449125
H       17.79170000       8.12861000       2.45291000      -0.00413839      -0.00453184       0.00181735
O       22.22830000      21.93820000      18.86950000      -0.00104652      -0.01318790      -0.00103072
H       23.43610000      20.95670000      17.88830000      -0.00762757       0.00363889       0.00774230
H       22.09520000      21.07920000      20.51610000       0.00667496       0.00776626      -0.00151509
O        9.25914000       7.74246000       5.24931000      -0.00704983      -0.00487297       0.00000443
H        9.46632000       7.98698000       3.46897000       0.00181313       0.00228006      -0.00127955
H        8.44146000       9.25682000       5.84960000      -0.00036878       0.00041935       0.00049340
O       15.00410000       3.69522000      20.16500000      -0.00126189      -0.00259150      -0.00161814
H       15.93300000       2.77186000      21.42690000       0.00540752       0.00259201       0.00482209
H       16.03920000       5.11010000      19.69860000       0.00548628      -0.00035077      -0.00218618
O       24.18540000      15.54530000      24.00930000       0.00984862      -0.00718281      -0.01159830
H       24.64940000      15.14710000      25.72020000      -0.00124813      -0.00640196      -0.00259586
H       25.57894600      14.94890000      22.95050000      -0.01140060       0.01034980       0.00860422
O       14.29010000      12.29760000       7.37984000      -0.00117952       0.01292480      -0.00863808
H       14.18100000      12.18310000       5.55027000      -0.00030530      -0.00304291       0.01031450
H       13.06620000      13.58390000       7.82863000       0.00449765      -0.00927848      -0.00512199
O        9.36301000      12.46480000      26.00390200      -0.00520054       0.00424512       0.00114605
H       11.14020000      12.26650000      25.78458100       0.00595536       0.00006751      -0.00003607
H        8.71686000      13.02070000      24.37860000      -0.00131373      -0.01226070       0.00814292
O        0.05666600      12.20470000       1.51094000       0.00279969      -0.00097080       0.00693271
H        1.07368000      12.68160000       2.93488000       0.00571972       0.00847195      -0.00269396
H        1.22986000      12.18180000       0.11306000      -0.00172576      -0.00903944       0.00216759
O        9.75276000       5.85188000      10.54160000      -0.00755497      -0.00607084       0.00077380
H        8.37605000       6.82562000      11.27140000       0.00788912      -0.00239938       0.00187397
H        9.13625000       5.33828000       8.90402000       0.00281787       0.00900684       0.00262849
O       19.05600000       8.50629000      17.56310000      -0.00659702       0.00460646      -0.00055054
H       18.43570000       9.79775000      16.44120000       0.00232209       0.00231301       0.00262372
H       19.90410000       7.32057000      16.50720000      -0.00015860       0.00033612       0.00204599
O       15.07650000       3.75040000      10.42980000      -0.01576550      -0.02023020      -0.01906820
H       13.58640000       4.29949000      11.30050000      -0.00680064       0.01506250       0.01092070
H       15.71130000       2.34432000      11.47490000      -0.01116310       0.00736415      -0.01027690
O       11.77580000      13.36280000      14.95710000      -0.00040899       0.00455422      -0.00618316
H       12.57980000      14.10340000      13.48740000      -0.00264850      -0.00698758       0.01077960
H       10.23230000      14.30110000      15.11790000       0.00110103       0.00304256      -0.00315631
O       25.50155800       9.48137000      15.52940000       0.00588360      -0.00146003      -0.00139639
H       24.15670000       8.36204000      15.08520000      -0.00132532       0.00310129      -0.00061982
H       25.24460000      11.01200000      14.58320000      -0.00220659       0.00245579       0.00271163
O       10.54050000      21.54140000      25.18170000      -0.00032936       0.00380539       0.00232154
H       10.23940000      23.02910000      24.13090000       0.00105487      -0.00330619      -0.00124707
H       11.80470000      21.98000000       0.28610400       0.00041433       0.00536651       0.00078925
O        8.22226000      18.32400000       2.87377000       0.00489454      -0.00013669       0.00542923
H        9.31663000      17.28320000       3.88815000      -0.00994773      -0.00895763      -0.00885673
H        9.03915000      18.40220000       1.25194000      -0.00235600       0.00310733      -0.00158191
O       18.17200000       2.58969000      25.22460000      -0.01444960      -0.00842730      -0.00129551
H       17.83220000       3.07033000       0.85150200      -0.00073183       0.00001239       0.00523024
H       19.61170000       3.53353000      24.74520000       0.01173970       0.00703362      -0.00113297
O       18.94640000      14.77480000      21.36580000       0.01144200       0.00649078      -0.00413076
H       18.99240000      15.46930000      19.67480000      -0.00011403      -0.00557757       0.00801521
H       20.71970000      14.75420000      21.89640000      -0.01448840       0.00059515      -0.00050135
O        0.21468200      21.61200000       3.89001000       0.00575127       0.00031152       0.00211950
H       24.73650000      21.45490000       4.74838000      -0.00222292      -0.00020816      -0.00007595
H        1.44557000      21.59150000       5.23547000      -0.00256032       0.00313066      -0.00302061
O        4.65372000      24.80540000       7.44256000       0.00218230      -0.00327455      -0.00492419
H        4.18800000      25.94479700       6.11226000       0.00258324       0.00626559       0.00210684
H        6.41229000      25.17570000       7.77092000      -0.00583135       0.00104356       0.00311173
O       24.08540000       9.52040000       6.54549000       0.00313083       0.00412756       0.01530610
H       25.18630000      10.13370000       5.19828000      -0.00022738      -0.00775375       0.00771806
H       23.28850000      11.03410000       7.25319000      -0.00708123      -0.00251388      -0.00216085
O        2.92338000      16.60710000       4.56171000      -0.00486943       0.00022339      -0.00795872
H        1.45317000      17.40760000       3.81717000       0.00790305       0.00064704       0.00426320
H        4.35772000      17.41320000       3.77053000      -0.00038121      -0.00014024       0.00047643
O       17.11350000       4.13038000       4.16774000       0.00298403       0.00193362       0.00393426
H       12.73660000       2.78962000       8.36542000       0.02597260       0.00513886       0.02569940
H       17.90830000       3.89075000       5.80188000       0.00032806       0.00225453      -0.01306530
O       23.19970000       4.06284000       5.32704000       0.00645983       0.01486960       0.00123437
H       24.30400000       3.77489000       6.76878000      -0.00136437      -0.00044960      -0.00194042
H       23.32470000       5.85991000       4.97408000      -0.00955298      -0.01649300       0.00640266
O       23.13750000       0.81097000      12.88740000       0.01439920       0.00072802      -0.00127386
H       22.77500000      25.43547800      11.93300000      -0.00503815       0.00175447      -0.00186117
H       24.52770000       1.62555000      11.97190000      -0.00954782      -0.00186709      -0.00184525
O       12.88100000      18.30380000      21.50110000       0.00896026      -0.01251590      -0.01061310
H       14.32390000      17.18880000      21.64470000      -0.00375045       0.00702101      -0.00135960
H       13.29520000      19.78480000      22.44780000      -0.00385609       0.00032695       0.00706783
O       25.40220000      15.41160000      12.41850000      -0.01054630      -0.04201900      -0.02251690
H       24.29690000      15.41350000      10.94890000       0.01299450       0.02075450       0.02113190
H       25.97640100      16.93190000      13.26610000      -0.01251180       0.00655717      -0.00740630
O       21.84840000       7.74784000      23.98400000       0.00191313      -0.00211298       0.00106261
H       21.81300000       6.84880000      22.40210000      -0.00222165       0.00306786       0.00221147
H       23.58570000       8.26676000      24.08570000      -0.00085213       0.00107178      -0.00371426
O       11.25600000      17.90330000       7.16084000       0.00990220       0.00509832       0.00630748
H       10.97840000      19.16410000       5.88559000       0.00042927       0.00495112       0.00096983
H       12.66720000      18.48320000       8.15452000      -0.00092061      -0.00158398      -0.00478426
O       23.20080000       1.90949000      20.31120000      -0.00506335      -0.00453370      -0.00484744
H       23.02820000       0.10365300      20.49380000      -0.00060205       0.00330091      -0.00180613
H       21.97250000       2.31337000      19.00010000       0.00686618      -0.00135926       0.00474966
O        5.90225000      24.87290000       1.18911000      -0.00276019      -0.00118523       0.00898712
H        7.05069000      23.54230000       0.75486000       0.00285340      -0.00368886      -0.00052437
H        5.37907000      24.50670000       2.90243000       0.00364708      -0.00258303      -0.00973897
O        1.00270000       3.76142000       1.42199000      -0.00276489       0.00911854       0.00221407
H        0.07422400       4.96289000       2.45362000      -0.00074324      -0.01972350      -0.00501412
H        2.47990000       3.38014000       2.42327000       0.00523009       0.00186217      -0.00173005
O        4.44524000       3.58841000      15.03320000      -0.01514790      -0.00087714       0.00573758
H        3.08596000       4.77171000      14.63080000       0.01293220      -0.00821361       0.00202534
H        4.37634000       3.42241000      16.85580000       0.00066185       0.00653426      -0.00624033
O        1.49536000       7.97521000      23.63810000       0.00328696      -0.00156801      -0.00065666
H        2.61558000       6.75112000      22.85400000      -0.00435335       0.01097810      -0.00093755
H        0.98158600       7.14060000      25.15710000       0.00412344      -0.00639960       0.00172142
O        0.18767600      18.99360000      15.53950000      -0.00908729       0.01565460      -0.00297043
H        0.58636500      20.67020000      14.93450000       0.00766619      -0.00399437       0.00703911
H        1.27705000      18.56740000      16.93510000       0.00787982      -0.00052853       0.00341166
O       15.11610000      23.76050000       2.59322000      -0.00755553      -0.00124781       0.00186020
H       16.29610000      22.84270000       3.62286000       0.00183962      -0.00316943      -0.00292161
H       16.05570000      23.78838000       1.04016000      -0.00141132       0.00906962      -0.00071904
