192
Lattice="24.49594 0.0 0.0 0.0 24.49594 0.0 0.0 0.0 24.49594" Properties=species:S:1:pos:R:3:force:R:3 TotEnergy=-1103.45727 cutoff=-1.0 nneightol=1.2 pbc="T T T"
O        0.53106000      23.24192000      13.50458000       0.12499500      -0.01559960      -0.02423050
H       23.54100000      22.53011000      13.36248000      -0.13046900      -0.02762520       0.00282470
H        1.33876000      21.64944000      12.70228000       0.00997471       0.03903330       0.02126860
O        2.82792000      23.90446000      23.55752700       0.01362990      -0.00774455      -0.03285610
H        1.63352000       0.71292000      23.81919500      -0.01623760       0.01254830       0.00470517
H        2.92572000      23.83366000      21.69175000       0.00137694      -0.00436826       0.02073820
O       12.76130000       1.10364000      18.07330000      -0.01198710       0.02025120      -0.03449700
H       12.92080000       2.60709000      19.02870000      -0.00636943       0.03380450       0.00762890
H       13.07870000      24.44758400      19.32370000       0.01109140      -0.05214080       0.02747630
O       22.08936000      11.04374000      23.02011000       0.00688143       0.00740682      -0.02121540
H       23.16544000      10.32664000      21.68544000      -0.01042080       0.00634373       0.01274370
H       21.77423000      12.82514000      22.54667000       0.02505940      -0.01065570       0.00783620
O        6.35114000      11.70366000      17.31110000       0.01668360      -0.04377170      -0.01509050
H        6.64759000      11.65876000      19.10260000      -0.00121203       0.00418927       0.01154500
H        6.94198000       9.91356000      16.88910000      -0.02018830       0.03806140       0.00135001
O       17.54429000      12.09760000       6.76470000      -0.00112194       0.05391730      -0.02266950
H       17.04771000      14.01220000       6.47647000       0.00768051      -0.05127840       0.00319949
H       17.50789000      11.34980000       5.06530000      -0.00587541       0.00314269       0.01834340
O       19.75636000       5.21476000      13.18900000       0.07670640       0.03698680      -0.01929680
H       21.35056000       4.24706000      12.74710000      -0.03491380       0.01870350       0.00642361
H       18.49186000       4.08986000      13.47990000      -0.04843730      -0.05076380       0.01477530
O        2.04029000      11.89948000       9.13777000      -0.00535837       0.00246923      -0.00526190
H        2.54081000      10.29338000       8.24246000       0.00512575       0.01701750       0.02911780
H        2.67092000      12.36898000      10.88580000       0.00400184      -0.02063980      -0.02344860
O       10.20826000      15.32168000      16.11110000       0.07499190      -0.00624020      -0.01821740
H        9.13536000      13.91948000      16.21110000      -0.02402390      -0.03021710       0.00039082
H       12.00456000      14.55648000      15.95590000      -0.05766360       0.02083310       0.00223571
O       10.61160000      21.11868000      23.81578000       0.01177880       0.01629790      -0.01896620
H       12.32380000      21.03638000      24.44228000       0.00611166      -0.00245465      -0.01006450
H        9.67485000      20.52648000       0.68154000      -0.02553080      -0.01973510       0.02545580
O       11.63074000       6.15501000       8.31495000       0.05724690       0.00167244      -0.01681470
H       12.34984000       7.67344000       8.98008000       0.00126416      -0.00024496       0.00677589
H       10.01034000       5.87483000       8.85212000      -0.05232280      -0.00588894       0.02838920
O       14.43294000       3.79616000       1.09972000      -0.01174330      -0.01142380      -0.02000930
H       12.82704000       2.82736000       0.82832000       0.01972940       0.00407564       0.02321870
H       15.80182000       2.61346000       0.77162000      -0.00367621       0.00564946       0.01298350
O       11.05530000      18.39028000       6.42514000      -0.03891330       0.02363890       0.07830340
H        9.72682000      18.04378000       5.18314000       0.00242512      -0.01073050      -0.01403150
H       10.01330000      18.73388000       8.12344000       0.04061370      -0.01573290      -0.05648920
O        2.85646000      13.74270000      13.65776000      -0.09146060       0.05156030      -0.04255140
H        0.88396000      13.87130000      14.05876000       0.06124750      -0.01666480      -0.00011269
H        3.73486000      12.72200000      14.72886000       0.02819350      -0.03463100       0.04675130
O        2.87577000      23.36087000       4.32297000       0.06773490       0.02649920       0.03686750
H        4.46513000      24.02985000       5.38566000      -0.06315960      -0.02777880      -0.02947000
H        3.68783000      23.09629000       2.69920000      -0.01073570       0.00341126       0.00115037
O       14.47588000       1.42036000       8.94336000      -0.02668350       0.01178740       0.01214340
H       16.27548000       1.33206000       8.61956000       0.00988958       0.01044210       0.00511236
H       13.81278000       3.13866000       8.91866000       0.00940074      -0.00492252      -0.00954888
O       17.16328000      11.07900000      23.02590000      -0.03674800       0.01676140       0.07955560
H       16.41218000      10.70510000      21.56160000      -0.03826640      -0.01545840      -0.08045450
H       18.85218000      11.34060000      22.83790000       0.06519280      -0.00914992      -0.01150910
O        3.34114000      15.10182000       4.54374000       0.00011612       0.00405230       0.05373840
H        3.24904000      14.34662000       6.28224000      -0.00406601       0.01727040      -0.02233670
H        3.26104000      13.59032000       3.60154000       0.00057704      -0.02043270      -0.02607910
O       19.79362000      21.82120000      13.80026000      -0.02464700       0.01819670       0.02987710
H       18.40712000      23.07520000      13.77756000       0.00939098      -0.00123376      -0.02101100
H       19.74242000      21.64680000      15.62936000       0.01136080      -0.01777580      -0.00790419
O       10.28122000      13.08974000       0.92720000      -0.00204151      -0.02708310      -0.01759380
H        9.16272000      11.90494000      24.34884200       0.04460890       0.01687910       0.01999500
H       12.02502000      12.48034000       1.27707000      -0.03583960      -0.00437310      -0.00712967
O        3.53356000      18.93950000      12.14734000      -0.34599700      -0.13022100       0.02682550
H        4.94556000      19.35010000      12.01724000       0.33656100       0.08941680      -0.02625930
H        3.48536000      17.04000000      12.25444000      -0.00000437       0.03569550       0.00510294
O        6.75274000       6.37244000      15.94392000       0.04271050      -0.01407540      -0.00264835
H        8.57814000       6.22232000      15.54482000      -0.02498560       0.01097820      -0.00713300
H        6.77014000       5.02912000      17.19462000      -0.01614190       0.00676082       0.00895117
O       10.10130000       1.31530000       1.74186000      -0.00176473       0.01078290      -0.08666760
H        9.71640000       0.69937300       3.34093000      -0.00171572      -0.02527090       0.03241910
H        9.78148000       0.12586100       0.27047600       0.00490115       0.01224180       0.04735420
O       19.18146000       0.94882800       9.54106000      -0.00266521      -0.00273973      -0.00533675
H       20.27866000       2.40542000       9.80626000      -0.00417291      -0.02334200      -0.01452240
H       19.71416000      24.27129300       8.19636000       0.01689010       0.02440260       0.01128760
O       21.84743000      13.85332000       9.65496000      -0.00760994      -0.04337730      -0.05141590
H       20.53091000      13.07742000       8.17096000       0.05690030       0.02412410       0.05946080
H       23.71190000      12.88712000       9.62836000      -0.05354510       0.02245090      -0.01739360
O        7.95844000      12.20486000      11.63170000       0.00700015      -0.04081510      -0.00390524
H        8.28078000      11.58166000       9.93171000      -0.00937278       0.00025033      -0.00201768
H        7.82098000      13.92436000      11.36890000      -0.00392492       0.03957360      -0.00014567
O       10.03964000      19.15280000      18.69690000       0.01504120       0.03715490      -0.01826040
H        9.39754000      17.71130000      17.89030000       0.00099420      -0.02907950      -0.01988920
H        9.31904000      19.10880000      20.26910000      -0.01416840       0.00560197       0.05550020
O        3.68186000      10.31486000       1.98722000       0.02551100      -0.01525390       0.04514340
H        4.00416000       9.33136000       3.71642000      -0.01278830       0.01938490      -0.05226290
H        2.12356000       9.76276000       1.26462000      -0.00640506      -0.01065750       0.00653443
O        6.95413000       4.42616000      20.83150000      -0.01254050      -0.00619714      -0.00164019
H        8.68143000       4.27016000      21.23670000       0.02888080       0.00682525       0.00147309
H        6.32387000       2.87856000      21.51840000      -0.01321420      -0.00155634       0.00207414
O        3.56576000      24.39248000      17.57450000       0.01360070       0.02504340       0.05056670
H        2.44128000      23.86608000      16.36810000      -0.05070180      -0.02189170      -0.03952780
H        5.08351000      24.06668000      16.73490000       0.03672350      -0.00212426      -0.00920594
O        1.23403000      18.69860000       0.69957300      -0.00622871      -0.02310780       0.01290370
H        1.69965000      18.27540000       2.42046000      -0.00024160      -0.00167726      -0.00882025
H        1.58659000      20.41610000       0.46010000       0.00645020       0.02590520      -0.00516374
O       23.95921200       3.29605000      11.05280000       0.03775410      -0.04928150       0.00090389
H       23.99834700       3.83095000       9.36815000      -0.00933662       0.03447150      -0.03451810
H        0.46277500       1.72431000      10.59700000      -0.02448170       0.02079640       0.03793540
O       12.53408000       5.26302000      21.11788000      -0.00620733      -0.00858574      -0.00891726
H       13.68038000       6.48222000      20.44758000      -0.00193191       0.01805830      -0.01585860
H       13.44248000       4.65342000      22.56038000       0.00445141      -0.00076618       0.01856040
O        9.10474000       6.11522000       4.23664000      -0.00271755       0.02607720       0.02700720
H       10.49040000       6.36462000       5.44614000      -0.01115860      -0.00230549      -0.00002963
H        9.98951000       5.15032000       3.08894000       0.00898422      -0.02824620      -0.03899000
O        8.01198000      16.79486000       2.78172000      -0.01810850       0.00527636       0.02321280
H        8.77828000      15.17556000       2.01517000      -0.01191450       0.02216900       0.01725660
H        6.49158000      16.56766000       3.93062000       0.02373410      -0.01149680      -0.03706120
O       14.80140000       9.25236000      18.14290000       0.03964980      -0.00496040       0.00806570
H       16.75090000       8.94346000      18.04270000      -0.05400920       0.01520010      -0.01700070
H       14.03560000      10.08086000      16.63850000       0.01555620      -0.01441900       0.01140430
O        7.87434000      11.02064000       6.40971000       0.01479550       0.00576682      -0.01124530
H        7.99594000      12.41674000       5.17841000       0.00433857      -0.02557790       0.01395430
H        8.90974000       9.59244000       5.80814000      -0.01744040       0.02341060      -0.00579869
O       24.29732000       4.06039000      17.32980000       0.03336700      -0.03360620      -0.01635010
H        1.33058000       2.95508000      17.39000000      -0.01707030       0.01220530       0.01801370
H       24.13812000       3.88124000      15.52520000      -0.01453500       0.00827764      -0.00268974
O        3.76644000       7.47584000       6.74586000      -0.04932390      -0.04912010      -0.00744084
H        5.22094000       6.50674000       7.45996000      -0.02958370       0.01225270      -0.00861522
H        2.15794000       6.13774000       6.49266000       0.06937100       0.03961670       0.00976369
O       17.58890000      15.67380000       0.77596000       0.08053210       0.13790100      -0.02853220
H       16.81710000      16.07100000       2.20426000      -0.04484160       0.01734050       0.09150820
H       17.27180000      14.20600000       0.20646000      -0.04572650      -0.15318900      -0.05531520
O        6.06144000      23.84547100       9.29916000       0.06530230      -0.10804800       0.03200540
H        7.73454000      23.39436000       8.40126000      -0.02777830       0.03430630       0.00490537
H        6.46134000      22.07645000      10.48546000      -0.03187980       0.08273390      -0.04289580
O       15.84176000       8.84834000      10.25016000      -0.00226702      -0.05699320       0.07895610
H       17.13616000       8.29292000      11.54596000      -0.02678010       0.00320614      -0.03109650
H       16.60006000      10.13420000       9.40346000       0.03162750       0.05273830      -0.04703650
O       19.96568000      17.41508000      18.27223000      -0.10213500       0.15557900       0.13052500
H       21.01099000      17.03758000      19.61468000       0.02437200      -0.00298994       0.05081780
H       20.47167000      16.44768000      17.17744000       0.07200050      -0.14840100      -0.18342100
O        6.48412000       4.60724000      10.45704000      -0.05742690      -0.05151270       0.06556000
H        5.44082000       4.86504000      12.15384000       0.04223870       0.00904647      -0.05671950
H        6.00502000       2.69894000      10.34794000       0.02521150       0.04282500      -0.01167510
O        8.67048000      22.89623000      15.50390000       0.01044300       0.06141320      -0.03277330
H        9.93727000      24.33855700      15.65170000      -0.02671220      -0.04369560       0.01050630
H        8.58202000      21.87205000      16.95370000       0.01820380      -0.01214060       0.02951750
O       15.74928000      20.60920000      23.71026000       0.02899450      -0.03464120       0.06878150
H       16.00228000      20.43090000      21.99116000      -0.01245580       0.01720080      -0.05914310
H       16.56978000      18.94136000      24.10926000      -0.01663300       0.02577210       0.01274830
O       12.53710000      10.91854000      13.72854000       0.09960390      -0.01126270      -0.02189940
H       10.95620000      10.78434000      13.00254000      -0.04315770       0.00462656      -0.01970780
H       13.94560000      10.45714000      12.27354000      -0.05171400       0.00817207       0.04595560
O       19.63750000      18.93830000       9.36367000       0.05336620      -0.02991310       0.06132090
H       19.51400000      19.76000000      11.16770000       0.00232330      -0.01661440      -0.04777650
H       21.04070000      17.45400000       9.70134000      -0.05274930       0.04167390      -0.01729270
O       15.03810000      20.49000000      19.02659000       0.08310720      -0.00822231      -0.01272100
H       13.63000000      19.45990000      18.88512000      -0.04381750      -0.02222440      -0.00412622
H       16.54380000      19.31040000      18.80021000      -0.03094310       0.02517370      -0.00509141
O       21.53250000      22.49826000       5.93226000      -0.01914820      -0.03037780       0.02121750
H       21.15830000      20.98596000       7.13596000       0.01463480       0.02919460      -0.02808620
H       23.26020000      22.55566000       5.38086000       0.00042414      -0.00897091       0.00578011
O       14.61695000       9.55084000       2.51859000      -0.02477790      -0.06324090      -0.00951386
H       15.37007000       9.93926000       0.87721400       0.00276495      -0.00642169       0.00902505
H       14.00604000       7.63868000       2.31816000       0.02625940       0.06923260       0.00753835
O       15.79220000       1.47184000      14.02760000       0.03900610       0.00164668      -0.03249880
H       15.07870000       1.77504000      12.32800000      -0.00584959      -0.01011680       0.02273960
H       14.79630000       1.61624000      15.50290000      -0.02413310      -0.00126364       0.00569054
O       22.17169000      13.46190000      14.61036000       0.02113160       0.02702380       0.01904100
H       21.05538000      12.21500000      15.10196000      -0.01596600      -0.04463580       0.03308790
H       21.29416000      13.88110000      13.13646000      -0.00145301       0.02010840      -0.04835600
O       21.96276000      16.20476000      22.81862000      -0.06261310      -0.06837380      -0.05568330
H       22.85016000      17.33826000      23.66541300       0.07752160       0.06904740       0.05204850
H       20.46236000      16.10206000      23.83328900      -0.01119910       0.00081609       0.00312061
O        0.67686000       8.59199000      18.60188000      -0.08663610       0.09193480       0.06570970
H        1.86266000       9.81353000      18.51138000       0.05644140       0.03426850      -0.01358140
H        0.92966000       7.06573000      18.02518000       0.02991290      -0.11027000      -0.04530270
O       10.86914000      23.77786000       6.52600000      -0.03484070      -0.08332500      -0.02747760
H       12.21014000      24.38596000       7.47490000       0.03941830       0.03109170       0.02703160
H       11.40654000      21.89366000       6.40768000      -0.02045560       0.04317860      -0.00520803
O        8.65765000      19.18888000      12.31306000       0.00088570       0.01790450      -0.01408020
H        9.44272000      17.80548000      13.11346000       0.00707302      -0.02295280       0.00982215
H        9.00947000      20.57258000      13.50466000      -0.00208911       0.00356820      -0.00535739
O        0.07395700       3.66876000       5.77775000       0.00422070      -0.02731380      -0.01996740
H        0.65779100       1.85216000       5.47715000      -0.01050090       0.04773390      -0.00368035
H       24.00642600       4.45596000       4.14140000       0.00824707      -0.01214300       0.01886960
O       16.13257000      17.17687000       5.76835000      -0.02980000      -0.02937140      -0.04379010
H       14.47084000      17.36762000       6.44256000      -0.03029920      -0.00173514      -0.01471350
H       16.94267000      17.72715000       7.16801000       0.06226060       0.03089620       0.05696820
O       19.90883000       8.97807000      17.05650000      -0.05054530       0.09932320       0.09710530
H       21.36886000       8.89006000      18.03110000       0.03271350      -0.00008659       0.02193900
H       20.17722000       7.96352000      15.82020000       0.01944080      -0.10348900      -0.12022600
O       23.84990000       6.75114000       1.47178000      -0.03973370       0.01926060      -0.02702880
H       23.66830000       5.61094000      24.44144800      -0.00513659       0.01984240       0.02979670
H       22.44830000       8.10174000       1.28341000       0.04099830      -0.04192800       0.00162291
O       22.38520000       2.57895000      23.17196000      -0.07652160      -0.04874110      -0.02997810
H       20.97300000       1.46863000      24.15206000       0.04434970       0.03440610      -0.01573970
H       21.55610000       2.41399000      21.40736000       0.03525710       0.01167670       0.04603230
O       18.57300000       0.01476000       1.44522000      -0.02977670      -0.03337970      -0.02422490
H       19.07540000      23.56770000       2.92282000       0.00871610       0.00660028       0.00623416
H       17.41530000      23.17890000       0.59032000       0.02650210       0.02533460       0.01206320
O        7.54084000      10.14590000      22.11230000      -0.05224900      -0.05037760       0.03503660
H        7.54764000       8.26171000      21.64160000       0.00401170       0.04699490       0.01269160
H        6.07264000      10.10580000      23.46960000       0.03779160       0.00301724      -0.03406770
