192
Lattice="24.55108 0.0 0.0 0.0 24.55108 0.0 0.0 0.0 24.55108" Properties=species:S:1:pos:R:3:force:R:3 TotEnergy=-1103.42398 cutoff=-1.0 nneightol=1.2 pbc="T T T"
O       24.50270000      23.27459000      13.37926000       0.00274537       0.00088984      -0.00812732
H       23.09230000      22.14544000      13.75796000      -0.00911596      -0.00020081       0.00729354
H        0.58432000      22.56434000      11.84516000       0.01311000      -0.00699593      -0.00459931
O        2.49004000      24.18062000      23.04153000      -0.06068980       0.03268890       0.02009320
H        0.73494000       0.57684000      23.44366000       0.05722320      -0.02878210      -0.00895134
H        2.19654000      23.48822000      21.39968000       0.00430537      -0.00065942      -0.00955056
O       13.10500000       0.22958900      17.46520000      -0.01078630      -0.04132470      -0.09667790
H       13.47640000       1.10161000      18.82310000       0.03329810       0.06976060       0.09457170
H       12.08370000      23.47953000      18.07000000      -0.01772740      -0.03375210       0.00717396
O       22.33591000      11.36488000      22.47065000      -0.03077340       0.02757290       0.03333520
H       23.50848000      10.94458000      21.20423000       0.01400150      -0.00865727      -0.02379020
H       22.17767000      13.20498000      22.65801000       0.01227510      -0.00636731      -0.00421963
O        4.77067000      10.14342000      15.53990000      -0.02080550       0.00553179      -0.02876610
H        5.77592000       9.88222000      16.93410000       0.02451550       0.00052249       0.05104310
H        5.66223000       9.07812000      14.35210000      -0.00618668       0.00076693      -0.01895100
O       17.86276000      11.51390000       6.80074000      -0.02427970       0.04746100      -0.02584970
H       17.52417000      13.43500000       6.40498000       0.00729578      -0.05440460       0.01808690
H       16.69175000      10.65990000       5.59782000       0.01510480       0.00472008       0.01358590
O       18.15232000       4.94052000      13.95230000       0.06855420      -0.05405500       0.00053947
H       20.26682000       4.43182000      13.86830000      -0.08235590       0.01332310      -0.00610410
H       17.26772000       3.23002000      14.09300000       0.02123050       0.03781450      -0.00625239
O        3.42839000      15.02226000       7.67545000      -0.05540680       0.06342270      -0.01766840
H        4.75557000      14.09266000       8.16906000       0.06543470      -0.05294590       0.02498770
H        3.61518000      16.57156000       8.69947000      -0.01174570      -0.01287690      -0.00577606
O        7.85732000      15.20036000      17.91920000      -0.00866689       0.00488203      -0.00903174
H        6.08902000      14.82226000      17.87060000      -0.00619804      -0.00039899       0.00252104
H        8.65772000      13.63316000      18.26230000       0.00588434      -0.00990610       0.00849807
O       11.01260000      21.00446000      23.56176000       0.00000273      -0.04233900       0.01518430
H       12.91210000      20.72156000      23.03816000      -0.04505570       0.00601867       0.02994370
H       10.37290000      19.61776000       0.26998000       0.02854210       0.03265380      -0.03554950
O        9.10998000       3.72922000       9.84506000      -0.01098060      -0.02146910      -0.00027973
H        9.05218000       2.00687000       9.12868000       0.01233610       0.00506922       0.00258875
H       10.74108000       4.06812000      10.51070000       0.01216090      -0.00034442      -0.00196023
O       13.61008000       3.46382000       2.74524000      -0.00101713       0.04720490       0.02713370
H       12.08418000       3.01852000       1.96494000      -0.02073110      -0.01625480      -0.01634880
H       14.83198000       2.21532000       2.59484000       0.02001550      -0.02933750      -0.01518260
O       11.41240000      18.21526000       8.02568000       0.00835503      -0.02018070       0.00847285
H       10.82780000      17.38746000       6.53768000      -0.00920741       0.00667496      -0.02708540
H       11.49130000      16.68786000       9.02418000       0.00051255       0.01161610       0.01372580
O        1.97542000      14.92310000      14.82822000       0.13112100      -0.00142918      -0.01779980
H        0.51432000      14.15400000      14.93212000      -0.12184700      -0.04182440       0.01155270
H        2.97282000      13.32790000      14.36902000      -0.00980226       0.04297670       0.01154760
O        3.64592000       2.42261000       4.21934000       0.12625000      -0.02674070       0.03533080
H        3.63444000       0.80059600       5.57769000       0.03274010       0.02935950      -0.01961730
H        2.02921000       2.22860000       4.20446000      -0.15125900       0.00948687      -0.02266330
O       15.42156000      24.30280000       7.09412000       0.05982670       0.04996560      -0.01559200
H       17.45106000      24.36920000       6.95022000      -0.05760870      -0.01332860      -0.00189854
H       15.07316000       1.45852000       6.31012000      -0.00333144      -0.03744940       0.01786350
O       17.23046000      11.32650000      23.38200000      -0.02486720      -0.00050711       0.01262220
H       15.85576000      10.95400000      22.16890000       0.03207110       0.01270540       0.00091830
H       18.91826000      11.71530000      22.75940000      -0.00746556      -0.02063040      -0.01883930
O        4.30978000      15.61664000       2.32438000       0.01740410       0.13680600       0.01129630
H        4.43758000      15.58484000       4.12108000      -0.00836774       0.02346120       0.02589020
H        4.16958000      14.00744000       2.22578000      -0.01457460      -0.16263400      -0.03766860
O       20.27824000      20.70510000      13.90182000      -0.01759390       0.15736400      -0.08215410
H       18.96034000      22.24030000      14.24442000       0.04473860      -0.05831660      -0.02444120
H       19.88944000      19.61320000      15.05132000      -0.02930660      -0.10504800       0.10511900
O       11.22544000      12.35108000       0.71479900      -0.03934670       0.09678630      -0.05839670
H        9.97374000      11.90368000      24.05337200      -0.00286004      -0.01518640      -0.00313531
H       11.91964000      11.10558000       1.57436000       0.04142690      -0.08767940       0.05142260
O        2.88092000      18.91570000      11.57148000      -0.09491850      -0.02688810      -0.06569140
H        4.29882000      19.58500000      12.06408000       0.11578900       0.06097820       0.02891700
H        2.42452000      18.00820000      12.99848000      -0.02013120      -0.03379850       0.02913930
O       11.54288000       6.01539000      14.77794000       0.03848300       0.04765660      -0.02336570
H       12.48138000       7.27297000      15.79504000       0.00173245      -0.00052869      -0.01831130
H       10.94248000       5.20427000      16.15574000      -0.03499580      -0.04938060       0.05397660
O        9.31065000       1.54178000      24.27028000      -0.00527395      -0.00411414       0.01377980
H        7.65162000       2.01791000       0.32995300       0.00451819      -0.00942627       0.00221762
H        9.56395000      24.30639700       0.15909500      -0.00310979       0.01100440      -0.01200050
O       20.29012000      24.10544800       5.54662000       0.01259890       0.08582040      -0.00021882
H       21.18512000       1.34676000       5.57792000      -0.03809510      -0.03272470      -0.00819369
H       21.80842000      23.27211000       5.87152000       0.02660680      -0.04490570       0.00566431
O       23.49136000      11.18644000       7.95542000       0.01833280      -0.04688320       0.05566840
H       21.96904000      11.31864000       7.19072000      -0.06509280       0.00215782      -0.03091640
H       24.51239700      12.38004000       7.28442000       0.04499780       0.05026080      -0.02413190
O        8.97175000      15.89152000      12.77390000      -0.01772170      -0.05387570      -0.01709660
H        8.43290000      14.35942000      11.73970000       0.01672830       0.04200410       0.00860947
H        8.27293000      15.28682000      14.35580000       0.00719349       0.01276150       0.00815994
O        9.63918000      20.11640000      18.48310000      -0.02438060      -0.04297830       0.03670200
H        8.77478000      18.40350000      17.79440000       0.03134310       0.06014030       0.04455990
H        9.72668000      20.20250000      20.62700000      -0.00372028      -0.00897095      -0.07616640
O        4.66542000       9.65312000       1.72904000      -0.00344950      -0.04076950       0.03689340
H        5.34382000       8.57182000       3.17384000      -0.01108660       0.02943980      -0.03471410
H        2.96952000       8.89372000       1.55004000       0.01180350       0.01175840      -0.00256721
O        9.63613000       5.22282000      20.55830000      -0.06805180       0.00939535      -0.00724073
H       11.34490000       4.99352000      20.73180000       0.05135690      -0.01497030       0.01458570
H        8.76657000       3.86962000      21.49620000       0.02073220       0.01252890      -0.01077540
O        3.23827000       0.08598000      17.13110000       0.02059810      -0.00521251      -0.01357150
H        2.17966000      24.12536000      15.54370000       0.04599810       0.00756838       0.03588260
H        5.20001000       0.10778000      17.12140000      -0.06579400      -0.00473889      -0.01886390
O        1.12431000      19.55500000       0.60773600      -0.02695300      -0.11614700       0.03136510
H        2.27474000      18.06780000       0.34222000      -0.00673474       0.05303360       0.00475862
H        1.22561000      21.22710000       0.26698900       0.03868940       0.06075650      -0.03030310
O       23.66243500       3.49658000      13.24010000      -0.02187390      -0.05855560       0.01923910
H       24.24525100       4.67711000      12.09070000       0.02144860       0.03591960      -0.03272760
H       24.07838400       1.71458000      12.58650000      -0.01269530       0.03400650       0.02056150
O       14.64516000       3.52024000      21.21876000      -0.12728700      -0.03688250      -0.05592980
H       15.60376000       4.73004000      20.64516000       0.08232820       0.08689090      -0.04298090
H       15.29356000       2.78904000      22.53986000       0.04937210      -0.05010090       0.10202900
O        5.95613000       6.15854000       6.81578000      -0.07111740       0.03258180      -0.05966030
H        7.00920000       4.93274000       7.33848000       0.06197940      -0.04348420       0.04073390
H        5.09481000       4.99334000       5.54618000      -0.00405493       0.01641750       0.00892031
O        9.59856000      16.60682000       2.62634000      -0.02730630       0.03060320       0.00930620
H       10.11486000      15.07532000       1.80144000       0.00639428      -0.01301330      -0.00152434
H        7.72386000      16.62252000       2.54327000       0.02476870      -0.00398091      -0.00271287
O       14.24120000       9.34182000      18.40000000       0.01670730       0.00441685      -0.02563090
H       15.87130000       8.32512000      18.34570000      -0.02910600       0.03173260      -0.00182057
H       14.17010000      10.71812000      17.03910000       0.01338350      -0.02825900       0.03041340
O        8.13818000      11.98308000       8.72770000       0.01376530      -0.04682530       0.03940350
H        8.10548000      10.92638000       7.30182000      -0.00574002       0.00293533      -0.04066060
H        8.45388000      10.37178000       9.78573000      -0.01100850       0.04189220       0.00517063
O       23.87194000       3.61108000      18.45860000      -0.03956020       0.01053670      -0.05972220
H        0.69566000       2.58041000      18.84720000       0.03433470      -0.02241540       0.00378660
H       23.64804000       3.25897000      16.47920000       0.01156550       0.01778330       0.05508000
O        1.17488000       6.77138000       9.44322000       0.06954410      -0.04817020      -0.03908420
H        2.85208000       6.32108000       8.24742000      -0.05843860       0.02211800       0.05150570
H        0.47918000       8.27108000       8.77172000      -0.00774687       0.02640910      -0.00628685
O       17.23660000      16.22220000       0.66902000      -0.03426740      -0.03364120       0.03097790
H       16.18890000      16.63960000       2.24842000       0.03467800      -0.02040340      -0.03623350
H       17.21580000      14.26240000       0.29962000      -0.01381550       0.04825810       0.01070590
O        3.79638000      23.43618000       7.36512000       0.03017980      -0.00409663       0.01961520
H        5.65408000      23.05061000       7.93992000      -0.05042030      -0.00185031      -0.02986720
H        2.63848000      22.07230000       6.87352000       0.01459230      -0.00231811       0.01143940
O       17.69872000      10.54780000      12.11262000       0.00209750      -0.02160890      -0.10029300
H       17.48272000       8.71187000      12.00722000       0.00245596       0.00889660       0.01873620
H       17.82982000      10.72380000       9.96352000      -0.00357881       0.01161950       0.06979880
O       20.03337000      16.82886000      17.69869000      -0.01338590      -0.01422750      -0.01607810
H       21.10936000      17.33336000      19.02899000       0.00608307       0.00042541       0.01878650
H       20.26382000      14.99936000      17.49619000       0.00270710       0.01769910      -0.00474690
O        7.87794000       7.90998000      12.11988000      -0.03954200       0.02922500      -0.02642660
H        8.91064000       7.28258000      13.37918000       0.04423220      -0.01220930       0.03435060
H        7.28124000       6.38998000      11.37078000      -0.00710797      -0.00669386      -0.01371700
O        8.95544000       0.94368200      15.04250000      -0.06345610       0.02056740      -0.06503810
H        9.04645000       2.14836000      13.57700000      -0.00191998      -0.02513080       0.03212040
H       10.41420000       1.07521000      15.97680000       0.05224940       0.00544402       0.02553350
O       15.87886000      20.65556000      22.81782000      -0.01311090       0.09514840      -0.05528280
H       15.52696000      20.64965000      20.95842000       0.01617300      -0.02397700       0.02028920
H       15.99506000      19.17255000      23.64662000       0.01178390      -0.08131010       0.01766900
O       14.28520000      13.19068000      14.58837000       0.02215070      -0.03622060       0.00996115
H       13.43400000      14.47018000      13.80168000      -0.03701100       0.04194880      -0.01739210
H       15.08930000      12.32458000      13.15988000       0.00904690      -0.00403394       0.01333240
O       21.21340000      17.50360000       9.62156000       0.00788652      -0.04958620      -0.06904030
H       20.93320000      18.82190000      10.66240000      -0.01055460       0.05137070       0.06060790
H       22.13860000      16.17720000      10.41060000       0.00215045       0.00073757       0.00882282
O       14.78510000      19.31980000      17.69059000       0.04357040      -0.07325930      -0.02846880
H       13.07660000      19.20010000      17.27478000      -0.04525540       0.01738670       0.00441560
H       15.22240000      17.51130000      16.99924000       0.00761437       0.05836690       0.03093810
O       24.10800000      20.47682000       6.00632000      -0.02890640       0.03097290       0.08119760
H       23.18360000      19.33042000       7.19072000       0.01808690       0.00516560      -0.02376640
H        0.16692000      19.74972000       4.58012000       0.01528080      -0.03977360      -0.05985990
O       14.57180000       8.99095000       2.93989000       0.07052790       0.11396200      -0.06849060
H       15.56019000       8.99614000       1.20981000      -0.02794090      -0.00081874       0.06028980
H       13.95808000       7.47874000       3.22487000      -0.03653760      -0.11291000       0.01455240
O       16.42200000      24.18176000      12.33430000      -0.04102590      -0.01329890      -0.00831418
H       16.44130000       0.16898000      10.59220000       0.01177010       0.00534792      -0.00667665
H       14.75040000      23.32236000      12.14370000       0.02919540       0.01089770       0.02106710
O       21.60750000      12.54080000      15.27792000       0.01298910      -0.01953600       0.01753730
H       22.15341000      11.01420000      16.18632000      -0.00295939       0.01349880      -0.00621198
H       20.42438000      11.92530000      14.05512000      -0.00915868      -0.00349373      -0.00871971
O       21.50262000      16.84032000      22.97751000      -0.10521200      -0.09246270      -0.04879380
H       22.84852000      17.74522000      23.30404000       0.07842750       0.07628760       0.04508110
H       19.75692000      16.95522000      23.71373800       0.03843130       0.01594450       0.00633548
O        0.14672000       8.99863000      18.65096000       0.03714300      -0.00445463      -0.01590200
H        1.77742000       9.72943000      17.96856000      -0.03470620      -0.02443510       0.00878903
H        0.30082000       7.11158000      18.59356000      -0.00271867       0.02655860      -0.00121860
O        9.01918000      23.33612000       8.09456000      -0.00184724      -0.01498910       0.04239120
H       10.40898000      22.30052000       7.39534000      -0.02152990       0.01213190       0.01507620
H        8.60448000      22.64152000       9.98528000       0.01933370       0.00101199      -0.04889450
O        7.65203000      21.27026000      12.41302000       0.03284090      -0.04937220       0.01457670
H        8.77265000      19.85816000      13.10362000      -0.03062860       0.01845750      -0.03319680
H        8.08695000      22.44346000      13.69242000      -0.00382162       0.03577870       0.01920520
O       22.47775000       4.80702000       5.34695000       0.01074770       0.00021336      -0.01926360
H       23.36104000       5.41602000       6.82613000       0.00103892      -0.00124323      -0.00081974
H       23.30140000       5.66232000       3.84448000      -0.01845790      -0.01036820       0.02859180
O       16.44508000      16.89222000       6.29765000      -0.03851070       0.01589370       0.00178793
H       15.02702000      17.94531000       6.92672000      -0.00555794      -0.02283260      -0.01576440
H       17.62883000      17.75397000       7.28596000       0.04323980       0.00273614       0.01127660
O       18.51211000       6.33471000      18.77690000       0.05514220      -0.03431780      -0.00045779
H       20.11438000       5.30909000      19.41420000      -0.05584850       0.03984110      -0.02626630
H       18.52491000       6.11537000      16.86010000      -0.00072876      -0.00682846       0.02793350
O       23.88840000       7.60258000       1.35725000       0.02952340       0.05847570       0.06927590
H       23.53280000       6.45528000       0.21815600      -0.00560326      -0.10169400      -0.08107890
H       22.53330000       8.64238000       0.88158400      -0.01528630       0.04120630       0.00455280
O       22.58330000       2.39496000      23.63452000      -0.08983090      -0.02465240       0.13658300
H       20.51280000       1.90880000      24.09372000       0.08259150       0.01081440      -0.01533180
H       22.73710000       2.55767000      21.99302000       0.00036982       0.01392820      -0.11890700
O       17.70830000       0.34552000       0.90494000       0.00552734      -0.06892680      -0.01624250
H       18.26600000      23.83100000       2.32464000       0.00732825       0.03050170       0.00980338
H       17.42520000      23.23080000      24.45012000      -0.00820277       0.04569550      -0.00194638
O        7.28498000      10.21710000      20.90510000       0.03353260      -0.08772130       0.03216210
H        8.62568000       8.62445000      20.83790000      -0.04289100       0.05276900      -0.00765232
H        6.23128000       9.34958000      22.24750000       0.01177990       0.03044750      -0.02397760
