192
Lattice="24.04344 0.0 0.0 0.0 24.04344 0.0 0.0 0.0 24.04344" Properties=species:S:1:pos:R:3:force:R:3 TotEnergy=-1103.3177 cutoff=-1.0 nneightol=1.2 pbc="T T T"
O       20.38910000       2.93984000      16.26768000       0.01943400       0.01006120       0.07590160
H       20.84500000       3.52705000      18.15048000      -0.00615351       0.01005050      -0.06212650
H       19.70610000       1.38570000      16.89738000      -0.02055260      -0.01894720      -0.01586030
O       18.44356000      18.07556000      10.32580000       0.02885610       0.03021600      -0.02571790
H       20.30036000      17.87356000       9.87093000      -0.03757850      -0.00069382      -0.00504766
H       17.78076000      19.64116000       9.31942000       0.01911670      -0.03385370       0.01967180
O       13.29940000      23.21575600      21.38270000       0.05483380       0.06177590       0.03543500
H       12.02710000      22.28175000      20.71270000      -0.04038980      -0.04645220      -0.03036910
H       14.54140000      23.64504200      20.03210000      -0.00671149      -0.01749990       0.00515083
O       19.28090000      17.79504000      19.01562000       0.08707680      -0.00402589       0.00394000
H       20.49554000      17.78516000      17.53058000      -0.04505250       0.00526119       0.00382963
H       20.82488000      17.63293000      20.16182000      -0.04493080       0.00462650       0.00363368
O        7.13853000       4.66016000      23.77570000       0.08007490       0.05129190      -0.05682210
H        8.72049000       6.14196000      23.90240000      -0.07226680      -0.06864290      -0.00344097
H        7.57455000       3.78796000      21.86000000      -0.00404646       0.01786520       0.06276590
O       23.51487600      15.74250000       9.08797000       0.00196616      -0.04633180      -0.07730320
H       23.35391900      14.62840000       7.37822000      -0.02996050       0.01206670       0.05638070
H        1.06391000      16.02930000       8.26930000       0.02660220       0.02858580       0.03166930
O       14.21536000      22.25900000      12.65030000      -0.02815570       0.00452318       0.03964320
H       15.24836000      22.20530000      11.20520000       0.01405560      -0.01032210      -0.02468990
H       13.32436000      20.64840000      12.91310000       0.00668007       0.00502879      -0.00783499
O       24.01330000       1.57714000      13.01520000       0.02562300      -0.04464830       0.00610214
H        0.79366700      23.77018000      12.73410000      -0.02553760       0.05263060       0.01327760
H       22.72955000       1.62084000      14.39320000       0.00887906      -0.00412340      -0.01477390
O        8.50866000      11.75618000      18.18010000       0.07433850      -0.02138240      -0.00264119
H        9.94276000      10.48338000      17.52580000      -0.04935840       0.03651600       0.01756300
H        9.58086000      13.13628000      18.91040000      -0.01769490      -0.01736970      -0.00949140
O        5.45318000      20.09838000       2.77844000      -0.11483200      -0.00859198      -0.00503604
H        6.94476000      19.36178000       2.72204000       0.10623400      -0.03263430      -0.00563368
H        5.41410000      21.85868000       2.64784000       0.01710130       0.04165430      -0.00023658
O       11.47874000       1.10062000       4.63787000      -0.06241710      -0.03811010      -0.05561070
H        9.58754000       1.12723000       3.66780000       0.07318080      -0.00237893       0.04353120
H       12.31744000      23.46571100       3.99283000      -0.01676790       0.04446400       0.01306660
O       11.98724000       8.85826000       1.19712000       0.15493700      -0.10045700      -0.10332300
H       12.97744000       9.57486000      23.69276000      -0.03476440      -0.01890470       0.05505310
H       10.90104000       9.94786000       1.63472000      -0.12364800       0.12685100       0.04734720
O       13.09680000      18.20518000       6.35324000       0.07178860      -0.06215270       0.00909100
H       14.96160000      16.79198000       6.48684000      -0.05728630       0.06629580      -0.02592850
H       12.12640000      17.23108000       7.52314000      -0.01957270       0.00833712       0.00897390
O        2.97906000      21.45520000      12.98476000       0.04469800       0.09510000      -0.04389150
H        3.61976000      21.17350000      11.30396000      -0.01115880      -0.01142380       0.00989436
H        2.17716000      20.17660000      13.70486000      -0.03986780      -0.08865580       0.03328720
O       21.36807000       5.80101000      20.68961000      -0.02116730      -0.00723765      -0.00287324
H       23.08943400       6.36800000      20.69463000       0.00649618      -0.00828562       0.00944627
H       20.84288000       4.72686000      22.11399000       0.02103690       0.01111280      -0.00436011
O       21.94268000      18.78900000       4.85286000      -0.01532530      -0.03346670      -0.00079265
H       23.54788000      18.13350000       5.30166000       0.00580653       0.00496442       0.00540623
H       22.05058000      20.42200000       4.21466000       0.00889100       0.03608010      -0.00765687
O       16.23618000      14.03470000      19.58370000       0.05917230       0.03144410       0.10291100
H       15.73338000      13.85080000      18.00430000      -0.03549560      -0.01208160      -0.10760200
H       17.51648000      15.56140000      19.53150000      -0.02303380      -0.03076700      -0.00244575
O        7.46374000      12.50692000       2.16214000      -0.06278450      -0.01385620       0.03029940
H        6.29114000      12.11612000       3.74304000       0.04617300       0.01450090      -0.05569240
H        6.28214000      12.68352000       0.60274000       0.01753090      -0.00379992       0.03503360
O       16.65592000      22.89000000      17.65526000      -0.04042790      -0.01477940      -0.06245670
H       15.49412000      22.84300000      15.76916000       0.05484190      -0.00786621       0.06962890
H       17.27812000      21.14490000      18.03636000      -0.00997026       0.02712620      -0.01590550
O        5.87312000       1.12524000       3.41940000       0.02550210      -0.00355744      -0.03035700
H        4.66322000       0.86644000       4.72893000      -0.01127210       0.01474410       0.02398040
H        5.78312000       2.72794000       2.53349000      -0.00496513      -0.00668399       0.00134391
O        8.71186000      16.76450000       9.32804000       0.02035230       0.09342560       0.02058550
H        8.44916000      15.12700000       8.96794000      -0.02124120      -0.07954770      -0.01028140
H        9.41126000      16.98210000      11.01324000      -0.00310645      -0.00457297      -0.00234756
O       12.96334000       6.44775000      11.24012000       0.05879880       0.01143080       0.02839260
H       12.62414000       4.80342000      10.42912000       0.00993258       0.00906538       0.01108790
H       14.99218000       6.75060000      11.97172000      -0.06075870      -0.03189460      -0.02696700
O        8.88951000       2.17725000      19.70957000       0.03426650       0.03148420       0.01466970
H       10.67270000       1.78351000      20.24055000      -0.03802370      -0.00987255      -0.01049520
H        7.93698000       0.77589100      19.12149000       0.00145957      -0.02220430       0.00057666
O       17.17366000       9.43445000      21.84600000       0.03784280       0.01692010      -0.02004050
H       17.11256000      10.88690000      20.69150000      -0.02560290       0.01796940       0.01099810
H       18.86436000       9.03461000      21.15040000      -0.01169090      -0.02642100       0.02043350
O       23.75319100      13.02602000       4.60586000      -0.00991141      -0.02078250      -0.02825000
H       22.35567000      12.40002000       3.48346000       0.01292510       0.02114610       0.01851980
H        0.97858600      11.77282000       4.16296000       0.00128803       0.00708008       0.00601494
O        7.35783000      11.94486000       8.04012000       0.12932000       0.08385720      -0.05674590
H        6.21479000      10.95506000       8.69457000      -0.07948960      -0.08351270       0.06210680
H        9.15535000      11.53496000       8.54404000      -0.04453620      -0.00556915      -0.01176530
O       10.47734000      19.60260000      18.97810000      -0.00951595      -0.00637071       0.01364660
H        8.80384000      19.71790000      19.61960000      -0.03008900       0.03774750      -0.01765830
H       10.51714000      18.01980000      19.84560000       0.04409920      -0.03104690       0.00356225
O        1.99366000       8.69636000       1.86602000       0.05415840      -0.00255855      -0.04166890
H        1.04576000       9.03096000       0.21052000       0.03481790      -0.00295075       0.03376100
H        3.99476000       8.41056000       1.47452000      -0.08766850       0.01010270       0.00694939
O       11.82660000       8.62646000      15.58220000       0.06167840      -0.06133820       0.01348520
H       11.89130000       7.53376000      14.08100000      -0.02675490       0.01512680      -0.03101510
H       13.18740000       7.31776000      16.21140000      -0.03483900       0.04528120       0.02363200
O       20.38597000       2.48904000       1.08166000      -0.04318450      -0.01556040      -0.00690408
H       18.62549000       1.73004000       1.01436000       0.04469560       0.01734070       0.00562074
H       21.44749000       1.30064000       2.01116000      -0.00381884       0.00550176      -0.00205070
O        4.91355000      13.05580000      22.01163000       0.00666436       0.03845140       0.03185050
H        6.14710000      12.21840000      21.09688000       0.02116520      -0.02502520      -0.03480450
H        3.24129000      12.53240000      21.66896000      -0.02688910      -0.01916950      -0.00699682
O        4.05689000       1.95651000      16.13860000      -0.04882420      -0.03174190      -0.06248490
H        2.39824000       2.17658000      14.86280000       0.03935250      -0.00944784       0.03850430
H        4.29410000       3.45113000      16.99840000       0.00062491       0.04011920       0.02227550
O       14.16438000       6.04822000      19.63058000       0.04729650       0.04601690      -0.00052288
H       12.82818000       5.36532000      20.44838000      -0.05612410      -0.03487300       0.02352140
H       14.64818000       7.38272000      20.88418000       0.01258030      -0.02029500      -0.03022790
O        3.57611000       0.02742000       7.67804000       0.02959610      -0.00277756       0.03198780
H        4.67247000       1.03602000       9.22574000      -0.02861770      -0.03127250      -0.04597980
H        4.05407000      22.23836000       7.36154000      -0.00382388       0.03357150       0.02042570
O       19.17778000      11.59636000       2.53476000      -0.04635250       0.11464600      -0.10843600
H       18.33278000      10.86926000       0.97355600       0.01364540       0.02881370       0.01318720
H       19.41128000      10.17726000       3.24633000       0.02969380      -0.14764500       0.09606100
O       21.16160000      10.16336000      12.81900000       0.03304040      -0.03129250      -0.01574330
H       19.81760000      11.25586000      12.24580000       0.00690827      -0.00165230      -0.02306080
H       22.25990000       9.21786000      11.42940000      -0.04264140       0.03315880       0.04304320
O       10.71734000       1.63984000       9.90703000       0.02509670      -0.02395420      -0.01640220
H       10.68864000       1.24924000       8.00261000       0.01047270       0.00421035       0.03689520
H       11.91034000       0.40354000      10.80650000      -0.02852320       0.02445740      -0.02229550
O        3.17268000       6.91108000      20.13810000       0.00927160       0.02917710      -0.04980580
H        4.29668000       7.71452000      18.75110000      -0.03266410      -0.01924490       0.03475960
H        4.20578000       5.98311000      21.24830000       0.01743170      -0.00814371       0.01459180
O        4.52814000       8.59294000      10.64706000       0.01719220      -0.09636940      -0.01546230
H        5.71604000       6.96784000      10.70226000      -0.03100510       0.05760930       0.00270038
H        2.99714000       7.45304000      10.11186000       0.01881510       0.03809810       0.02413620
O       17.32470000      16.55010000       4.54706000      -0.05379960      -0.06903100      -0.01491740
H       18.85040000      17.28880000       4.78546000       0.06787210       0.04065000       0.01507600
H       17.84030000      14.78460000       4.17366000      -0.01202970       0.01875930      -0.00073429
O        5.76684000      21.83197000      18.74246000       0.06157680       0.09131840      -0.08439390
H        4.68984000      20.94435000      19.61326000      -0.08076770      -0.06512780       0.06950730
H        4.79194000      23.09332700      17.68206000       0.01529510      -0.01941930       0.01286520
O       17.56986000       3.42266000       7.76536000      -0.00910843       0.04138080      -0.00079038
H       17.72266000       4.45362000       9.28336000       0.00545074      -0.01129480      -0.00458086
H       16.76996000       4.71738000       6.58866000       0.00983783      -0.03595140       0.00923011
O       17.16206000      12.62148000      10.02714000      -0.03154760      -0.03537070      -0.02295400
H       17.42033000      14.35638000       9.54274000      -0.00462037      -0.00071945      -0.00457385
H       15.84268000      11.62998000       8.86074000       0.03615830       0.04214480       0.03331730
O        6.01172000       2.90624000      11.29064000       0.03438680       0.01739490      -0.05589030
H        7.93982000       2.98534000      10.96524000      -0.03980930      -0.01975300       0.01466720
H        5.56522000       2.37284000      12.92054000       0.00379167      -0.00919939       0.03446030
O       16.53650000      22.33422000       7.92710000       0.00542493      -0.01022290       0.00884325
H       17.21090000       0.03406200       8.20277000      -0.02238180      -0.01590590      -0.03089700
H       15.54060000      21.82038000       6.41640000       0.01801910       0.02835810       0.02514880
O       11.57998000      14.89534000      21.37996000      -0.10506700       0.01950600       0.10642300
H       13.19008000      14.49603000      21.19646000       0.11232100      -0.02194460      -0.03174690
H       11.57338000      14.93383000      23.47416000      -0.01685950       0.01119270      -0.07650140
O        4.62712000       9.89954000      15.85326000       0.03041940       0.01326900       0.00626678
H        6.31847000      10.76604000      16.22880000      -0.03737430      -0.01011960      -0.00178745
H        4.67913000       9.49194000      14.06276000      -0.00611526      -0.00271685      -0.00388937
O       20.53010000      20.01730000      14.60810000      -0.17184200       0.01268990      -0.08012100
H       19.84760000      19.14100000      12.84210000       0.01721780       0.02932250       0.06173640
H       22.07620000      19.64610000      14.86250000       0.15550900      -0.03932900       0.01696890
O       11.28140000      17.81930000      14.24181000      -0.00878695       0.05926610       0.04558820
H       12.51940000      16.56570000      14.63079000       0.00312441      -0.01186310       0.00481354
H       11.03690000      18.97450000      15.97751000       0.00305270      -0.05017170      -0.05594850
O       22.84020000       0.30782000       4.93536000      -0.01979210      -0.00351995       0.05975530
H       21.29570000       0.96262000       6.02096000       0.06015490      -0.02213300      -0.03053780
H        0.24566000      23.77936000       6.11986000      -0.03872840       0.02647480      -0.02190250
O        0.21908300       6.29949000      10.82270000      -0.03351780       0.06815420      -0.16595800
H        0.17889800       4.88308000      11.70350000      -0.00340836      -0.09976920       0.05685990
H       23.57816700       5.60902000       8.69967000       0.02408050       0.03022740       0.08833370
O       14.87000000      22.06168000       2.48876000      -0.00139632      -0.04282650      -0.05680180
H       15.15760000      20.15648000       2.72116000      -0.00881790       0.04867510      -0.01130040
H       14.50190000      22.34328000       0.50316000       0.00770756      -0.01120930       0.05868920
O       23.14456700      17.16180000      23.02536000       0.06116650       0.02859220       0.06789920
H        0.76297500      18.05650000      22.57386000      -0.02804400      -0.02434800      -0.01164790
H       23.69277700      17.28690000       0.91522000      -0.04102970      -0.01361530      -0.05945710
O       10.18886000      16.82576000       2.24724000       0.07457730       0.07160580      -0.05098550
H       11.13026000      17.50106000       3.64650000       0.00394501      -0.00600560       0.01795670
H        8.89026000      15.82426000       2.56974000      -0.07044490      -0.07001440       0.03355450
O        1.09886000      17.51690000      16.76318000      -0.03477170       0.01665040      -0.04511910
H        1.06656000      15.74090000      16.44178000       0.00385540      -0.01367590       0.00973000
H        2.04306000      18.11770000      18.09078000       0.02721370      -0.00295107       0.03349130
O        3.89734000      18.18566000      22.24308000      -0.01085960       0.07461230       0.03168640
H        4.81744000      16.71806000      21.94694000       0.01953400      -0.03545240       0.00513689
H        4.42794000      19.16596000      23.87926200      -0.00315529      -0.03448380      -0.03556480
O        4.05718000      18.79258000       7.66336000       0.02247330      -0.00478503      -0.01495440
H        5.75011000      18.70718000       8.50496000      -0.01839020      -0.01466810      -0.01538130
H        4.37457000      18.35468000       5.85636000       0.00062370       0.01314330       0.03114750
O       22.39119000       6.36686000       5.08038000       0.00229913       0.00977025      -0.04065820
H       23.76876900       7.38096000       4.23887000      -0.02284200      -0.02410620       0.01169220
H       21.43842000       5.56556000       3.62233000       0.02299250       0.00989540       0.03501250
O       12.99534000      10.23894000       8.05708000       0.00393924       0.04040560      -0.12329800
H       13.03784000       9.21414000       9.42528000      -0.00363331      -0.06430530       0.05248780
H       13.10164000       9.20144000       6.38611000      -0.00417119       0.02578410       0.06290060
O       17.78326000       6.47831000      13.00180000       0.01021450       0.01350360       0.01003720
H       18.94411000       7.79055000      13.65960000      -0.01016230       0.01171160      -0.02163540
H       18.68975000       5.14218000      13.81730000      -0.00919060      -0.02843780       0.00703849
O       23.87600000      11.96064000      21.76624000      -0.00070438      -0.00418649      -0.04837840
H       23.61930000      11.89954000      19.79404000       0.00751889       0.00390796       0.04352850
H       23.76530000      13.74034000      22.18429000      -0.00948506       0.00197943       0.00238188
O        0.00096000      12.26870000      16.55046000       0.08660130       0.01230910       0.04779530
H       22.84880000      11.40710000      15.61356000      -0.02392400      -0.02721370      -0.03829510
H        1.83306000      11.41320000      16.45086000      -0.05314170       0.01500050      -0.00917816
O       14.77370000       5.30976000       3.87042000      -0.01729290      -0.02998780      -0.01073510
H       13.73710000       3.66376000       3.54192000       0.01836590       0.04861350       0.01328740
H       14.06860000       6.73976000       2.94232000      -0.00301951      -0.01847270       0.00235078
O       14.05301000      13.00280000      14.62950000      -0.06745930      -0.06009920       0.09356100
H       15.15277000      13.14220000      13.35270000       0.05623920      -0.00485100      -0.06781520
H       13.57194000      10.98150000      15.10650000       0.01046580       0.07014810      -0.02809870
