192
Lattice="22.75682 0.0 0.0 0.0 22.75682 0.0 0.0 0.0 22.75682" Properties=species:S:1:pos:R:3:force:R:3 TotEnergy=-1101.97853 cutoff=-1.0 nneightol=1.2 pbc="T T T"
O       18.68420000      19.82110000      10.75650000       0.08516540      -0.00700119       0.01313130
H       17.13930000      17.00710000      11.08830000       0.10978100       0.00559654      -0.01540230
H       17.03050000      19.69620000      11.54920000       0.00426045       0.01557190       0.00439109
O       16.35820000       1.26148000       7.35910000       0.08070810      -0.06028290       0.04208270
H       18.09320000      22.34377600       8.45192000      -0.07452320       0.07537120      -0.03286590
H       16.90410000       3.00464000       8.11019000       0.00218121      -0.03468080       0.00102063
O       14.49830000      20.34060000       3.54000000      -0.01347590       0.00341843       0.00413473
H       12.77520000      20.92490000       3.24018000       0.01570030      -0.00307218       0.00757456
H       15.00670000      21.29640000       5.02953000      -0.00382704      -0.00012617      -0.00532057
O        9.25486000      17.90010000      16.56110000       0.00692924       0.03609360       0.00127436
H        8.74917000      17.24530000      18.26600000       0.01143760       0.01432400      -0.01122340
H        9.45257000      19.78690000      16.68000000      -0.00832658      -0.01749830       0.00103257
O       18.66220000       5.82113000      17.90440000      -0.03245250       0.03132420       0.03731990
H       17.65700000       7.40546000      17.84820000       0.01426530      -0.02955460      -0.00501334
H       19.38100000       5.28106000      16.18690000       0.00737085      -0.01044890      -0.01414680
O        3.77137000       3.21700000       7.47613000       0.03100770       0.01752410      -0.02026120
H        3.55691000       2.25858000       5.87684000       0.00017498      -0.00150749       0.00474244
H        2.34986000       2.78675000       8.40066000      -0.02867730      -0.00900723       0.02315120
O        7.75854000      21.35920000       9.25852000       0.01027440       0.06723330      -0.04307130
H        7.14650000      19.43970000      10.64170000       0.02376590       0.03970770      -0.01541170
H        7.93919000       0.86998000      10.01600000      -0.00488550      -0.06810390       0.00549708
O       14.19890000       3.96717000      20.14250000      -0.02939340      -0.00547734      -0.00214393
H       12.80890000       5.13035000      20.18430000       0.00629979       0.00097954      -0.00335486
H       15.67580000       4.75848000      19.48200000       0.01436700       0.01492940      -0.02139450
O       15.55720000      16.88460000      11.53600000      -0.12640100      -0.01624070       0.02543350
H       12.32560000      18.91990000      14.89090000      -0.00457248      -0.00201083       0.00347364
H       15.41670000      15.98240000      13.07050000      -0.01055750      -0.01761940       0.01953770
O       13.95860000      18.78430000      21.41170000      -0.00609281      -0.03870720       0.03820450
H       13.43200000      16.98050000      21.89750000      -0.00968237       0.02727560      -0.02091260
H       14.39340000      19.45300000       0.34258000      -0.00020282       0.00313309      -0.01884590
O       18.19800000      10.86710000      14.13580000       0.03357240      -0.11238400       0.03928560
H       19.08500000      12.34180000      13.49500000       0.00927950       0.01902920      -0.00751516
H       19.78760000       9.52196000      14.29710000      -0.06313740       0.04510260      -0.00988740
O        9.55848000       7.96813000      17.26120000       0.02983220      -0.01788060       0.00308161
H       11.49040000       8.14099000      17.41480000      -0.03178100       0.00611518      -0.02165160
H        9.00790000       8.32677000      15.57170000       0.01189410       0.00892447       0.00433121
O        6.25263000      18.28650000      21.28050000       0.06849140      -0.02029230      -0.00243779
H        6.16176000      19.51550000      22.58410000      -0.01390970       0.01385930       0.01886380
H        8.00316000      17.54400000      21.78840000      -0.04570270       0.00856160      -0.02229720
O        5.39845000      11.86630000       2.67773000      -0.09626390      -0.01457190      -0.01452600
H        5.16252000      11.08560000       4.36742000       0.00835758       0.00542609      -0.01488510
H        3.39681000      11.50130000       1.88055000       0.10408500       0.02133510       0.02733900
O        5.98634000       4.41361000      18.35700000      -0.01753710       0.00069287       0.01874040
H        7.23719000       3.25708000      17.81420000       0.01479920      -0.00931399      -0.00820759
H        6.54218000       6.12899000      18.15480000       0.01290480       0.00211940       0.00173361
O       14.16040000      13.22400000       4.66009000      -0.08544430       0.08103030      -0.01869950
H       13.02450000      14.69580000       3.42768000       0.04837090      -0.06474180       0.04914500
H       12.84850000      13.01570000       6.19061000       0.03018490      -0.00293459      -0.01220450
O       19.56810000       8.30129000       1.84004000      -0.00486047      -0.00592512      -0.01542310
H       17.84430000       8.81113000       1.11418000       0.02779480       0.00436022       0.01209390
H       20.00750000       6.63916000       1.13339000      -0.00732279       0.00517572      -0.00136571
O       20.07680000      21.58060000       1.30579000      -0.04926760      -0.01020690       0.08245370
H       18.25120000      21.54240000       2.34520000       0.07110970       0.00606637      -0.05967380
H       20.99010000      20.35100000       4.42026000      -0.03289450       0.00986100      -0.04766590
O       11.79440000       1.69259000       6.19554000      -0.05419580      -0.00101007      -0.02406230
H       12.66090000       2.78310000       7.31217000       0.02060870       0.00448988       0.02187530
H       10.49260000       2.84343000       5.61787000       0.00342863      -0.01060180      -0.01218040
O        5.94102000      19.91110000       4.20616000       0.01268080       0.00292682      -0.00336390
H        9.12345000      22.20080000       7.03055000      -0.04391020      -0.03571930       0.05693670
H        4.32473000      20.90560000       4.21968000       0.03816390      -0.02545520      -0.00813544
O        3.29635000      10.87530000       9.51717000      -0.08794090       0.06867460      -0.00106266
H        3.16992000       9.82499000       8.02850000       0.01058730       0.00687548       0.00595043
H        1.63601000      12.33800000       9.28531000       0.05280180      -0.06294020       0.00570719
O       10.23210000       0.43637100      15.66890000       0.00009773      -0.00242553      -0.02516140
H       10.32880000       0.90822000      13.80010000      -0.00454045      -0.01556240       0.05737650
H       11.77940000       0.95285300      16.46430000       0.00974821      -0.00505255      -0.00075567
O       13.74110000       9.78708000      12.88240000      -0.03607260       0.01627300       0.00369882
H       15.53550000       9.67831000      13.11330000       0.00987078       0.00152943       0.00134559
H       13.16630000      10.95880000      14.23920000       0.01005170      -0.01685600      -0.01933580
O        2.85195000       0.64798600       3.45447000      -0.03975710       0.01932030      -0.03370070
H        3.37985000       1.56665000       1.77921000      -0.00759760      -0.01474500       0.02660370
H        1.01488000       0.43998400       3.14211000       0.02330550       0.00180530       0.00443185
O       10.72910000      14.66090000      21.94270000      -0.00328032       0.05637680       0.01893500
H       10.74620000      12.92420000      21.53510000      -0.00145490      -0.01318000      -0.00285088
H        8.97717000      15.24940000       1.51848000       0.04679120       0.01466600      -0.04656410
O       13.00050000       5.58331000       9.51913000       0.02492140      -0.27848100      -0.17382400
H       12.86140000       6.82978000      10.30260000      -0.06522770       0.30125200       0.18791400
H       15.03200000       5.82371000       9.68285000       0.00496383      -0.03596380      -0.00328868
O       19.37700000      18.56720000      20.68740000      -0.01038730      -0.02312260       0.00249543
H       17.65160000      18.46980000      21.32750000       0.01192630       0.00767056      -0.01068960
H       20.11400000      20.03580000       0.06128000      -0.01250570       0.00799694      -0.00854522
O        8.69055000       2.40701000      11.73300000       0.02679340       0.04326340      -0.03605100
H        7.53766000       3.77847000      11.85070000      -0.02219840       0.00508258       0.00707229
H       10.21740000       3.42752000      11.21520000      -0.00369483      -0.01495100      -0.00458556
O       20.75360000      14.14310000      13.11290000      -0.03818470       0.08295260       0.12425800
H       19.74320000      15.89710000      14.46660000       0.05988720      -0.06539970      -0.06114620
H       21.15600000      14.47160000      11.43960000       0.01372380       0.02636710      -0.05838420
O        1.54385000      16.18080000       0.01888000      -0.03299320      -0.02582660       0.05333140
H        0.55774500      12.67120000       1.30018000       0.02169060      -0.00097433      -0.07577080
H       22.54294300      16.68770000      22.34460000       0.01963300      -0.00079262       0.00709256
O       16.64650000       2.41591000       1.03097000       0.00312108       0.00964239       0.03872340
H       16.15160000       3.01758000       2.70269000       0.00135190      -0.01022500      -0.01621980
H       15.57450000       3.20954000      22.53895900      -0.00778142      -0.00181600       0.00704575
O        5.01596000      11.38900000      19.44640000      -0.03450260      -0.03403850       0.02306480
H        3.28204000      11.60500000      18.72410000       0.03634590      -0.00188353       0.00570066
H        4.80865000      10.00690000      20.77410000       0.01720040       0.03080560      -0.03378390
O       14.53490000       9.25606000      17.77000000       0.05941630       0.02924570      -0.01969260
H       14.78600000       9.49667000      19.56520000       0.00039882       0.01358070      -0.01050670
H       16.17090000      10.52830000      16.61750000      -0.04888110      -0.04442260       0.03716340
O        3.26326000       3.35697000      22.40880000       0.07822770       0.00568658      -0.05170520
H        4.50796000       3.76677000      20.67110000      -0.04521020      -0.01764980       0.04643030
H        1.54722000       3.66960000      22.01240000      -0.03459120       0.00361535      -0.01528850
O        6.63169000      17.71700000      12.03470000      -0.00275861      -0.00059283      -0.03612160
H        7.64074000      17.34930000      13.54400000       0.00756796      -0.00229533       0.00341056
H        6.61447000      16.48610000      10.66890000       0.00470629      -0.01973920       0.01614510
O        6.08811000       7.32001000       0.10178900       0.00010444       0.02003420       0.02206810
H        5.79793000       5.52881000       0.16646600      -0.00718960       0.00389592       0.00660276
H        5.37896000       7.99909000       1.67593000       0.01028190      -0.01069420      -0.01529740
O        3.50356000      21.57480000      13.30580000       0.05182840      -0.08206160      -0.05562800
H        2.69012000      20.82930000      14.74850000      -0.00053963       0.00616117       0.00277429
H        4.72460000      19.58420000      12.41000000      -0.07106390       0.09072310       0.04916680
O       21.15620000       3.09124000      21.22010000      -0.02135920       0.02651350      -0.04605850
H       20.62660000       1.66326000      22.23390000      -0.01356850      -0.00382777      -0.00428381
H       19.84920000       3.61702000      19.69310000       0.04536810      -0.01120480       0.05793010
O        3.11917000      21.88020000      18.16740000       0.06146810      -0.02374590       0.03260510
H        2.45858000       0.19978000      19.48450000       0.00567474      -0.00947792       0.00155513
H        4.78445000      20.94870000      18.84340000      -0.06713800       0.03356100      -0.01462390
O        2.17771000       3.92736000      15.18740000       0.05650310      -0.00599818       0.04444110
H        2.98892000       3.91582000      17.03200000      -0.02476440      -0.00486213      -0.07810470
H        3.56136000       3.38452000      14.04500000      -0.02335880      -0.00068724       0.02657290
O        0.69099500       8.49432000      13.69910000       0.00487131       0.00549273      -0.02108320
H        1.60840000       7.92897000      12.17210000      -0.01113290       0.01491020       0.02469800
H        0.46793300       6.95704000      14.70720000      -0.00013922      -0.00323480      -0.01142210
O       20.36740000       8.68010000       7.00126000      -0.01796570       0.01271930      -0.00039043
H       19.53130000       7.73897000       5.56148000       0.02074960       0.01853060       0.01887300
H       19.41310000      10.28930000       7.14857000       0.01613240      -0.01906600      -0.00237473
O       12.15720000      20.09340000       9.02927000      -0.01720240      -0.03830740       0.00538267
H       12.97240000      21.67470000       9.13501000       0.00051001       0.01457300      -0.00014605
H       10.17290000      20.21680000       9.05279000       0.05784300       0.01375480       0.00718923
O        0.18698000      11.13890000      18.11630000       0.20808800      -0.22031500      -0.15532500
H       21.98220000      12.12520000      18.61920000      -0.25326400       0.25933300       0.13976300
H       22.46700000      11.36940000      16.32310000       0.02530840      -0.02206080       0.00427077
O       15.41420000      11.01770000       0.76803800      -0.00545576      -0.05857630      -0.03128580
H       13.96180000       9.78361000       0.78633300       0.02010080       0.03657710      -0.00479587
H       15.25440000      11.96290000       2.30558000      -0.01007080       0.00380802       0.01787500
O       20.47060000       4.44055000      14.13060000      -0.04905230       0.04848790      -0.03003560
H       20.06970000      19.22748000      12.09120000      -0.05286000       0.03920810      -0.03828210
H       21.68370000       3.23757000      13.91640000       0.03264230      -0.04106420       0.00322932
O       10.38880000       9.97623000      21.72160000      -0.05020140      -0.06602400       0.04978020
H        9.06269000       9.36997000       0.44908000       0.04910290       0.02297760      -0.06987610
H        9.72366000       9.08561000      20.18310000       0.00272705       0.01973020       0.02468180
O       15.15670000      21.63900000      17.60160000       0.00065497       0.03191670       0.00568447
H       14.37750000      20.36050000      18.65100000       0.00817605       0.00277660       0.01537980
H       15.67550000       0.30018000      18.74260000      -0.01687910      -0.03040960      -0.01762460
O        8.33193000      13.07940000      16.32240000      -0.03512590      -0.05003100       0.02367550
H        8.97899000      14.69760000      16.29630000       0.01367520       0.02099140       0.00187150
H        7.39239000      12.69860000      18.02090000       0.02034190       0.00761464      -0.04292180
O       19.43730000      22.19340000      15.23450000       0.00685599      -0.01812940       0.02241240
H       18.32180000      21.64960000      16.61110000      -0.00307860       0.00581493      -0.01528090
H       20.96170000      21.39760000      15.83640000       0.00422630       0.01021930      -0.01062340
O       17.44150000       5.30080000       9.61134000       0.04647260       0.08920000      -0.06348330
H       20.45770000       7.59734000      10.17850000      -0.03178630      -0.02942870      -0.01383200
H       17.71660000       6.55800000       8.03911000      -0.01328810      -0.05361470       0.06319450
O       17.86760000      15.17280000       7.37977000      -0.02061720      -0.01435720      -0.06506740
H       17.17400000      15.62500000       8.94903000      -0.02404810      -0.00645784       0.00079158
H       16.47140000      14.70190000       6.09272000       0.01425950       0.00740166       0.03027500
O       17.70450000      14.00700000      19.12030000       0.01704360       0.02412510       0.02795940
H       18.30770000      15.89890000      19.26310000       0.00311349      -0.02413880       0.01317220
H       17.06060000      13.61790000      20.85590000       0.00451699       0.00479467      -0.03578710
O       21.96660000      14.08830000       8.53473000       0.08771220       0.03857310      -0.03527100
H       20.35580000      14.31680000       7.55739000      -0.00027909       0.00320828       0.00703193
H        0.63978000      15.31870000       7.43142000      -0.04387840      -0.04102960       0.01927440
O        0.93619400      10.93040000       0.01366200      -0.05990250       0.01048810       0.11016600
H       22.16166000      10.00520000       1.01067000       0.01256970      -0.01086320      -0.03664980
H        0.64173400      11.03930000      20.91875000      -0.00040944       0.00327481       0.00477618
O       14.14110000      14.28730000      15.84240000       0.03253090       0.02434820       0.00416337
H       16.02620000      14.20740000      16.51750000      -0.06248500       0.00135347       0.00754503
H       13.15630000      15.27760000      17.07320000       0.01871460      -0.01834590      -0.00659152
O        8.09058000      16.02830000       2.98775000      -0.03781270      -0.08563300       0.02061490
H        7.09195000      17.64570000       3.32593000      -0.01872070       0.05036090       0.00264955
H        6.70253000      14.57700000       2.68704000       0.01777050       0.02508770       0.02133350
O        5.22204000       8.30607000       6.08429000      -0.02346030      -0.01555380      -0.01107250
H        4.41770000       6.66624000       6.02693000      -0.00462467      -0.00434267       0.00599321
H        6.97222000       7.86249000       5.99682000       0.02177670       0.00031371       0.00009375
O       22.63790000      18.19370000      16.54550000       0.00937677      -0.01673860       0.01579730
H        1.29428000      17.03900000      16.90870000      -0.01841290       0.01784650      -0.00213627
H       22.32190000      19.05660000      18.18180000      -0.00040300      -0.01798730      -0.01639300
O        2.20148000      16.70990000       4.98920000      -0.02645350      -0.02595630      -0.00601709
H        1.74588000      16.23680000       2.57266000      -0.00766338       0.01955260      -0.02769260
H        3.94732000      16.24390000       4.80638000      -0.00072481       0.01837400       0.01421180
O       11.80190000      12.25290000       8.94585000       0.05261540       0.00041751       0.02584320
H       10.16460000      12.61660000       9.75618000       0.00611326      -0.00820183      -0.00738066
H       13.03410000      11.81570000      10.49690000      -0.04042560       0.00473306      -0.04911460
O       21.72640000      20.04720000       6.01502000       0.04261640      -0.02636760       0.12773000
H       20.90790000      19.74390000       7.90144000       0.00481771       0.01200160      -0.07524880
H        0.72008000      19.03580000       5.92708000      -0.01346690      -0.00270289      -0.01961590
O        9.82835000       6.90427000       5.21243000      -0.02620340       0.01074080      -0.03938750
H       10.52110000       6.03411000       6.57479000       0.03101040       0.00481175       0.03277060
H       10.84780000       8.29473000       4.64946000       0.00606581      -0.00563443       0.01306560
O        7.70208000      11.95420000      10.97390000      -0.04058280       0.00404507       0.08786840
H        7.70777000      11.74150000      13.03060000       0.00116307       0.01872660      -0.07200990
H        5.82523000      12.02440000      10.50410000       0.02652270      -0.01751660       0.00084320
