192
Lattice="24.56164 0.0 0.0 0.0 24.56164 0.0 0.0 0.0 24.56164" Properties=species:S:1:pos:R:3:force:R:3 TotEnergy=-1103.37006 cutoff=-1.0 nneightol=1.2 pbc="T T T"
O        1.96536000      21.89392000      14.24038000      -0.11242300       0.03896550       0.05406480
H        0.00536000      21.37977000      14.58188000       0.07366380       0.01638940      -0.01299070
H        2.74656000      20.68053000      13.29728000       0.02570160      -0.04653040      -0.03720180
O        2.05402000      23.51406000      23.48779000       0.04457320      -0.02035260      -0.05326190
H        3.89352000      24.06416000      24.00420500      -0.04636790      -0.01491610      -0.01153770
H        2.38782000      22.67026000      21.58941000      -0.00538280       0.02909140       0.06789020
O       14.21790000       1.91569000      16.62570000      -0.02644090      -0.07094930       0.03442530
H       14.61420000       2.69780000      18.25150000       0.00106043       0.00926359      -0.01014920
H       13.49240000       0.09904900      17.24770000       0.01814570       0.06116470      -0.03055440
O       21.28481000      12.58974000      23.68111400      -0.00238552      -0.03302950      -0.04435930
H       21.76012000      12.12304000      21.82752000      -0.00949257       0.02058680       0.04861370
H       21.16075000      14.39704000      23.82333000       0.00314966       0.01195480      -0.00652833
O        3.54478000       9.53426000      17.36540000      -0.03336140      -0.04666710      -0.03617060
H        4.82302000       9.72036000      18.59020000       0.02570650      -0.00403647       0.01561360
H        3.63680000       7.70826000      16.69750000       0.00706383       0.05097650       0.01746000
O       18.04214000      10.93070000       7.49076000       0.00004089      -0.02633290      -0.02879930
H       17.15273000      12.52620000       7.55285000      -0.00494710       0.00673966      -0.00110944
H       17.31349000       9.97946000       5.98745000       0.00883578       0.01453220       0.02977920
O       20.70026000       4.23016000      14.02090000       0.00814261      -0.07921730      -0.02896180
H       22.46096000       3.84576000      13.37740000      -0.03156700       0.01595880       0.01306680
H       19.75146000       2.28556000      13.61080000       0.01934140       0.06542870       0.01470100
O        0.54190000      17.59278000       7.78860000      -0.06961420       0.02384930      -0.06398750
H        1.66425000      17.96158000       9.01767000       0.05359210       0.01035280       0.05814650
H       24.23465300      19.28938000       7.49164000       0.01271040      -0.03655660       0.00467780
O        6.87946000      15.19358000      17.58520000      -0.03688360      -0.06859660       0.04716830
H        5.19586000      15.10058000      16.74950000       0.01154860       0.00793644       0.00197777
H        6.51416000      13.63768000      18.95920000       0.02587240       0.05012980      -0.04323370
O        9.88776000      21.64248000      24.31348000       0.00320024      -0.00213049      -0.00385001
H       11.69430000      21.22668000      24.32528000      -0.00867215       0.00464668       0.00163676
H        9.02073000      21.61608000       1.39294000       0.00608312      -0.02283890      -0.00032791
O       11.06384000       3.05789000       9.39470000       0.02877450       0.03541210      -0.05982160
H       12.24784000       3.16790000       7.84319000      -0.03806710      -0.00027810       0.04253650
H       10.82424000       4.83006000       9.96691000       0.00832107      -0.02734950       0.00402251
O       13.00944000       3.53636000       3.49062000      -0.07314010       0.08439380       0.03136480
H       11.49824000       4.32366000       2.47922000       0.03116670      -0.02423630       0.03866200
H       13.75594000       2.57636000       2.31622000       0.04678920      -0.05978680      -0.06785790
O       10.64740000      15.10388000       8.39194000      -0.00370160       0.01563840       0.06498950
H       10.12430000      13.62368000       7.57434000      -0.00462241      -0.02392770      -0.02283950
H       10.20790000      14.72098000      10.28664000       0.01423850       0.01467310      -0.04416600
O        2.63716000      14.19720000      14.71946000      -0.01210420       0.05957560      -0.01212030
H        0.94826000      14.83180000      14.32266000       0.01697990       0.00168120      -0.00085495
H        2.25776000      12.52590000      14.94776000       0.00010382      -0.06070960       0.01052000
O        0.14579500       4.05877000       3.16172000       0.03468380       0.02044300       0.00996382
H        1.50944000       2.83272000       3.43362000      -0.01132550       0.00384687       0.00039268
H        1.09068000       5.72437000       3.31236000      -0.03108370      -0.02473510      -0.00782591
O       16.76598000       0.42136000       7.99306000      -0.05637350      -0.00024804      -0.05884520
H       17.87878000       1.51366000       7.11116000       0.02041260       0.00968445      -0.00557617
H       15.41368000       0.33176000       6.52436000       0.04055040      -0.00656454       0.05967030
O       15.90638000      11.68050000      23.96110000       0.01752420       0.01023740      -0.01445090
H       14.62618000      11.08750000      22.60300000       0.03993910       0.01343100       0.01204120
H       17.90738000      12.01800000      23.54360000      -0.05605080      -0.01886680       0.00408669
O        3.50594000      16.98462000       3.70334000       0.00559376      -0.04459630      -0.01904050
H        2.26114000      16.79522000       5.09164000       0.01092600      -0.00079196      -0.00027201
H        4.02034000      15.26042000       3.04984000      -0.01751550       0.04016140       0.01918590
O       21.00362000      21.32220000      15.65926000      -0.05169660       0.02211790       0.03423190
H       20.13662000      22.81410000      14.77756000       0.01786480      -0.03995750       0.01699940
H       19.80472000      20.93930000      17.21656000       0.04129570       0.00837513      -0.04832060
O        7.76972000       4.78114000       2.90581000      -0.03911730      -0.05638410       0.01256390
H        7.26562000       4.28014000       4.75770000       0.01034720       0.02098880      -0.04734390
H        6.95482000       3.27574000       1.78491000       0.03229040       0.03819410       0.03097470
O        4.69616000      18.82640000      11.53744000       0.03266020      -0.02623740       0.00026430
H        6.06836000      19.41540000      10.40924000      -0.01067960       0.00025425       0.00819119
H        5.50976000      17.42160000      12.47414000      -0.01790740       0.01897090      -0.01416440
O       10.46394000       5.28823000      13.79422000      -0.02108750       0.04536470      -0.02749180
H       10.91984000       7.17225000      13.83742000       0.00431541      -0.05815320       0.01743990
H       11.26384000       4.13747000      14.93002000       0.01759350       0.01057070       0.01026050
O        7.03961000       0.80512500      24.13139600      -0.01377720      -0.08023480       0.13558800
H        6.85036000       1.88185000      22.93491000      -0.00834185       0.08737780      -0.12929500
H        8.16702000      23.88668700      23.99286300       0.01048090       0.01455350      -0.01843430
O       19.52996000       2.55451000       3.46026000       0.00026920       0.05310280       0.02664150
H       18.66516000       4.29484000       3.79596000       0.03469190      -0.05158200      -0.01434130
H       21.39966000       2.85520000       3.75796000      -0.03006830       0.00651200      -0.01331870
O       23.35770000      11.68002000       7.81296000      -0.07449220      -0.00587843      -0.02238620
H       21.37751000      11.40192000       7.51916000       0.05038670      -0.01422760       0.01352530
H       23.11125000      13.45522000       7.56766000       0.02370190       0.01480560       0.00626785
O        9.65709000      13.35126000      13.02930000      -0.03202920       0.01731740       0.05749500
H        8.70621000      12.25046000      11.87350000       0.00093648      -0.01100250       0.01133370
H        8.50733000      13.65256000      14.64890000       0.03530340      -0.00459990      -0.04875710
O        8.57104000      19.57430000      19.53280000      -0.04293290      -0.07418780       0.00633358
H        7.72724000      17.62960000      19.54340000       0.03183270       0.06986460      -0.01740940
H        8.81524000      19.95330000      21.30350000       0.00383685       0.00767350       0.00072029
O        6.61536000       9.64596000       1.85312000       0.00642376      -0.08062340       0.00314573
H        6.92126000       7.46426000       2.06702000       0.00055172       0.06685530      -0.00526388
H        4.83136000       9.54086000       2.26062000      -0.00453316       0.01247660       0.00170508
O       12.60560000       9.73716000      20.17840000       0.03074750      -0.03984020      -0.01825400
H       13.28300000       9.98536000      18.22450000      -0.02009520      -0.02782540       0.06892610
H       13.00970000       7.88936000      20.94070000      -0.00463045       0.06412420      -0.04740340
O        4.02975000      22.28618000      18.87820000       0.09002350      -0.00418247       0.13629800
H        3.28670000      22.14788000      17.45640000      -0.09381930      -0.00744920      -0.15455000
H        5.59612000      21.33388000      18.51090000      -0.00332817       0.00820460       0.02433460
O       24.11077200      20.33400000       2.00697000       0.00094656       0.07107590      -0.04809870
H        0.85785900      19.15430000       2.25788000       0.02063010      -0.02006820       0.00021989
H        0.30841300      21.63760000       0.48273000      -0.00600879      -0.03481800       0.04488950
O        1.57902000       3.05536000      11.52530000       0.00946135       0.08432770      -0.04709580
H        2.49127000       3.43991000       9.85938000      -0.02229290      -0.02669170       0.04903570
H        1.42334000       1.39373000      11.92840000       0.00721076      -0.06543210       0.00354447
O       15.55778000       4.98982000      20.90868000      -0.03466480      -0.09922600       0.06856050
H       17.22928000       5.06822000      20.46728000       0.06432260       0.02966180      -0.03159780
H       15.97558000       3.17802000      22.03048000      -0.03409280       0.06781540      -0.02845110
O        5.71959000       3.70442000       7.99274000       0.03163490      -0.05757280      -0.01425200
H        7.25124000       3.00712000       8.82144000      -0.00938906       0.02633640       0.00500018
H        5.40597000       2.01992000       7.11574000      -0.02402440       0.03278710       0.00658418
O       10.36178000      10.64236000       5.41489000      -0.04548650       0.00367025      -0.00556026
H       11.61088000       9.41496000       5.07426000       0.01909540      -0.01183210      -0.00625623
H        8.80698000      10.20266000       4.36916000       0.02769200       0.01040520       0.01023750
O       13.50460000       9.44076000      14.87840000      -0.02644060       0.02704930      -0.00151196
H       15.00070000       9.58386000      13.87620000       0.01779830      -0.00544832      -0.00248760
H       12.46890000      10.88496000      14.31010000       0.00669313      -0.00983763       0.00533372
O        8.42844000       9.68384000      10.18170000       0.02593120       0.00428363       0.05111450
H        9.47024000       9.72044000       8.78149000       0.02668820       0.00409833      -0.04222950
H        6.85824000       9.25364000       9.60689000      -0.06034990      -0.01435350      -0.01394560
O        4.61738000       2.79598000      19.62700000      -0.01778540      -0.03323440      -0.00408993
H        4.08598000       0.86571500      19.52700000       0.02726390       0.06256950      -0.01768520
H        4.84088000       3.66540000      17.94480000      -0.00234823      -0.03079590       0.01998840
O        3.11454000       8.37014000       9.90066000       0.00095623      -0.03164070      -0.04298170
H        3.19004000       7.04584000       8.48826000      -0.00390711       0.04031960       0.03918400
H        1.68224000       9.44694000       9.47956000       0.00584315      -0.00385214       0.00028114
O       16.11410000      15.96280000       1.62376000      -0.02256950      -0.03643800       0.00979563
H       16.34820000      15.81500000       3.49476000      -0.01400960      -0.00387202      -0.03168630
H       15.41180000      14.07160000       0.70006000       0.03195170       0.03527100       0.02375720
O        3.35374000       0.34692600       5.10776000      -0.10314600       0.03499440       0.04621510
H        4.32384000      23.72371600       4.44016000       0.06776040      -0.07656240      -0.04920070
H        1.67844000      23.86480200       5.52226000       0.04588360       0.03985930       0.00795808
O       18.46356000       9.02563000      12.43456000       0.00960965      -0.01232160       0.03327380
H       19.32256000       7.42094000      12.87056000      -0.00999935       0.01184780      -0.00508231
H       18.30806000       9.14336000      10.65896000       0.00011357       0.00358812      -0.02488690
O       17.53396000      18.80388000      19.46583000       0.04131220       0.06816780       0.05839440
H       18.18606000      18.22368000      21.13957000       0.00640561      -0.00342944      -0.02095350
H       16.74242000      17.61648000      18.55421000      -0.03736080      -0.06500880      -0.04087100
O        5.41362000       4.84214000      14.93837000       0.04965150       0.00942633      -0.04965280
H        7.09162000       4.92464000      13.81524000      -0.03465010       0.00008977       0.05460580
H        4.24762000       5.03734000      13.55824000      -0.01687650      -0.00677893       0.00414023
O       12.08340000      23.22005000      11.05510000       0.00127776       0.02044640       0.00863206
H       12.03840000       0.59176500      10.77030000      -0.00543172      -0.04583380       0.01340450
H       11.87530000      22.83272000      12.86850000       0.00278450       0.00751775      -0.01858440
O       14.76238000      20.48448000      23.39696000      -0.00445629       0.02464310      -0.04725350
H       15.16498000      20.00091000      21.60806000      -0.00349190       0.01546080       0.01629790
H       14.96958000      18.91877000      24.16426000       0.00871562      -0.03763360       0.03703070
O       14.73610000      16.50039000      15.62961000      -0.01630970       0.03820960      -0.09375270
H       13.07240000      16.44481000      14.65532000       0.03243880      -0.00825018       0.03541190
H       15.72520000      17.39620000      14.07854000      -0.01320030      -0.03414930       0.05356360
O       18.80840000      17.74630000      12.23290000      -0.06780860      -0.15464600      -0.12359400
H       19.50910000      18.53620000      13.40420000       0.08754800       0.13155400       0.14578200
H       19.65610000      16.06430000      12.72710000      -0.02168430       0.02218550      -0.03131600
O       12.02130000      21.57250000      16.45049000      -0.07205200       0.04386610      -0.00460042
H       10.22090000      20.97970000      17.00310000       0.06290090       0.00058741      -0.00015887
H       13.30460000      20.40030000      16.54600000       0.01864710      -0.04360800       0.00892816
O       23.43790000      22.55016000       6.42556000      -0.00495496       0.04031330      -0.06330400
H       22.00920000      23.89306000       6.26206000       0.04559530      -0.04647540       0.00230468
H       24.21690000      22.21776000       4.40276000      -0.05245140      -0.01353060       0.04933900
O       15.10192000       8.16561000       4.09458000      -0.00928298      -0.08238880       0.01968680
H       14.79874000       9.28483000       2.74204000       0.00076622       0.00187283      -0.02849480
H       14.57246000       5.96595000       3.72417000       0.00510129       0.07723370       0.00358562
O       17.99250000      24.54528000      12.99590000       0.04883020       0.00944965      -0.04972050
H       17.58020000       0.44554000      11.20500000      -0.00477562      -0.01640540       0.02395590
H       16.59920000       0.27404000      13.99500000      -0.04789440       0.01519760       0.02958140
O       21.78794000      13.25940000      13.38926000      -0.02944730      -0.05989620      -0.06988330
H       21.30955000      13.57500000      14.98106000      -0.01117980       0.02204130       0.08938710
H       20.62174000      11.63350000      13.24946000       0.03507010       0.03693100      -0.01500980
O       20.00396000      17.52676000      23.95437200       0.03140830       0.04812760       0.01011550
H       21.09156000      19.00036000       0.15566300      -0.03512040      -0.05209270      -0.01566160
H       18.56176000      16.97686000       0.50873000       0.00625955       0.00667502       0.00169630
O       22.50650000      11.32650000      18.60708000      -0.02568540       0.10736000      -0.00035321
H       24.16830000      10.97480000      18.61378000       0.07934390      -0.01049890      -0.00795020
H       21.80490000       9.82519000      18.76558000      -0.05691640      -0.10459600       0.00500794
O        6.77964000      20.77116000       3.46275000       0.03981990       0.04651100       0.03256150
H        5.81074000      19.21426000       3.40024000       0.00370707      -0.00371124       0.01805800
H        7.89464000      21.11066000       5.07653000      -0.04492490      -0.03588610      -0.03723510
O        8.78600000      19.97138000       8.27016000      -0.03749670       0.34676500       0.04148480
H        9.20546000      18.53888000       8.16316000       0.09302490      -0.31236500      -0.02858850
H       10.41680000      20.99708000       8.90156000      -0.05416790      -0.02472780      -0.00687377
O        1.27372000       9.53596000       3.02229000       0.01032870      -0.02191200       0.09183000
H        0.17660000      10.25836000       4.36814000       0.01230330      -0.00086788      -0.03020950
H        1.10813000       9.98476000       1.35569000      -0.02434400       0.02151480      -0.05166690
O       15.63478000      15.45188000       7.37933000       0.00936690      -0.03858340      -0.04397110
H       13.96124000      15.32506000       7.99450000      -0.02778270       0.00707984       0.01078940
H       16.61690000      16.64320000       8.15531000       0.02158430       0.03824030       0.03233450
O       20.35880000       5.89969000      18.91880000       0.04576250      -0.05098590      -0.01567560
H       21.80592000       5.14277000      20.03940000      -0.03941930       0.02151000      -0.03353990
H       20.48248000       4.92132000      17.11240000       0.00053051       0.03333540       0.05291900
O        2.04426000       9.20254000      22.82330000       0.01510850       0.02922990       0.02461320
H        1.40076000       7.64984000      22.36218000      -0.01916750      -0.05647090       0.00392538
H        2.00346000       9.96924000      21.25077000       0.00708313       0.02706280      -0.02803560
O        0.24396000       4.41763000      22.19526000      -0.02401140      -0.03084320       0.01902590
H       24.40440000       3.09606000      23.48606000       0.00756633       0.03098320      -0.01825030
H        1.38806000       3.52853000      21.10456000       0.01544150       0.00079241      -0.00807511
O       15.88600000       0.82666000      24.45566000      -0.01415100      -0.04162990      -0.01963600
H       17.32610000       0.85216000       0.99492000       0.01011440      -0.00006086       0.00041326
H       15.62140000      23.50780000      23.86046000       0.00785976       0.04509370       0.02194190
O        7.09304000      10.83360000      20.90000000      -0.04481840      -0.01212070       0.08539000
H        8.85194000      10.68610000      20.98980000       0.03901280      -0.00407518      -0.01154590
H        6.64974000      10.29620000      22.92200000       0.00788145       0.02129220      -0.07008360
