192
Lattice="24.39735 0.0 0.0 0.0 24.39735 0.0 0.0 0.0 24.39735" Properties=species:S:1:pos:R:3:force:R:3 TotEnergy=-1103.43393 cutoff=-1.0 nneightol=1.2 pbc="T T T"
O       24.03120000      19.42139000      20.33270000      -0.04262210      -0.01006670       0.01063440
H       22.10530000      19.56127000      19.87480000       0.06921200      -0.01971080       0.02433220
H        0.14685000      17.86563000      21.40020000      -0.02771330       0.03388140      -0.03093410
O        2.00420000      23.01165000       4.29263000      -0.05568730       0.09159690      -0.06838130
H        2.63270000      21.84405000       5.25950000       0.05765330      -0.09436810       0.06809000
H        2.20860000      22.61965000       2.49070000      -0.00134977       0.00321275       0.00823475
O       10.38080000       1.81750000      10.57400000      -0.00715665      -0.05976360      -0.02263370
H       11.40760000       2.60415000      11.76330000       0.02113690       0.02135740       0.02092910
H       10.81000000      24.29436400      10.78400000      -0.01897050       0.04679700       0.00369995
O       18.87045000      14.48369000       0.91028700      -0.04655730       0.03921660       0.03802080
H       19.42566000      14.87538000      23.68569800       0.02948270      -0.01384190      -0.04149120
H       17.72064000      16.01687000       1.08122000       0.01488080      -0.02915080       0.01706170
O        8.36377000       5.74505000      20.10610000      -0.02423710       0.00992163       0.08064540
H        9.18980000       6.94225000      21.28400000      -0.01353800      -0.01155030      -0.01704560
H        9.15859000       5.92655000      18.60490000       0.03600470       0.00306874      -0.05910920
O       20.84118000      11.38100000      12.60580000      -0.05120390      -0.03943250       0.03433480
H       19.84791000      10.44880000      11.36630000      -0.00310457      -0.00067880      -0.00129392
H       21.88533000      12.35240000      11.66130000       0.04821380       0.04462080      -0.03629890
O       21.69275000       0.48055000      12.59390000       0.00535547      -0.00631039       0.04615280
H       23.32775000       1.19395000      13.13620000      -0.01233000      -0.00192171      -0.01087050
H       21.44195000       0.49825000      10.84090000       0.00831178       0.00133562      -0.03733600
O        1.11539000      20.13240000      11.30390000      -0.04723890       0.08378830      -0.01090300
H        0.86044000      18.46110000      10.78200000      -0.01835970      -0.02817620      -0.01314390
H       23.94321300      21.29890000      10.71550000       0.05738500      -0.05183110       0.02246330
O        5.95695000      14.34980000      18.90200000      -0.01273020       0.01949230      -0.02259120
H        6.95485000      15.65180000      18.10210000      -0.01097070       0.00516539      -0.00724219
H        7.20075000      13.66580000      19.93490000       0.02132310      -0.02784940       0.02892420
O        8.84396000      21.30150000      20.80300000      -0.06181590      -0.02017930       0.01220530
H       10.65910000      21.22850000      21.07410000       0.00408724       0.00864778       0.01837500
H        7.87037000      20.37480000      22.15000000       0.02683240       0.01159300      -0.02030430
O       13.39045000       2.77554000       6.11230000       0.00019442       0.03214650      -0.06128270
H       12.32025000       2.73714000       7.47045000      -0.02620370      -0.01111380       0.06957490
H       12.16165000       3.66130000       5.02567000       0.02196840      -0.01546350      -0.00690848
O       12.52215000       5.31235000       1.09350000       0.03554010       0.09182850       0.07200230
H       11.29835000       4.22575000       0.86940000      -0.09998290      -0.07873630       0.00092173
H       13.46935000       4.95035000      24.14335000       0.06642870      -0.00589291      -0.07325220
O       14.75190000      20.28170000       9.43905000       0.14251800      -0.09474670      -0.06903910
H       15.19190000      18.16140000       9.04495000      -0.03090650       0.07912250       0.01608960
H       13.39180000      20.80040000      10.25265000      -0.10277300       0.00693427       0.05195690
O       24.36650000      14.91870000      10.37895000      -0.00210899       0.01697830       0.03802310
H        0.62815000      14.26120000       8.87265000       0.01270680      -0.01206230      -0.03607350
H        1.39435000      14.88610000      11.55015000      -0.00882562      -0.00621471      -0.00147644
O        0.81569500       4.10116000       0.55127200      -0.06675620      -0.00201363      -0.12478200
H        1.44156000       4.17592000       2.07956000       0.05361440      -0.00046027       0.10635700
H        0.93753800       2.42315000      24.16783400       0.00465700      -0.00441088       0.02797380
O       21.67740000      23.81850000       7.50235000       0.06432560      -0.01444590      -0.03003130
H       23.51000000      23.40090000       6.61865000      -0.08325330       0.02005060       0.01929470
H       20.27980000      23.86440000       6.27365000       0.01479490      -0.00613106       0.00574964
O       15.85760000      10.16560000       1.08635000       0.04136140       0.06096100       0.06210920
H       15.76740000       9.70476000      23.83530000      -0.00712540      -0.02208830      -0.06396170
H       17.17750000      11.66040000       1.04355000      -0.03288370      -0.03561900      -0.00022960
O        7.25145000      14.16260000       4.78635000       0.00620664      -0.00125922       0.00261597
H        7.03165000      14.60000000       6.66315000       0.01155710      -0.03038940      -0.03369290
H        7.28825000      12.36790000       4.17655000      -0.01034440       0.03192550       0.03428110
O       17.60590000      20.93730000      14.09795000      -0.03100860      -0.01174790      -0.03099940
H       18.67280000      22.30890000      13.80915000       0.03049290       0.02672510       0.00224055
H       16.64210000      20.94220000      12.44395000       0.00882114      -0.01217290       0.02065320
O        8.80750000       2.12215000       2.54761000       0.00265361      -0.03294850      -0.05932680
H        7.49550000       2.73745000       3.52936000      -0.03493390       0.01988870       0.03381400
H        7.78480000       1.58735000       1.01611000       0.02273040       0.00834982       0.02531060
O        6.12205000      20.36940000       9.07585000      -0.02470950       0.00631212       0.00567849
H        6.69665000      18.72070000       9.63485000      -0.00356859      -0.00451628      -0.00040819
H        4.49185000      20.73710000       9.94565000       0.02489650      -0.00904487      -0.01140220
O       13.08575000       6.38388000      11.29110000       0.00999831       0.03649510      -0.00075817
H       12.01175000       7.83705000      10.87980000      -0.00906460      -0.02660160      -0.00157398
H       14.69642000       7.16098000      10.83000000      -0.00020885      -0.01453400       0.00091709
O        5.94302000       1.42821000      22.00719000       0.03455350      -0.02789230      -0.00125513
H        7.21025000       0.06537500      21.52880000      -0.02318930       0.02032590       0.00230192
H        6.76170000       2.99763000      21.52950000      -0.00300099       0.00431732      -0.00817081
O       19.95735000       5.01890000      23.85030000       0.01082070      -0.01161350       0.05191830
H       19.07305000       4.91301000       1.12535000       0.00493193       0.00879094      -0.02368510
H       21.71285000       4.71665000       0.09525000      -0.01348300       0.00157931      -0.01785620
O       20.49323000      13.52210000       6.04915000      -0.07457030      -0.08796890      -0.03196550
H       20.06742000      13.37790000       4.21995000       0.01654070       0.01836080       0.02600430
H       21.57259000      14.75440000       6.42225000       0.06182300       0.06799010       0.00346857
O        7.68851000      15.21495000       9.99997000      -0.07152470       0.00638743       0.01881850
H        6.29414000      14.44665000      11.35580000       0.04912080       0.01266010      -0.03552550
H        9.24678000      14.39555000      10.09190000       0.02475850      -0.01731930       0.01107260
O        8.11795000      19.65590000      16.15320000       0.18542900      -0.04683370       0.04155960
H        6.59765000      19.95430000      15.80900000      -0.18546200       0.03974980      -0.03900570
H        8.34205000      19.89960000      17.99330000       0.00155795       0.01326500      -0.00989860
O        9.41025000       8.61515000       3.73990000       0.06137650      -0.01642040      -0.03886080
H       10.90485000       7.92745000       2.50000000      -0.05644160       0.01841150       0.04165900
H        7.84995000       7.92925000       3.12730000      -0.00274201       0.00021815      -0.00089684
O       14.52440000       9.79395000      19.57310000       0.04810390      -0.17482100       0.13087800
H       14.38810000      11.28765000      19.07570000      -0.02510880       0.18053100      -0.09902010
H       13.98900000       8.22235000      18.94540000      -0.02072820      -0.01398320      -0.03293770
O        1.83625000      23.73240000      23.73700000      -0.05147430      -0.03886880      -0.04033410
H        0.63976500      22.55070000      22.62000000       0.04984480       0.03853430       0.03273070
H        3.22540000       0.05505000      22.73310000       0.00095534      -0.00907687      -0.00203023
O        1.58849000      14.17610000       5.51071000      -0.08574460      -0.09638580      -0.02796420
H        1.81786000      12.55760000       4.34896000       0.01727060       0.06576210       0.03901540
H        2.89316000      15.24130000       5.68216000       0.07272460       0.03376460      -0.01138150
O        1.82051000       2.44763000      14.73370000      -0.00882777       0.04844960      -0.07292110
H        2.06304000       1.19821000      15.83060000       0.02056320      -0.07525220       0.05952080
H        1.41499000       3.86903000      15.70560000      -0.01083580       0.02471060       0.01463060
O       13.29490000       5.27180000      17.10900000       0.03580510      -0.01234500       0.03764770
H       13.98510000       5.86040000      15.55200000       0.00362614      -0.00284421      -0.01307390
H       14.75480000       4.48760000      18.14320000      -0.03938260       0.01603680      -0.02610720
O        4.12339000       3.48900000       4.77185000      -0.03931590      -0.01805450       0.05918320
H        3.83013000       3.96610000       6.62855000       0.01851730      -0.00411306      -0.04493730
H        3.12491000       1.85320000       4.85345000       0.02444990       0.01865850      -0.01205300
O       13.14680000      14.03755000       3.47269000      -0.03723490       0.00981782       0.03616520
H       13.60830000      12.76055000       2.34558000       0.01489090      -0.02727510      -0.02036480
H       11.54220000      13.40475000       4.22388000       0.01937050       0.01550200      -0.00892485
O       22.95070000       7.24025000      15.06530000       0.00186647      -0.02054100       0.06588890
H       22.38440000       7.54155000      16.88920000       0.01296320      -0.01451010      -0.04153630
H       22.26060000       8.65055000      14.26680000      -0.01069490       0.03835370      -0.02342850
O        9.07375000       9.14805000       9.01053000       0.09072200      -0.02042400      -0.06285400
H        9.37835000       8.86355000       7.05515000      -0.01038180       0.00777952       0.05488450
H        7.40565000       9.42965000       9.16786000      -0.07650900       0.01402020       0.00645105
O        0.64170000       5.21559000      19.80340000      -0.08595770      -0.12272200       0.03778310
H        0.91930000       4.32588000      21.46390000       0.00665011       0.03478400      -0.04010600
H        1.64830000       6.49115000      19.55750000       0.08440660       0.09214340      -0.00618029
O        3.88385000       9.13265000      10.28905000      -0.03838810      -0.04477100      -0.01283960
H        4.26885000       7.27825000      10.73285000       0.00102148       0.02964190      -0.00408941
H        2.28465000       8.84475000       9.27785000       0.02770510       0.01348910       0.01451340
O       15.86230000      15.13080000       8.04435000       0.02457810      -0.03653720      -0.04550480
H       17.62270000      14.42420000       7.76355000      -0.01582860       0.01808800       0.01791810
H       15.35830000      14.51880000       6.27045000      -0.01553470       0.02319780       0.03458460
O        2.93165000      21.42103000      16.08925000      -0.02839370      -0.00267462       0.00391727
H        1.70855000      21.18500000      17.49255000       0.01964680      -0.00465376      -0.02053650
H        2.02585000      20.89855000      14.52645000       0.01013590       0.00501947       0.01785050
O       18.09135000       8.07341000       9.43015000      -0.00831370       0.01303400      -0.05271850
H       17.94265000       7.36982000       7.54375000       0.00647902       0.00734252       0.06101830
H       18.29665000       6.85413000      10.79835000       0.00440332      -0.02110660      -0.01411580
O       14.14875000      13.71740000      16.93647000      -0.00199131      -0.02399580      -0.06417800
H       15.68261000      14.67250000      16.50651000      -0.00717629      -0.00287638       0.00572855
H       13.86075000      12.68680000      15.20391000       0.00320256       0.04278780       0.05363910
O        5.00280000       4.00005000      10.58565000       0.06418910      -0.02059900       0.06725450
H        6.99080000       3.66695000      10.80855000      -0.05946280       0.00902812      -0.02285120
H        4.55700000       3.40835000      12.39035000      -0.00750658       0.01111330      -0.04695510
O       16.41200000      23.11503000       5.24500000      -0.02618100      -0.01541370       0.05600860
H       15.24520000       0.14328700       5.43800000       0.00866288       0.00018883      -0.01359820
H       15.81100000      22.24259000       6.93496000       0.02175830       0.00768548      -0.04534020
O       13.25640000      22.04844000      21.96735000       0.01938400      -0.00371273      -0.02212040
H       13.80770000      21.15691000      20.35065000       0.00162460       0.01792550       0.01302240
H       13.59540000      20.82396000      23.22855000       0.00768142      -0.00832974       0.01926870
O        4.31804000      13.31445000      12.95655000      -0.05041140      -0.02523750      -0.08309620
H        4.71023000      12.68665000      14.49414000       0.02042740      -0.01654930       0.07136760
H        3.58688000      11.62485000      12.03095000       0.03142750       0.03790270       0.01706830
O       18.54420000      16.02280000      15.93590000      -0.00087435      -0.12688000       0.03217910
H       18.60790000      17.62810000      15.47230000       0.00649099       0.09388000      -0.04815360
H       18.98710000      14.69060000      14.68650000       0.00253705       0.03189420       0.01036910
O       10.28050000      21.19090000      11.70395000       0.21957100      -0.03109490       0.23256600
H        9.80531000      20.73660000      13.76145000       0.00012137       0.01307000      -0.07447900
H        9.09206000      21.34870000      10.75355000      -0.21984200       0.01791070      -0.14895600
O       23.93980000       8.58430000       6.63095000      -0.02502650      -0.01125580       0.00706015
H       22.86330000      10.11350000       6.40545000       0.00745694      -0.02762830       0.00708982
H       22.85580000       7.06000000       6.99045000       0.01643650       0.04164480      -0.00882886
O       17.42381000       6.10429000       4.59299000      -0.08959740       0.01986490      -0.00234193
H       16.76360000       7.64261000       3.66573000       0.02291370      -0.02048740       0.00608172
H       15.54264000       5.46185000       5.05408000       0.06893980       0.00040386      -0.00764263
O       14.22230000      20.17920000      17.64180000      -0.03965030      -0.03753480       0.02949070
H       13.77160000      18.39250000      17.33230000       0.01293650       0.02801440      -0.00538043
H       15.44970000      20.84550000      16.55020000       0.02296560      -0.00000412      -0.02871690
O        1.17944000      13.96130000      21.68505000       0.06580450       0.02721520      -0.00714991
H       23.96200300      13.68400000      20.90055000      -0.00121660       0.00819960      -0.01935950
H        2.79010000      14.56110000      20.62225000      -0.06204390      -0.02813560       0.02240390
O       15.26675000      18.71895000       2.00740000       0.01333300       0.03832370      -0.01266740
H       14.96685000      20.32495000       2.87328000       0.02323290       0.00638996      -0.00518521
H       14.01915000      17.86915000       2.87708000      -0.03309660      -0.04270590       0.01482520
O       20.61090000      13.66740000      20.59600000      -0.00978705      -0.02257060       0.00038569
H       20.02970000      11.85820000      20.31980000       0.01453210       0.02726430       0.00731132
H       19.63140000      14.75190000      19.53320000      -0.00014276      -0.00140079      -0.01385290
O        6.71235000      18.56055000       1.13038000      -0.01068750       0.02280480      -0.02735650
H        6.89955000      16.96025000       1.82257000      -0.00532676      -0.04394120       0.01398140
H        7.97665000      19.39385000       2.06477000       0.01703350       0.02381950       0.01613190
O        9.98952000      21.49110000       4.76155000      -0.00731093       0.01567280      -0.00478352
H        9.14356000      21.09030000       6.35005000       0.00147755       0.01165470      -0.01676330
H        9.56065000      23.24810000       4.19725000       0.00486052      -0.02798640       0.01649390
O        4.21933000       9.62285000       3.76336000      -0.01728990      -0.00924171       0.00213446
H        2.93110000       8.94765000       4.88418000       0.00985636       0.00028437       0.00015357
H        3.51575000       9.10475000       2.14493000       0.00014402       0.00557205      -0.00745615
O       12.82005000      12.47475000      11.69990000       0.10810400       0.20275600      -0.00653327
H       12.12265000      11.05415000      11.79140000      -0.07101680      -0.16701500      -0.01396960
H       14.15665000      13.02275000      10.41100000      -0.03583450      -0.02852240       0.02180190
O       18.96756000       4.81759000      12.92960000       0.05431330      -0.04387350       0.02649300
H       20.76680000       5.38893000      13.53730000      -0.04799810      -0.00805704      -0.00819198
H       19.29495000       2.87494000      13.00730000      -0.00949528       0.05423290      -0.00671618
O        1.54745000       9.26655000      23.74234600      -0.04194900      -0.07227250      -0.01929580
H        1.33465000      10.87405000      22.89555000      -0.00452130       0.00146968      -0.00579533
H        0.35885000       7.74835000      22.99161000       0.05068030       0.07478650       0.03027200
O       19.77940000       8.66003000      20.13335000       0.05119590       0.03986870      -0.03984150
H       19.74570000       7.55690000      21.46245000      -0.00211558      -0.03964910       0.04760060
H       18.16580000       8.92860000      19.54655000      -0.05119350      -0.00063621      -0.01337970
O       15.66170000       3.66575000      21.46275000       0.05523740      -0.03656490       0.04264970
H       17.44040000       3.60615000      22.33245000      -0.03392930       0.02515890      -0.03059160
H       15.37860000       1.91705000      22.01265000      -0.02154170       0.00596426      -0.01701360
O       10.22705000      10.65250000      22.35900000       0.06028780       0.04204110       0.01192700
H       12.04245000      10.60560000      21.38590000      -0.06044510      -0.00133492       0.03685860
H       10.44305000      11.94800000      23.81380000      -0.00541960      -0.04339780      -0.04590230
