192
Lattice="24.51183 0.0 0.0 0.0 24.51183 0.0 0.0 0.0 24.51183" Properties=species:S:1:pos:R:3:force:R:3 TotEnergy=-1103.00166 cutoff=-1.0 nneightol=1.2 pbc="T T T"
O        0.96257600       4.83780000      12.35410000      -0.01255160       0.00585475      -0.02045930
H       23.88476600       5.11344000      11.31950000       0.01961670      -0.01445610       0.03720490
H        0.83215500       3.27062000      13.37940000       0.00278862       0.02038340      -0.02429300
O       15.15890000      24.22318700      23.94617200      -0.02777490       0.00217325      -0.04754960
H       16.53630000      23.78492800       0.36416200       0.05339600      -0.02152290       0.03504230
H       14.36870000       0.96452400       0.37367300      -0.01565700       0.03331280       0.01827170
O       21.05960000       9.92878000      14.56580000       0.01509510       0.03746980      -0.07367560
H       20.66290000       9.41359000      16.09160000      -0.03391070      -0.04084830       0.10802900
H       22.28340000      11.22160000      14.98910000       0.01191590       0.00471164      -0.01969220
O       12.16400000       4.80172000      20.31710000       0.01628780       0.01847900       0.03823860
H       13.77390000       3.88348000      20.15420000      -0.01682940       0.02041670      -0.00610460
H       12.52940000       6.03247000      21.72830000      -0.00903867      -0.03377820      -0.03372380
O        5.34655000       7.52937000      16.59810000       0.01949760      -0.00186196       0.00593419
H        7.02463000       8.28357000      16.20700000      -0.02946180       0.00289144      -0.00162253
H        4.01379000       8.11608000      15.52060000       0.00740337       0.00046903      -0.00493360
O        5.95285000       8.27489000       2.84156000      -0.04002070      -0.01132380       0.05467500
H        4.02963000       8.19832000       2.90281000       0.04524370       0.00449531      -0.00519738
H        6.23030000       7.95294000       4.72781000       0.00485614       0.00827647      -0.04709280
O       21.18390000       9.22372000      20.36840000      -0.11977100      -0.00410664      -0.04305880
H       20.47280000       9.37483000      21.97470000      -0.00523115      -0.01088100       0.02653270
H       22.82310000       9.41013000      20.45550000       0.11825900       0.01590700       0.00856410
O       22.75530000      19.32470000      17.33380000      -0.00170011      -0.01770250      -0.01855510
H       23.31130000      20.76850000      18.20300000      -0.00560813       0.02048930       0.02097860
H       24.24550000      18.95130000      16.34860000       0.00435477      -0.01246450      -0.00334714
O        1.02836000       7.57960000       3.77318000       0.16416500       0.12958600      -0.13239200
H        0.76400000       6.10134000       3.14590000      -0.00961918      -0.12815200      -0.08908000
H        0.04014400       7.41399000       4.92370000      -0.17281500      -0.00240570       0.22448100
O       11.82370000      21.94880000       7.82114000      -0.08224740      -0.10975100      -0.03121690
H       11.58010000      20.18860000       8.74712000       0.00011920       0.05636500      -0.04112370
H       13.03000000      22.46840000       8.82578000       0.09593710       0.04682100       0.07307670
O       19.77370000       2.93057000       4.44083000      -0.03531230      -0.11032500       0.02303810
H       20.84970000       1.44651000       3.88063000      -0.00950426       0.04074870       0.01332140
H       18.43450000       1.68594000       5.39454000       0.04652540       0.05102690      -0.03434590
O        3.09299000      14.92120000      23.53270000      -0.00098688      -0.03204830       0.01831190
H        3.55096000      15.74510000      22.03320000       0.00959578       0.01423800      -0.01964940
H        4.35889000      13.57130000      23.73320000       0.00277522       0.02104730      -0.00050392
O        0.44659700      20.28850000       7.73554000       0.08782420       0.01296720       0.01153920
H       24.12724300      18.74730000       7.58784000      -0.02502950      -0.02939970      -0.01157550
H        2.35191000      19.67240000       8.00324000      -0.06609840       0.01972220      -0.00215718
O        8.53469000       0.16767000       3.25100000      -0.01518740       0.01159440      -0.08746700
H        7.41581000       0.05669500       1.63131000       0.03411430       0.01781980       0.04648360
H        7.77690000      23.52622000       4.29922000      -0.02105630      -0.02690560       0.03623320
O        8.85469000       6.53378000       7.26754000       0.01455140       0.01965980       0.01358980
H       10.08100000       6.74439000       8.71757000      -0.02231650      -0.00086347      -0.02066550
H        8.18541000       4.89494000       7.27855000       0.00197231      -0.02572300      -0.00104602
O       21.32080000      16.53110000       5.61750000       0.04016650      -0.03668730      -0.06662850
H       22.70120000      15.14380000       4.96087000      -0.05220190       0.05320140       0.02201030
H       20.64480000      17.10190000       3.86088000       0.01410750      -0.02034870       0.04370320
O       11.63920000       7.84991000      11.01240000       0.03890710       0.00555758       0.00580203
H       10.88080000       8.81068000      12.35530000      -0.00380976      -0.00310278       0.00328455
H       13.38690000       8.58366000      10.92060000      -0.03117690      -0.00685302       0.00049973
O       18.79900000       7.52224000       5.72361000       0.02127860       0.01791780      -0.01862890
H       17.42090000       7.05914000       6.67149000      -0.04032010       0.00149933       0.03793950
H       18.86680000       5.99219000       4.77082000       0.01973240      -0.00443120      -0.01129870
O       15.23250000      11.30560000      11.96690000      -0.08380860      -0.17564900       0.14940600
H       15.35460000      11.48850000      14.01480000      -0.01088870      -0.01445830      -0.08002860
H       15.86810000      12.68260000      11.59030000       0.10180000       0.19213600      -0.06851290
O       13.73010000      23.89040000      18.78690000       0.08271880       0.01749550       0.04705450
H       15.28570000       0.25947000      19.99040000      -0.08581040      -0.04013040      -0.05535520
H       12.28760000       0.45187000      18.80600000       0.00550059       0.00739218       0.00455172
O       20.53780000      22.57020000       0.38159400      -0.05230070      -0.04470990      -0.03389520
H       20.25060000      23.18710000      23.18113000       0.00073825      -0.01787280      -0.01071460
H       21.41350000      23.91040000       0.90896800       0.05724920       0.05728000       0.04353000
O        7.84840000      12.86920000       0.44240900       0.03637270      -0.00318275       0.00431692
H        9.72585000      12.40870000      24.50966100      -0.04647410       0.00685483       0.01902090
H        7.54389000      12.42650000       2.21606000       0.00982251      -0.00360575      -0.02377000
O        4.28999000      17.53310000      10.02460000       0.03138330       0.00288956       0.00302196
H        6.14992000      17.74540000      10.05140000      -0.02969480      -0.01134010      -0.00377583
H        3.84925000      15.69120000       9.99696000       0.00864573       0.01001460      -0.01051050
O       12.89210000       6.51966000       1.35249000       0.00351279      -0.00955601       0.03508910
H       11.07600000       6.55851000       1.32877000      -0.00295369       0.00016740       0.00011289
H       13.23980000       6.34922000       3.19939000      -0.00389269       0.00384954      -0.03603990
O       16.15510000      23.14810000      11.51250000      -0.02623580       0.07225530      -0.04060290
H       17.57290000      22.25030000      11.92700000       0.04822960      -0.02665460       0.01060200
H       16.86320000       0.25207000      10.65100000      -0.02548820      -0.04522240       0.02960540
O       15.37390000       3.75702000       9.44854000       0.03961490       0.00613790       0.04712340
H       13.93330000       4.44161000      10.21970000      -0.01668460       0.00982907       0.02160210
H       14.79020000       3.49702000       7.86411000      -0.02314900      -0.01640080      -0.07291660
O        0.44431200      12.82430000      14.02590000       0.05025360       0.07968780      -0.07269720
H        1.38070000      11.86650000      12.65270000      -0.02468440       0.01762410       0.02717090
H        0.95483400      14.97720000      13.13620000      -0.02111890      -0.09077070       0.05319440
O       13.13990000      16.18740000       8.78043000      -0.03766550      -0.00727037       0.06719180
H       13.46620000      14.45850000       9.07016000       0.00638812      -0.02014180       0.00379201
H       13.96630000      16.40480000       7.32468000       0.03866440       0.02271920      -0.08873210
O        9.51596000      10.52400000      15.77790000       0.00666633       0.01503110      -0.00899791
H       10.09540000      11.91920000      14.73610000      -0.01229580       0.00540101      -0.00672007
H       10.81260000      10.58410000      17.03310000       0.00705210      -0.01493620       0.01002700
O       12.82500000       2.07439000       4.95674000       0.05775290      -0.08411300       0.06809260
H       11.44090000       1.93207000       3.96213000      -0.06399700       0.00793806      -0.04469870
H       12.68930000       0.10488300       5.59921000       0.01172680       0.07585230      -0.02046100
O        6.61748000      16.19740000      17.94900000      -0.00616963       0.04131040       0.03045370
H        7.35938000      17.30630000      19.34990000      -0.01062300      -0.03104680      -0.02440190
H        7.83076000      14.94840000      17.60770000       0.01415630      -0.01332730      -0.00253483
O        2.66653000      18.18670000      14.83490000      -0.02960540       0.02994710      -0.07477190
H        4.02574000      17.58350000      15.71270000       0.04715930      -0.02604940       0.04202310
H        3.44746000      18.61540000      13.12510000      -0.02406110      -0.00878917       0.03302660
O        4.00900000       8.41330000       9.15894000      -0.02082400      -0.13117700       0.05188360
H        5.38304000       6.96521000       9.34892000      -0.03750320       0.06003050      -0.01131090
H        2.39917000       7.14531000      10.08690000       0.06718750       0.05537800      -0.03019440
O       21.12320000       2.48102000      15.94130000      -0.02401790       0.00402430      -0.04962440
H       20.56520000       4.16002000      15.29430000       0.01527810      -0.02885250       0.00639515
H       20.63200000       1.42277000      14.40120000       0.01857320       0.01826580       0.03900070
O       10.63000000      15.32720000      13.07750000       0.03346400      -0.00902399      -0.07936890
H       12.18310000      16.13960000      13.64480000      -0.01576420       0.00480792       0.00640233
H       11.20180000      15.25820000      11.07390000      -0.03611910       0.00636263       0.08253700
O       14.25610000      16.66850000       2.99279000       0.01495550      -0.05820570       0.04068210
H       13.54140000      17.99130000       2.19700000      -0.05329800       0.06360790      -0.03225030
H       15.90000000      16.94780000       2.40904000       0.04019370      -0.00607500      -0.00492135
O       17.11920000       4.06364000      19.26040000      -0.00274238       0.00149644      -0.00405693
H       17.76770000       3.21171000      20.71610000       0.01336540       0.00809027       0.00129076
H       18.53150000       4.44407000      18.16840000      -0.00579097      -0.01115440       0.01279950
O       13.36940000      19.18050000      15.71150000       0.02851320      -0.04200050       0.01043430
H       14.32330000      20.53210000      15.04270000       0.00203483       0.02116360      -0.00846622
H       14.72070000      18.07080000      16.41530000      -0.02613430       0.02097460      -0.00008094
O        5.82852000       2.88280000      18.69740000       0.05892590      -0.01688120      -0.05277400
H        5.58367000       4.64658000      17.90050000       0.00395887      -0.03260180       0.00984408
H        7.74644000       1.81895000      17.52360000      -0.08697460       0.02918880       0.04451050
O        8.93330000      17.68160000      22.53190000      -0.01514540      -0.00545441      -0.01906630
H        8.61384000      16.61790000      23.98530000       0.00982271       0.00260337      -0.00589665
H       10.51050000      18.57120000      22.58780000      -0.00354448      -0.00040981       0.01617210
O       10.45330000       2.42076000      16.02270000      -0.02981280      -0.00728645      -0.05983050
H        9.39636000       3.16166000      14.65840000       0.02583200      -0.01525590       0.00071469
H        9.56766000       3.28765000      17.25840000       0.01275590       0.04526370       0.05451410
O        5.70235000       2.83024000      24.10150000      -0.02187000       0.02630750      -0.03573070
H        5.01677000       4.37822000       0.33817000       0.01335370      -0.01340090       0.00119072
H        5.17297000       3.07286000      22.24530000       0.03437460      -0.00278356       0.04782560
O        0.66077800       5.69266000      23.47880000      -0.03287740       0.02285080       0.05044240
H        1.48234000       4.47526000      22.60320000       0.02729050      -0.04429050      -0.04008120
H        1.03057000       7.30098000      22.81840000       0.00802175       0.01665470      -0.01241940
O       20.76190000       5.90048000      11.91850000      -0.01042180      -0.00618257      -0.01251700
H       21.02080000       7.36383000      13.05810000      -0.00261984       0.00388812      -0.02351850
H       19.76400000       6.33088000      10.44150000       0.00363755       0.00438814       0.01440030
O        0.28952100      24.36180000       4.25600000       0.04902010      -0.05306820       0.02911660
H        0.69634800      22.63050000       5.30168000      -0.02916120       0.05665490      -0.03081050
H        2.06901000       0.47917000       4.27007000      -0.03229640      -0.00416982      -0.00064462
O       21.56670000      23.57490000      20.13750000      -0.01461420       0.01317610      -0.03801260
H       23.16540000      24.47420000      20.18800000       0.00017058       0.00071727       0.00402900
H       20.80650000      24.10140000      18.47860000       0.01451820      -0.00222365       0.03412740
O       11.55640000      20.97860000       0.77125400       0.01635050      -0.02698310      -0.01166090
H       12.66660000      22.33120000       0.34385200       0.01042390       0.00428311      -0.00708051
H       10.39570000      21.63970000       1.91507000      -0.01951160       0.01361970       0.01812950
O        2.69666000      12.85710000       8.93524000      -0.02613000       0.02668700      -0.06155910
H        1.77602000      13.21570000       7.16149000       0.03959490      -0.01525580       0.06031720
H        4.00587000      11.57740000       8.60741000      -0.01816530       0.00305714       0.00217927
O        1.90624000       0.65166700      21.49330000       0.03241680       0.01453750      -0.03409870
H        2.18773000       0.27364100      23.23510000       0.00797533      -0.00167614       0.00193917
H        3.61473000       1.21507000      20.65380000      -0.05143160      -0.02315310       0.01573220
O       17.01650000      13.45050000      21.30140000       0.03594020      -0.07375740       0.06184490
H       16.91450000      14.54260000      20.04850000      -0.02094600       0.07972970      -0.07572220
H       18.64720000      12.69810000      20.87250000      -0.00903935      -0.00331548       0.01056730
O       14.43300000       9.27528000      17.43840000      -0.00030402       0.01678410      -0.00232698
H       15.52090000       8.66203000      16.12510000       0.00372025      -0.00710499       0.01238320
H       15.39020000       9.75415000      18.92080000       0.00262188      -0.00536546      -0.01051140
O        8.69397000      20.72880000      14.32990000       0.01761570      -0.03695090       0.02254620
H       10.14170000      20.28180000      15.64810000      -0.04966690       0.00691046      -0.04963290
H        8.00086000      19.06630000      13.68250000       0.02699580       0.03716720       0.02662220
O        2.73020000       0.26257000      13.61170000       0.06765130      -0.03187590       0.05153660
H        4.39308000      24.21720000      12.68860000      -0.05939470       0.01867600       0.03798050
H        3.10305000       0.05697000      15.62240000      -0.00781523       0.00664964      -0.08383630
O        8.48336000       0.35087000      10.37130000       0.01615570       0.02566130      -0.03320750
H        8.23435000      24.47770000      12.04420000      -0.01198040      -0.01989840       0.04947510
H       10.30830000       0.39407000      10.32320000      -0.00945169      -0.00297398      -0.01115920
O        4.76133000       1.15976000       6.68150000       0.00544976      -0.00270623       0.00850595
H        6.07976000       0.72622400       7.89256000      -0.00514404       0.00453666      -0.00301021
H        4.32122000       2.87679000       7.01071000      -0.00241237       0.00147140       0.00316419
O       17.99150000      22.07410000       5.77498000       0.11041800       0.12648300      -0.10288100
H       16.91450000      21.28190000       6.61140000      -0.13092300      -0.10355100       0.10511600
H       19.43140000      21.10870000       5.47674000       0.02040940      -0.01851510      -0.00185539
O        1.64004000      10.50410000      20.89080000       0.03352860      -0.05000210      -0.05833080
H        3.11203000      10.99540000      19.85180000      -0.01820520      -0.02453070       0.00122815
H        1.64221000      11.93140000      21.80670000      -0.01641660       0.07207310       0.05753310
O       19.31060000      14.94350000      10.47850000      -0.01404260      -0.00624189       0.02265730
H       20.18080000      15.76180000       9.16562000       0.00781105       0.00950064      -0.02763480
H       20.47060000      14.93020000      11.85570000       0.00339628      -0.00523819       0.00497130
O       21.80060000      22.85440000      12.67210000      -0.01796400      -0.04640840       0.03299360
H       22.39480000      21.16410000      13.29530000      -0.01141580       0.03871800      -0.00890273
H       22.89870000      23.27160000      11.36930000       0.02536060       0.00690930      -0.02701930
O       17.59810000      19.03090000      19.36490000       0.04633090       0.01823510      -0.08428370
H       17.29520000      20.55610000      18.16090000       0.00171766      -0.04113640       0.04742940
H       19.23620000      18.37460000      18.41190000      -0.04336320       0.02294540       0.03813920
O       19.89050000       5.63778000      24.04740000       0.00513952      -0.09385700       0.06017660
H       21.27960000       4.15534000      24.27990000      -0.04707980       0.06964050      -0.01511360
H       18.61140000       4.93041000       0.87047000       0.03773150       0.02799940      -0.04320760
O        0.77555200      13.10740000       3.56197000      -0.25523700      -0.04465740       0.31908100
H        1.68981000      13.16010000       2.43370000       0.24863800       0.02890540      -0.30889000
H        0.34908500      11.31370000       3.73761000       0.00129494       0.01618370      -0.00334646
O       19.32610000      17.48410000       0.71820500       0.02271330       0.04444860      -0.01181880
H       19.05390000      16.70630000      23.59685500       0.00070702       0.00312060       0.00836816
H       20.14230000      19.23910000       0.35471900      -0.02522860      -0.04426600       0.00814302
O       12.82590000      11.47130000      24.19530000      -0.01873070       0.13353800       0.03843010
H       14.28900000      12.55230000       0.14377000      -0.02447530      -0.02430250      -0.01189200
H       13.23080000       9.94695000      23.70010000       0.03890810      -0.10094900      -0.02474040
