192
TotEnergy=-1103.68636000 cutoff=-1.00000000 nneightol=1.20000000 pbc="T T T" Lattice="23.64690000       0.00000000       0.00000000      -0.00000100      23.64690000       0.00000000      -0.00000100      -0.00000100      23.64690000" Properties=species:S:1:pos:R:3:force:R:3:Z:I:1
O              21.02660000     22.42400000      6.50110000     -0.01780060     -0.00196089     -0.00234543       8
H              20.62470000     23.85790000      5.44350000      0.01542170      0.00615470      0.00547981       1
H              19.34170000     21.67010000      6.54168000      0.00864023     -0.00778698      0.00320933       1
O              22.62060000     12.20230000     21.94950000     -0.00662441      0.00116764     -0.00568687       8
H              22.15640000     12.21970000     20.15810000     -0.00325536     -0.00083532      0.01085290       1
H              24.40630000     12.18620000     21.86770000      0.01578670      0.00336115      0.00395587       1
O               6.40547000     11.16250000      7.75471000     -0.00786324      0.00630890     -0.00413846       8
H               7.51351000     11.10210000      6.28794000      0.00399867      0.00461146      0.00580933       1
H               6.85833000      9.70224000      8.73733000     -0.00210567     -0.00840927     -0.00192497       1
O               8.61747000     14.61760000     20.13440000     -0.01674540     -0.03142860      0.02594680       8
H               9.85663000     15.76320000     19.63420000      0.01027330      0.02239080     -0.01505650       1
H               7.13126000     14.57730000     19.09770000      0.00431528      0.00651264     -0.00628004       1
O               5.69686000     13.69140000      0.81217200      0.00090039     -0.00381489     -0.00089390       8
H               4.30563000     14.91660000      0.88671600      0.00443620      0.00120757      0.00069799       1
H               6.99239000     14.48860000     -0.20618600     -0.00371581     -0.00409631     -0.00814567       1
O              22.43240000     -0.50567500     19.37130000     -0.00899171     -0.00958931      0.00751356       8
H              21.60020000      0.56124800     20.70020000      0.01967620      0.00010212     -0.00581671       1
H              23.82180000      0.45751700     18.74290000     -0.00049914      0.00671342     -0.00251796       1
O              13.55830000     16.31980000      3.15718000      0.00034491      0.00996431     -0.03183730       8
H              13.54390000     15.75100000      4.83409000     -0.00378608     -0.00934703      0.01608860       1
H              11.82960000     16.49590000      2.57551000      0.00817803      0.00047955      0.00910243       1
O               5.27002000      5.62837000      5.42134000     -0.00035720     -0.00397843     -0.00344726       8
H               6.44903000      5.70256000      6.81638000     -0.00444325     -0.00374090     -0.00173782       1
H               4.58543000      3.93901000      5.29640000      0.00859316      0.00133208     -0.00080358       1
O              17.29200000     14.72520000     -0.23680500     -0.03422310      0.06797590     -0.03554150       8
H              17.90510000     13.34510000      0.55528900      0.02905430     -0.06145030      0.03345890       1
H              15.80600000     15.21650000      0.74086400      0.00508076     -0.00699942      0.00426972       1
O              13.03660000     16.48470000      9.42375000     -0.00838321     -0.00076490      0.00084728       8
H              12.73170000     16.02150000     11.18930000      0.00106035      0.00467208     -0.00665895       1
H              11.33610000     16.79580000      8.68629000      0.01426630     -0.00069422      0.00376197       1
O               6.81966000     17.58400000     15.01690000     -0.00573245      0.00367368      0.00821437       8
H               5.35965000     16.50590000     15.21600000      0.00782994     -0.00173083      0.00213066       1
H               8.04488000     16.68020000     14.03040000     -0.00411554     -0.00281887      0.00029559       1
O              17.43650000     21.88300000     18.44190000      0.01273810     -0.00741311     -0.00554731       8
H              19.29390000     21.76420000     18.43510000     -0.01581520      0.00710069     -0.00139684       1
H              16.87880000     20.18210000     18.74150000      0.00026111      0.00145669      0.00361378       1
O              23.74840000     19.53920000     11.77360000      0.03617000      0.01825200      0.05294600       8
H              23.02270000     21.03090000     12.49590000      0.00900496      0.00486966      0.00724198       1
H              22.64360000     19.26280000     10.50790000     -0.04843560     -0.02170020     -0.06004140       1
O               1.10098000      6.56736000     15.25600000      0.01502120     -0.00216979     -0.01027210       8
H              -0.59656700      5.97880000     15.27000000     -0.00949583      0.00142567      0.00635147       1
H               1.84154000      5.56225000     13.86700000     -0.00940093      0.01041870      0.00805810       1
O              12.28830000     15.29720000     14.38750000      0.00208300     -0.00732760      0.00328030       8
H              13.82320000     14.77770000     15.25250000     -0.00519005      0.00146671      0.00221334       1
H              11.24710000     13.77980000     14.22070000      0.00452994      0.00512601      0.00559264       1
O              21.69770000      2.70561000     -0.49176400      0.00483982     -0.00108802      0.00926358       8
H              23.18020000      1.99482000      0.53226600     -0.00029380     -0.00712099     -0.00399391       1
H              21.95960000      4.54761000     -0.50573700     -0.00200238     -0.00755044     -0.00137165       1
O               8.04493000      3.47514000     22.44340000      0.00522614      0.00639823     -0.00822346       8
H               7.21054000      5.09877000     22.43600000     -0.00521888     -0.00866532     -0.00035658       1
H               9.75590000      3.89524000     21.76010000     -0.01325840     -0.00709737     -0.00082688       1
O              12.49860000      4.39255000     20.43820000     -0.01554410      0.01440660     -0.00258207       8
H              12.30300000      4.46150000     18.62990000      0.00700401     -0.00073677      0.00012050       1
H              13.61480000      3.05826000     20.83140000      0.01572000     -0.01208510      0.00130633       1
O              18.62390000     17.19730000      9.92822000     -0.02017820     -0.00852644      0.00697515       8
H              17.59790000     16.40760000     11.22770000      0.01239760      0.00329016     -0.00136950       1
H              17.31080000     17.36560000      8.64996000      0.01271380      0.00681105     -0.00302852       1
O              22.78420000     17.68270000     20.75980000      0.23103600      0.16675900     -0.18590500       8
H              21.69850000     17.01430000     21.60700000     -0.20090800     -0.09466970      0.14428400       1
H              22.98730000     19.61320000     20.19990000     -0.03455700     -0.06228960      0.03276860       1
O               9.46559000     23.44670000      6.43707000     -0.03217790     -0.00552815     -0.02189870       8
H              10.87820000     23.79910000      7.41383000      0.02978780      0.00827953      0.02213860       1
H               9.78979000     24.21400000      4.79431000      0.00611384     -0.00670405      0.00732412       1
O              20.41060000      4.18156000      5.04700000      0.00173129      0.00080137      0.00500012       8
H              21.21030000      4.11744000      3.43889000     -0.00430808     -0.00726599     -0.01648540       1
H              21.61220000      5.35360000      5.79936000     -0.00489996      0.00462118      0.01232580       1
O              22.63710000     12.17140000      9.39783000     -0.00261129      0.00978101     -0.00076206       8
H              23.43400000     12.96020000      7.90695000     -0.00362490     -0.00438065      0.00830997       1
H              21.25700000     13.26110000      9.89107000      0.00522992     -0.00328317     -0.00426463       1
O              10.40590000      2.26894000     13.05320000     -0.02920490      0.01199380      0.02783210       8
H               9.26075000      0.84548300     12.95260000      0.00785258     -0.00092544     -0.00308704       1
H              11.80670000      2.07101000     11.96020000      0.01209840     -0.01197200     -0.01884190       1
O              16.79020000     15.01390000     18.00830000     -0.01461170      0.00744135     -0.02183920       8
H              18.08440000     13.84370000     17.49440000      0.00568180      0.00464524      0.00616281       1
H              16.89060000     15.23520000     19.79800000      0.00481775     -0.00947322      0.01257090       1
O               2.00210000      0.54090300      1.60902000      0.01127290     -0.00880412     -0.01049610       8
H               3.31487000     -0.44427500     -2.15057000      0.02066690     -0.01263640     -0.01154550       1
H               2.30151000     -0.61947800      3.02780000     -0.00650373      0.01514710     -0.02334130       1
O               7.61820000     12.63680000     12.88540000     -0.00582317      0.00072679     -0.00351119       8
H               7.61709000     11.32610000     11.61070000      0.00599005      0.00794765      0.00658880       1
H               5.83789000     12.80890000     13.26400000      0.00114921     -0.00699426      0.00454006       1
O               4.71199000      7.05793000     19.27430000      0.05672230      0.01076990      0.00599024       8
H               4.80427000      7.65978000     21.02550000     -0.01012100     -0.00219050     -0.00797144       1
H               3.10347000      6.72439000     18.72850000     -0.04897240     -0.00955150     -0.01059670       1
O               9.36328000     13.04660000      4.27692000     -0.01648300      0.00104118     -0.00484224       8
H               8.03460000     12.96190000      2.98426000      0.00868635      0.00231484      0.00402624       1
H               8.71632000     14.45930000      5.27930000      0.01267070     -0.00198389     -0.00253271       1
O              11.23720000      1.06998000      1.87294000      0.01744390      0.00876014      0.00066622       8
H              12.60720000      2.29688000      1.64278000     -0.01555500     -0.01587250      0.00435501       1
H               9.71974000      1.76021000      1.14547000     -0.00085760      0.00987147     -0.00428606       1
O              13.91810000      6.83700000      1.71224000     -0.01296520      0.01179570      0.00004759       8
H              14.99390000      5.46585000      1.26588000      0.00741131     -0.00803879     -0.00720845       1
H              13.07370000      7.39620000      0.18986600      0.00920489     -0.00616326      0.00587571       1
O               9.73445000     19.79330000      2.02192000     -0.00288591      0.01180560     -0.01630830       8
H               8.65180000     20.17210000      0.60159600     -0.00179559     -0.00855433      0.00901467       1
H              10.97150000     21.15320000      1.81723000     -0.00162019     -0.01044580      0.00692871       1
O              14.11210000      0.82595800      9.75618000      0.00651002     -0.01109190      0.00703362       8
H              15.19260000     -0.26813900     10.74560000     -0.00652115     -0.01305370      0.00841898       1
H              15.40110000      2.05608000      9.38512000     -0.00080695      0.02067090     -0.01449790       1
O              17.50860000     22.22410000     13.16290000     -0.02077040      0.03139920      0.00900393       8
H              18.34080000     20.83920000     12.48700000      0.01505230     -0.03296440     -0.01525360       1
H              16.90790000     21.77130000     14.82970000      0.00869202      0.00000810      0.00120518       1
O              14.74070000     20.31490000     22.88540000     -0.00023012     -0.00858413     -0.01006040       8
H              15.62000000     18.88310000     23.58520000     -0.00470784      0.00340697     -0.00263492       1
H              13.82200000     19.68540000     21.41250000      0.00218540      0.00476484      0.01351920       1
O              12.23510000      9.92036000     15.72550000      0.00214388      0.00449763      0.02126240       8
H              10.94290000      8.63852000     15.80340000     -0.00963569     -0.00275313     -0.01147310       1
H              12.19910000     10.51480000     17.46280000      0.00685821      0.00244793     -0.01215170       1
O               3.34132000     14.32790000     18.14070000     -0.01704840      0.02815720      0.00647854       8
H               2.13245000     13.09270000     17.66040000      0.00426300     -0.01477860     -0.00635711       1
H               2.14044000     15.70460000     18.47860000      0.01501620     -0.00677440      0.00635611       1
O               8.06260000      6.71372000     15.07150000     -0.00006168     -0.02154860      0.00287737       8
H               8.65865000      5.04224000     14.52970000     -0.00025375      0.00516957      0.00924593       1
H               6.65239000      6.45773000     16.23830000      0.00773860      0.00849413      0.00213508       1
O               5.03810000      8.30620000      0.33866900      0.00929249      0.01363800      0.00541415       8
H               5.40772000     10.09020000      0.69407600     -0.00384250     -0.00863640     -0.00349898       1
H               5.83163000      7.31945000      1.63980000     -0.00661916      0.00102282      0.00913698       1
O              15.17650000      3.42333000     15.77700000      0.00640581     -0.00603501     -0.01702000       8
H              14.88650000      1.68429000     16.18840000      0.00197111     -0.00277242      0.00969293       1
H              15.49590000      3.22295000     13.97910000     -0.00217737      0.00795171      0.00782800       1
O              16.64050000      5.08847000      8.82638000     -0.01623460      0.00987501     -0.00295116       8
H              17.35860000      5.03849000      7.13574000      0.00382601     -0.00035926      0.00471318       1
H              15.02410000      5.98750000      8.65180000      0.01731880     -0.00463852     -0.00507933       1
O               2.08911000     17.12960000      1.12282000      0.00292604      0.00234622      0.00562120       8
H               1.89393000     18.63660000      2.12163000      0.00730457      0.00220208      0.01505610       1
H               1.22850000     17.61970000     -0.39368400     -0.00692631     -0.01097710     -0.01568050       1
O              15.58280000     12.29830000      7.40729000      0.00279563     -0.00437560      0.01373680       8
H              15.00070000     13.84090000      8.22182000     -0.00421797     -0.00212922     -0.00442838       1
H              16.09930000     11.24660000      8.83818000     -0.00129712      0.00595594     -0.00419147       1
O              16.31650000     10.02230000     12.10520000     -0.00360603      0.02457680     -0.01371170       8
H              16.99800000      8.42169000     12.47180000     -0.00654863     -0.01181020      0.00102325       1
H              14.83010000     10.30670000     13.11890000      0.00120642     -0.00995668      0.00865043       1
O               8.55423000      7.22035000      9.96866000      0.01113060     -0.00652982     -0.00119959       8
H               8.68966000      6.47218000     11.61700000     -0.00704838      0.00576614     -0.00194330       1
H              10.27240000      7.33241000      9.31016000     -0.01365580     -0.00174256     -0.00642244       1
O              16.28630000     20.21920000      5.82553000      0.06474540     -0.02963440     -0.02861060       8
H              16.06140000     20.45510000      4.04154000     -0.01555300      0.00333693      0.00979126       1
H              15.07770000     20.86580000      6.85329000     -0.05309250      0.02883420      0.02253400       1
O              11.35130000     19.24520000     18.61890000     -0.00512957     -0.00102486     -0.00567034       8
H               9.68483000     19.99210000     18.40260000      0.01506500     -0.01071200     -0.00324848       1
H              11.62490000     18.12650000     17.18050000     -0.00470482      0.00822527      0.00238612       1
O              21.24200000     12.25390000     17.05210000      0.00336438     -0.01058860     -0.01896970       8
H              22.50200000     12.44480000     15.71980000     -0.00576524      0.00230550      0.00265111       1
H              20.54800000     10.58550000     16.72250000      0.00127231      0.00080944      0.00603938       1
O               1.96243000     12.98180000      5.52867000      0.01145030      0.00152392      0.00431934       8
H               1.99583000     14.08690000      4.09567000     -0.00019105      0.00065727     -0.00264868       1
H               3.68517000     12.79120000      6.20173000     -0.01290230     -0.00332875     -0.00553426       1
O               8.66844000     17.51080000      7.04109000      0.00342973      0.00451505     -0.00758569       8
H               7.12454000     17.60850000      7.99224000     -0.00326997      0.00851319      0.00101320       1
H               8.87442000     19.08110000      6.09670000     -0.00313073     -0.00658998      0.00277438       1
O              12.23890000      8.24302000      6.77014000     -0.00347547     -0.00307883      0.06754260       8
H              12.47110000      8.45877000      5.09456000      0.00590366     -0.00834222     -0.07735340       1
H              12.61020000      9.93855000      7.27764000      0.00515230      0.01142140      0.00993710       1
O               5.12726000     -0.69205700     20.58640000     -0.01852590     -0.00974875      0.02511430       8
H               5.49746000     -0.64808500     18.69140000     -0.03237770      0.01068250      0.03374880       1
H               5.88725000      0.72152200     21.50470000      0.02349780      0.01398840     -0.00322095       1
O               2.16396000     11.85520000     13.62870000      0.00115712     -0.00576099     -0.00084663       8
H               1.43825000     11.44330000     11.98510000     -0.00470277      0.00531511      0.00343432       1
H               2.39716000     10.24360000     14.46690000     -0.00209273     -0.00143889     -0.00517501       1
O               6.26944000     22.43650000     13.57490000      0.00724469      0.01715100      0.01762550       8
H               6.00838000     20.66210000     13.79860000      0.00544600     -0.01205770     -0.00084546       1
H               5.97987000     22.83250000     11.83050000     -0.00728758     -0.00000745     -0.01699470       1
O               0.40535400      7.22316000      7.06290000      0.00409861      0.01135120     -0.00243415       8
H               1.74669000      6.70415000      5.93215000      0.00256147      0.00526176      0.00481665       1
H               0.49752400      9.06744000      7.05562000     -0.00528001     -0.01773380      0.00013635       1
O              16.53230000      1.63311000      0.60859600      0.01326560     -0.01031920     -0.01320640       8
H              16.44860000      0.19988800     -0.55863200     -0.00891011      0.00544667      0.01101310       1
H              18.36650000      1.85088000      0.72452600     -0.00507729      0.00940530     -0.00187952       1
O               1.61117000      3.52016000     11.20740000      0.00247982      0.00078941     -0.00265394       8
H               3.12991000      3.33924000     10.22890000     -0.00037057     -0.00650478     -0.00031543       1
H               0.41137300      4.11915000      9.96651000      0.00214279      0.00274464      0.00409744       1
O              18.10470000      9.99357000      3.27626000     -0.00648666      0.00128664      0.01441010       8
H              18.10120000     10.79630000      4.93380000      0.00223972     -0.00000139     -0.01214550       1
H              16.55740000      9.02545000      3.33701000      0.00207288      0.00288197     -0.00781569       1
O               2.17487000     19.92480000      5.36593000     -0.00424144     -0.02153710      0.01565720       8
H               2.49193000     18.24320000      6.05337000      0.00191773      0.01302930     -0.00351220       1
H               0.56790300     20.37830000      6.12448000     -0.00226364      0.00895816     -0.00762052       1
O               3.86754000      2.06741000     17.04820000      0.01959200      0.00270492     -0.02503610       8
H               3.55728000      2.00737000     15.26060000     -0.02080730     -0.00718696     -0.00439069       1
H               5.67007000      2.24944000     16.78220000     -0.00166859      0.00641361      0.01521410       1
O               4.34018000     17.27190000      9.91951000     -0.00266908     -0.01965410      0.01022820       8
H               5.03787000     15.63020000     10.40080000     -0.00906597      0.01217260     -0.00311051       1
H               2.93162000     17.62240000     11.07100000      0.01049180      0.00091006     -0.00959225       1
O              19.07280000      7.15223000     16.15380000      0.00092019     -0.01348630      0.02248520       8
H              18.16000000      5.58433000     16.57620000      0.00445977      0.01660050     -0.00761530       1
H              19.20830000      7.25695000     14.38330000      0.00177528     -0.00643981     -0.01383260       1
O              22.04380000      7.45020000      0.87407800     -0.00582508      0.01037160      0.00515717       8
H              20.41490000      7.88898000      1.61099000      0.00616222     -0.00009559      0.00168227       1
H              22.73860000      9.12217000      0.62082500     -0.00021837     -0.00723545     -0.00786725       1
O               4.88408000     23.21160000      8.76979000     -0.03180580      0.02063670      0.04696630       8
H               4.05927000     21.63210000      8.89019000     -0.01087830     -0.01073720     -0.00751249       1
H               6.01332000     23.11230000      7.46245000      0.04220990     -0.00402114     -0.03979810       1
