192
Lattice="23.95001 0.0 0.0 0.0 23.95001 0.0 0.0 0.0 23.95001" Properties=species:S:1:pos:R:3:force:R:3 TotEnergy=-1103.50816 cutoff=-1.0 nneightol=1.2 pbc="T T T"
O       20.17100000       2.88959000      15.71182000      -0.01396240      -0.00613496       0.01524340
H       19.66610000       3.71980000      17.33952000       0.00981725      -0.01886770      -0.02369090
H       19.29610000       1.23104000      15.47982000      -0.00134529       0.02458040       0.01238710
O        0.53158000      22.78029000       9.42096000      -0.04503880       0.01145040       0.00249014
H        1.91848000      21.89049000       8.82584000       0.03716670      -0.02387950      -0.01412480
H       23.08209000      22.11399000       8.38379000       0.01201810       0.01499270       0.01144820
O       10.48430000       0.63676600      14.91700000       0.01635750      -0.05101280       0.00074522
H       10.81430000      22.63224000      15.01440000      -0.00557445       0.05411650       0.00079482
H        8.86975000       0.85190000      15.68400000      -0.01211030       0.00006685       0.00072601
O       18.81642000      14.27306000      23.85195500      -0.02383390       0.00517141      -0.01594930
H       19.55929000      14.91520000      22.28931000       0.00173495      -0.00151425       0.01607770
H       17.27595000      15.32742000      23.91659800       0.02088120      -0.01092220       0.01224060
O        9.14624000       4.97529000      21.60750000       0.03774760       0.03345970       0.01279340
H       10.19950000       6.36719000      22.42160000      -0.03881000      -0.03527300      -0.01786910
H       10.43790000       4.46909000      20.25320000      -0.01756910      -0.00468987       0.00629990
O       21.17344000      14.08090000       8.69352000       0.03319480      -0.00835928      -0.01589820
H       21.74406000      13.02680000       7.11880000      -0.01686930       0.02981200       0.04121250
H       22.69374000      14.95890000       9.47523000      -0.02068580      -0.01286890      -0.03066510
O       14.44609000      22.79810000      11.27900000       0.03396110      -0.07777780      -0.04067130
H       16.00939000      23.41510000      10.38790000      -0.03145370      -0.00795763       0.01174230
H       14.43799000      20.72930000      10.61910000      -0.00580635       0.08593550       0.01317830
O        1.05248000       1.18471000      14.40770000       0.04015650      -0.01947010      -0.05998840
H        1.19654000       0.42321000      12.57470000      -0.02616430       0.01712300       0.06382490
H       23.47189700       1.03161000      15.30420000      -0.02885900      -0.00023079      -0.00940094
O        6.29559000      13.35222000      18.18910000      -0.06323390       0.07481120      -0.07238990
H        7.39859000      12.70762000      19.30490000       0.06005010      -0.02736710       0.05485700
H        6.47219000      15.33132000      18.02390000       0.00780865      -0.04755870       0.01768720
O        7.57688000      19.64822000      23.58282000      -0.18921600       0.05751100       0.03607870
H        8.89076000      18.70882000      23.56512000       0.13834100      -0.09028530       0.00791937
H        6.05925000      18.69512000       0.81211000       0.04312730       0.02981420      -0.03230950
O       11.77871000       1.81698000       4.90908000       0.04093940       0.03925580       0.01197010
H       10.07851000       1.56430000       4.56028000      -0.04674030      -0.01019930      -0.00885501
H       11.99661000       3.66673000       4.53236000       0.00224983      -0.03685890      -0.00256999
O       13.08591000       5.34069000       1.65598000       0.00387422       0.00012067      -0.00724206
H       13.47881000       3.99879000       0.47128000      -0.00366483      -0.00112050       0.00060877
H       14.75083000       5.95039000       2.02668000       0.00836667       0.00790301       0.00258790
O       13.45740000      18.62962000       7.78761000      -0.01355000      -0.03727280       0.04347270
H       14.21640000      16.86802000       8.16441000      -0.01110660       0.03607670      -0.02202890
H       11.72960000      18.51012000       8.73481000       0.03193630       0.01486950      -0.02580410
O        1.72639000      16.33180000      10.35949000      -0.06974930      -0.05187510       0.04132150
H        2.98709000      17.36610000       9.85679000       0.05143510       0.03228710      -0.01063170
H        1.96919000      15.44720000      12.00319000       0.01625250       0.01786180      -0.02780930
O       23.74793500       2.27305000      22.40334000       0.06269580       0.02436840      -0.06443270
H        1.33755000       2.26245000      21.12540000      -0.05399800       0.01663990       0.04699270
H       23.88575000       0.59270700      22.93104000      -0.01046530      -0.03430010       0.02156080
O       21.07902000      23.60080000       4.98729000       0.08575400       0.05342050       0.04470010
H       22.09032000      22.91330000       3.71019000       0.04626240      -0.00054069      -0.02227040
H       19.75192000      22.75590000       4.50089000      -0.12782600      -0.05241390      -0.01810300
O       16.91412000       9.04476000      22.56900000      -0.04978940       0.00373966      -0.06667830
H       15.77932000       9.34147000      20.82280000       0.04591120      -0.00839879       0.06748120
H       17.48322000      10.67970000      23.14740000       0.00726429       0.00662961      -0.01055350
O        3.91321000      12.06988000       6.48171000       0.03952920      -0.01005200      -0.01803390
H        5.83221000      11.95908000       6.43091000      -0.04900290       0.00618306      -0.00055941
H        3.30261000      11.49848000       4.82761000       0.01118430       0.00688629       0.01655640
O       16.95288000      22.28220000      15.56969000      -0.06888050       0.07191480      -0.01944150
H       15.63598000      22.36320000      14.05809000       0.02847780       0.01336340       0.03865320
H       17.71628000      20.86320000      15.03119000       0.04547430      -0.07254390      -0.01436100
O        6.51748000       1.49641000       4.26392000       0.02618310      -0.03434040      -0.06772510
H        5.12458000       2.35211000       4.95221000      -0.02098990       0.01440950       0.00746057
H        6.29108000       1.15531000       2.30036000      -0.00645121       0.01624790       0.05936590
O        9.22869000      18.88490000      10.33571000       0.02369770       0.10037000      -0.03852750
H        8.61149000      17.33050000      10.33411000      -0.03911840      -0.11368800       0.00393217
H        9.66009000      19.38090000      11.95771000       0.00720410       0.00948223       0.04248500
O       13.90301000       6.85321000      12.78188000       0.02501170       0.03482480       0.02741980
H       13.18381000       5.62630000      11.79768000      -0.03683140      -0.03831230      -0.03169340
H       15.70670000       6.46403000      12.50498000       0.00231124       0.01743380       0.00249105
O        6.15261000       0.47515200      22.97327300      -0.00937967      -0.02894140       0.02016590
H        6.76417000      22.72720000      23.61274700       0.00043811       0.02609170      -0.02224240
H        7.52072000       1.63988000      22.89178000       0.01357150       0.00752980      -0.00635962
O       20.62649000       5.92186000      20.40600000       0.00290658      -0.02953110       0.04825930
H       19.35229000       6.98825000      21.36920000       0.02636900      -0.01816620      -0.00712971
H       21.69529000       4.64314000      21.65200000      -0.03664600       0.04508680      -0.04074490
O       20.89904000      11.33038000       4.05749000      -0.00929229       0.05865840      -0.03177270
H       20.05858000      12.81228000       2.99259000       0.02627220      -0.04968020       0.02837650
H       22.64036000      11.45188000       3.44359000      -0.01399230      -0.00663462       0.00005708
O        7.69280000      14.07309000      10.05510000      -0.05412760       0.07978820      -0.04484690
H        6.68498000      14.08039000      11.51970000      -0.02012790      -0.01493750       0.02033770
H        8.97930000      12.99629000      10.16160000       0.07161860      -0.06310010       0.01781360
O        6.84521000      18.30210000      18.64510000       0.16563900      -0.05889150       0.04823580
H        5.39081000      18.98240000      18.82450000      -0.14406600       0.07390140       0.00355651
H        7.53981000      18.63070000      20.55010000      -0.02520490      -0.00890415      -0.05342820
O        9.57929000       9.20879000       1.80048000      -0.04238000      -0.08229960      -0.00328531
H       10.56529000       7.35529000       1.58088000      -0.03563140       0.07081850       0.02079720
H        7.48539000       8.78139000       2.01368000       0.07381600       0.00878730      -0.01267900
O       13.80950000       9.53739000      17.63070000       0.00921164       0.01683610       0.03879860
H       14.21390000      11.18019000      16.97920000      -0.00266890       0.00008874      -0.01186680
H       13.54150000       8.36369000      16.32370000      -0.00144901      -0.01570580      -0.02289650
O       23.62139000      21.29132000       0.89449000       0.02229200       0.00668167       0.00674487
H       22.41547000      20.10842000       0.40669000      -0.04212900      -0.01476020      -0.02025430
H        1.02421000      20.09182000       1.03909000       0.01886420       0.00580056       0.01065160
O        2.17748000      13.01700000       0.88000200       0.01821410       0.00276095      -0.02743760
H        3.18200000      11.46200000       0.53037700      -0.01483120       0.01648130       0.00767620
H        2.13344000      13.92750000      23.15998600      -0.00596478      -0.02137640       0.02582070
O        5.26411000       2.79997000      15.88750000       0.02813330       0.01158450       0.02087350
H        3.48712000       2.79837000      15.64180000      -0.02220180      -0.00850615      -0.01722870
H        5.38923000       3.75938000      17.42320000       0.00900078       0.00014505      -0.00120288
O       12.36382000       3.67858000      18.54242000      -0.05533110       0.01131620      -0.06771620
H       12.06182000       2.49988000      17.08962000       0.00667899       0.00822702       0.01727720
H       13.75482000       3.35858000      19.48382000       0.05884260      -0.02384840       0.03451600
O        3.30351000       3.12268000       7.83321000      -0.03496030      -0.02447780       0.04226390
H        4.06504000       3.55098000       9.48001000       0.01197140       0.00542935      -0.01986430
H        1.93579000       1.94418000       8.46851000       0.02131240       0.01638200      -0.02423280
O       13.99572000      12.09499000       2.51472000       0.11961400       0.01729170       0.02356640
H       14.97252000      10.81689000       1.63393000      -0.02843630       0.00305596       0.00141334
H       12.32492000      12.15399000       2.39502000      -0.09133060      -0.02106910      -0.01937630
O       21.95850000      10.25059000      12.16030000       0.00964460      -0.02282780       0.01598290
H       23.47850000       9.38609000      11.59450000      -0.00311729       0.01186460      -0.00485806
H       21.72780000      11.75799000      11.19460000       0.00025185       0.00789727      -0.01433340
O       11.25441000       3.22941000       9.81009000      -0.03473590       0.08353060      -0.02628040
H       11.26661000       2.62401000       8.12905000       0.00001737      -0.00117409      -0.03397240
H       11.96391000       1.93151000      10.58170000       0.03976280      -0.08223560       0.06385850
O        4.21622000       6.20947000      20.88760000      -0.02472900       0.01921060      -0.04341660
H        3.67212000       7.32852000      19.40760000       0.01245140      -0.02742610       0.03941270
H        5.90162000       5.55324000      20.61060000       0.00907641       0.01174440       0.00680868
O        3.62981000       8.78691000      10.50639000      -0.00932248       0.00505249       0.00178399
H        4.80121000       7.32241000      10.61369000      -0.00404738       0.01908110      -0.00812826
H        3.67381000       9.86381000       8.97619000       0.00569854      -0.01875520       0.00772003
O       15.62080000      14.30090000       7.19029000      -0.04963940      -0.01275070       0.00024280
H       17.33340000      14.53100000       7.40729000       0.05106890      -0.00159695       0.00223598
H       15.23690000      13.57010000       5.54089000       0.00485462      -0.00210054      -0.00006255
O        2.94461000      21.71060000      18.30689000      -0.01417330      -0.03637060      -0.00751616
H        3.38371000      22.85483000      19.53309000       0.01960080       0.02195410       0.05173850
H        2.71591000      22.87629000      17.00209000      -0.00677065       0.01220040      -0.04310890
O       18.19939000       2.72874000       7.95189000       0.00676678      -0.04298930      -0.08884300
H       18.12579000       3.27734000       9.53789000       0.00501432       0.04141630       0.08393260
H       19.79959000       1.88577000       7.64259000      -0.01032060       0.00309766       0.00354334
O       13.88211000      14.62072000      14.84595000       0.00678815       0.03181130       0.06537470
H       15.39795000      15.59082000      14.68423000       0.01159610      -0.00169483      -0.00810574
H       13.36531000      13.89912000      13.35711000      -0.01473160      -0.02617680      -0.05165370
O        6.65158000       4.94111000      11.21711000       0.06561880      -0.02489970       0.02806280
H        8.57958000       4.84641000      10.65961000      -0.05662380      -0.00575481       0.00851084
H        6.77838000       4.02461000      12.90841000      -0.01264030       0.02301510      -0.03135200
O       16.01070000      22.31023000       4.47855000       0.00134637      -0.07292330       0.04386500
H       14.95070000      23.71029100       4.17621000      -0.02218240       0.01360840       0.00748156
H       15.22950000      21.06515000       5.89394000       0.01539850       0.05410570      -0.04857100
O       11.76522000      17.45467000      22.14339000       0.06013640      -0.06220690       0.03219610
H       11.63382000      15.59835000      21.67919000      -0.00495690       0.03492710       0.00280518
H       13.26102000      17.22765000      23.57559000      -0.04762760       0.02042170      -0.03120320
O        4.26136000      12.77021000      13.46351000       0.01497950       0.02278560       0.02509270
H        5.52265000      12.71011000      14.84005000      -0.01935840      -0.00601208      -0.00498476
H        4.29891000      11.20551000      12.53591000      -0.00292337      -0.01580930      -0.00600544
O       18.76230000      17.61510000      14.02740000       0.00198441      -0.02164380      -0.04773940
H       19.00920000      17.09550000      12.14580000       0.00590638       0.01258280       0.06690110
H       20.24510000      17.23010000      15.11170000      -0.00646977       0.00545957      -0.02631400
O       11.31940000      19.60570000      15.79182000      -0.00377211      -0.08115100       0.05862520
H       12.22180000      17.86840000      15.47095000      -0.02134800       0.04722320       0.00284637
H       10.41880000      19.08130000      17.54890000       0.02319460       0.02690610      -0.06999260
O        0.51999000       6.34538000       5.09939000      -0.04578570      -0.04434460       0.00196979
H       22.85740000       5.16418000       4.71839000       0.06573800       0.04774960       0.00870172
H        1.50819000       5.47078000       6.45649000      -0.01393110       0.00578594      -0.01854660
O       18.99669000       5.59347000       3.16014000      -0.00280115       0.03331890       0.06766620
H       18.83426000       4.47026000       4.61459000      -0.00693664      -0.02087650      -0.01642630
H       19.04306000       7.04951000       4.43847000       0.00372697      -0.01244150      -0.04986540
O       15.21980000      21.13022000      20.47830000      -0.02059150      -0.04541280       0.03011050
H       14.02390000      19.57552000      20.71760000       0.02665800       0.04763140      -0.00990208
H       14.88430000      21.92842000      18.91910000      -0.00466362      -0.00281266      -0.02421580
O       19.83893000      18.54470000      21.23409000      -0.00759635       0.01652210      -0.12580100
H       20.66418000      17.97950000      19.30729000      -0.02094720       0.02384560       0.08346960
H       18.47049000      19.76670000      20.38399000       0.03186230      -0.03572380       0.04108940
O       15.26839000      17.81829000       2.16113000       0.00000204       0.03477920       0.00962708
H       15.75339000      19.72249000       2.34141000      -0.01428810      -0.04347350       0.00045917
H       14.51059000      17.40129000       3.80730000       0.00762803       0.00623649      -0.02019220
O       23.24010000      17.78000000      16.78552000       0.02766420       0.00490409       0.04299830
H       23.77550000      16.17890000      17.67762000      -0.00456030       0.01867150      -0.01167840
H        0.34859000      19.13500000      17.69912000      -0.02621760      -0.02894540      -0.02577990
O        3.72261000      17.94879000       2.63344000       0.02603710       0.02552890       0.03099210
H        3.75541000      16.13769000       2.74965000      -0.00703464      -0.01012140       0.00046697
H        4.32431000      18.66099000       4.34646000      -0.01335060      -0.01500670      -0.03339310
O        5.22195000      20.54022000       7.10089000       0.02424840      -0.03753780       0.07465200
H        6.35566000      20.09542000       8.79709000      -0.03202150       0.02051560      -0.07142800
H        5.59727000      22.23852000       6.67869000       0.01115020       0.02082650      -0.00861299
O        4.24132000       8.27579000       1.68319000      -0.03989520      -0.03162210       0.02616850
H        3.87167000       7.17459000       0.16509600       0.00898086       0.01859350       0.01987730
H        2.93776000       7.64869000       3.10901000       0.03366300       0.01078460      -0.04526910
O       11.97371000      11.59691000      11.00140000       0.04032480      -0.02843460      -0.00705817
H       12.63741000       9.83241000      11.62460000      -0.01089510       0.04116370      -0.01921740
H       13.15061000      12.21571000       9.65172000      -0.01590670      -0.01908590       0.02222720
O       18.74094000       6.43123000      11.74930000       0.00550660      -0.05846990       0.04637140
H       19.69333000       7.94443000      11.58470000       0.01403460       0.02031900       0.00224679
H       19.51400000       5.44877000      13.27350000      -0.01817380       0.02504700      -0.04024620
O        1.21319000      13.78331000      19.69857000       0.01941880       0.03357160      -0.00618915
H        2.83369000      13.84851000      18.80445000       0.00105925       0.00054680       0.00858509
H        0.86099000      12.05911000      19.44699000      -0.01977920      -0.03352820      -0.00660850
O       23.89290000       8.97046000      17.78049000      -0.01283680      -0.00986788      -0.05729910
H       22.37520000       8.03033000      18.52269000       0.03049800       0.01010110      -0.01959660
H       23.86940000       9.01098000      15.75379000      -0.01015740      -0.00074284       0.08279510
O       15.85740000       2.25759000      22.02289000      -0.00559838       0.15814500       0.02690430
H       17.33030000       3.24339000      21.52989000      -0.00440620      -0.01817130       0.00511309
H       15.91780000       0.65889000      21.70599000       0.01606460      -0.14032700      -0.02740790
O       10.30861000      11.50470000      21.13030000       0.02810250      -0.04160180       0.01597970
H       11.58821000      10.50590000      20.19910000      -0.01535810       0.02113440      -0.01138170
H       10.22641000      10.26420000      22.58530000      -0.01748920       0.03487040      -0.00455007
