192
TotEnergy=-1103.41929000 cutoff=-1.00000000 nneightol=1.20000000 pbc="T T T" Lattice="24.23666000       0.00000000       0.00000000      -0.00000100      24.23666000       0.00000000      -0.00000100      -0.00000100      24.23666000" Properties=species:S:1:pos:R:3:force:R:3:Z:I:1
O              23.00100000     -0.23935700    -30.13860000     -0.01336690      0.01881750      0.07633200       8
H              23.72390000      0.43924000    -28.24610000     -0.02946830     -0.02079010     -0.06875990       1
H              21.12010000     -0.71309800    -29.83080000      0.05314470      0.00891175     -0.01089480       1
O              49.88250000     45.34970000      5.41494000      0.05657640     -0.00570239     -0.03779170       8
H              51.85990000     44.98150000      5.53029000     -0.05624040      0.00983940      0.00246894       1
H              49.77580000     45.54780000      3.53649000     -0.00356248     -0.00499778      0.02999550       1
O              13.51120000     -0.58851800     12.96090000     -0.06903910     -0.00400524      0.00131628       8
H              15.19190000     -0.53129300     13.03920000      0.09186050      0.00960557     -0.00063662       1
H              13.17890000     -2.28185000     13.55830000     -0.01701580     -0.00161866     -0.00034010       1
O              -5.61229000     -9.04263000      0.54570200      0.01388730     -0.01568250     -0.01305600       8
H              -4.71685000     -9.46522000     -1.00254000     -0.00068607     -0.00877377      0.00152148       1
H              -5.52949000     -7.25865000      0.56957200     -0.01269580      0.01984350      0.00749337       1
O               7.30925000     31.13200000     20.73250000     -0.04838710      0.00062421      0.02050240       8
H               7.95301000     32.39050000     21.88010000      0.01673690     -0.00659240     -0.00857049       1
H               8.44620000     30.29430000     19.61610000      0.02939420      0.01172250     -0.00008043       1
O              -2.71701000     11.69400000     11.27790000     -0.04218200     -0.05863730     -0.03009870       8
H              -3.37008000     10.20650000      9.60907000      0.03042540      0.03967540      0.06347070       1
H              -1.19996000     12.65450000     10.90790000      0.00686702      0.00499997     -0.01518870       1
O              45.83110000     26.92490000     11.58710000     -0.00506728     -0.04040960     -0.04241830       8
H              47.59230000     27.23080000     12.01380000     -0.01134030     -0.01158260     -0.00782830       1
H              45.61400000     25.55810000     10.12700000      0.01888290      0.04466130      0.04509700       1
O              -1.96113000    -29.47680000     10.04450000     -0.00964966      0.01287060      0.01377340       8
H              -0.94515300    -30.89300000      9.52099000      0.00471052      0.00255646     -0.00673500       1
H              -2.24810000    -28.12760000      8.83833000      0.00783324     -0.01282740      0.00062112       1
O              27.94040000    -32.88480000     18.78640000      0.02377860     -0.01270880      0.05258870       8
H              28.96250000    -31.33330000     18.63340000     -0.01056250     -0.01279160     -0.00299554       1
H              28.51680000    -33.70520000     20.46950000     -0.01316690      0.02166920     -0.05176020       1
O               7.82810000    -25.63890000    -27.49330000      0.02150800     -0.02056670     -0.01770670       8
H               9.55151000    -25.47860000    -28.14650000     -0.01283610      0.00022698      0.01015610       1
H               7.73550000    -27.38020000    -26.76180000     -0.00246402      0.02083190      0.00638297       1
O             -11.41910000      2.86287000      5.59292000      0.03518180      0.04780310     -0.02575600       8
H             -12.85070000      2.94367000      4.41612000      0.00660073     -0.00317996      0.00742906       1
H             -10.16060000      4.25664000      4.97014000     -0.04653060     -0.04775850      0.01755950       1
O             -10.71140000     31.26850000     49.79120000      0.02016890     -0.06920130     -0.03249770       8
H              -9.98994000     29.81000000     48.45240000     -0.02305430      0.04659460      0.03892980       1
H             -10.35600000     32.83520000     48.98550000     -0.00060909      0.01965610     -0.00697643       1
O              14.93430000    -30.14430000    -14.67790000     -0.01960450     -0.04893260     -0.00128425       8
H              15.45340000    -31.91960000    -15.35940000     -0.01831320      0.04516690      0.01160850       1
H              13.06170000    -30.31870000    -14.34830000      0.02991290      0.00510642     -0.01578910       1
O              25.26440000     14.52390000     34.26910000     -0.11251900      0.00663171     -0.10672600       8
H              25.75410000     14.08180000     32.54690000      0.00448618     -0.00189873      0.01083240       1
H              26.52830000     14.56300000     35.30120000      0.11597200     -0.00246977      0.08961660       1
O               0.48159100      1.24530000     -0.97512600      0.05369690     -0.00534285     -0.01489920       8
H               2.29039000      2.19418000     -1.06423000     -0.05146800     -0.03695720      0.00245366       1
H               0.85553500     -0.66305900     -1.07499000     -0.00405484      0.03857710      0.01259460       1
O             -27.39300000     23.78140000     31.29860000      0.03493150     -0.05780500     -0.05523340       8
H             -26.07320000     22.38980000     30.29720000     -0.04997060      0.06667590      0.03971470       1
H             -28.95760000     23.87550000     30.24300000      0.02223470     -0.00960761      0.02124350       1
O             -34.22140000     12.03460000     24.74070000      0.06765380      0.01237280      0.02296790       8
H             -35.08370000     12.56530000     23.24150000      0.00985080     -0.00124342     -0.02475310       1
H             -32.30530000     12.69720000     24.75550000     -0.07448970     -0.00849278     -0.01021850       1
O             -17.50360000     62.35850000    -19.04350000     -0.00024441     -0.01642000     -0.03810440       8
H             -17.46620000     62.26630000    -17.26270000      0.00493738     -0.00135864      0.02860180       1
H             -16.93610000     60.69010000    -19.60180000     -0.00333238      0.01429920      0.00454891       1
O              66.76830000     19.30090000     37.25210000      0.00738545      0.02182600      0.06687180       8
H              68.28620000     19.25370000     36.25430000     -0.01125280     -0.00939602     -0.02596410       1
H              65.14110000     18.72480000     36.74730000      0.00279425     -0.00557419     -0.03625560       1
O              56.29720000    -22.58860000      3.58825000     -0.05586140      0.03465530     -0.06349130       8
H              55.11000000    -21.54480000      4.64362000      0.01866440     -0.02302110     -0.01656430       1
H              55.38630000    -22.21920000      1.54289000      0.03041710     -0.00873585      0.07344950       1
O              33.96990000     18.67810000    -14.90460000      0.02451680      0.05415390      0.03833840       8
H              33.18890000     17.15830000    -14.81840000     -0.03976510     -0.08197990     -0.02675460       1
H              33.89750000     18.73930000    -13.04280000      0.01146950      0.02673590     -0.01342750       1
O             -10.76170000      7.41446000     62.12970000      0.08917870      0.04230700      0.07337570       8
H             -11.67320000      6.38389000     61.07820000     -0.01423560     -0.05529740     -0.03462300       1
H              -8.72058000      6.85083000     62.67250000     -0.06691210      0.00039960     -0.03989770       1
O               5.49363000      2.64925000     -1.29351000     -0.02962900      0.09745540      0.04183550       8
H               6.38710000      1.45793000     -2.14160000      0.03846330     -0.04905710     -0.04397510       1
H               5.93141000      4.51387000     -1.87909000     -0.00326060     -0.05313010      0.00902247       1
O              44.52150000      4.55134000     23.60560000     -0.05893830      0.04105650     -0.00496527       8
H              44.19470000      5.46029000     25.18980000      0.01036880     -0.01205980     -0.00747810       1
H              45.89180000      3.49830000     23.48600000      0.04998280     -0.03689360      0.01603810       1
O              -4.34061000     61.12940000     29.02420000     -0.00474678     -0.01944960      0.02509830       8
H              -4.45462000     62.17770000     27.59130000     -0.00317743      0.01997170     -0.02612690       1
H              -2.58581000     61.11360000     29.47130000      0.00851879     -0.00130139     -0.00080241       1
O               7.79018000     37.96860000     10.24730000      0.20351500     -0.02268050     -0.16646600       8
H               6.86441000     38.03670000     11.51340000     -0.12318300      0.00212757      0.17837600       1
H               9.78273000     37.27570000     10.75590000     -0.07358790      0.01874620     -0.01649090       1
O             -18.22280000     19.76460000     16.66560000      0.01144080     -0.03369550     -0.01599350       8
H             -19.56030000     20.63060000     15.89440000     -0.02667420      0.00650120     -0.01771300       1
H             -17.58330000     20.91130000     17.81940000      0.01658900      0.03160420      0.03325750       1
O              32.47970000     33.27640000     50.27310000     -0.00746582     -0.02022340     -0.00687464       8
H              33.83390000     32.05600000     50.38270000      0.00875442      0.00997663      0.00002111       1
H              30.93620000     32.12890000     50.24840000      0.01170480      0.01795710      0.01311530       1
O              12.04250000     36.16850000     20.08580000     -0.00329057      0.00610670     -0.04094500       8
H              12.35590000     37.13590000     18.35720000     -0.00295617     -0.03022970      0.04277840       1
H              12.03480000     34.30330000     19.72400000      0.00044578      0.02521740     -0.00180939       1
O               0.99404300    -28.17860000     23.61300000     -0.12290100      0.06349480      0.03078200       8
H              -0.08145000    -28.93730000     22.38260000     -0.00756724     -0.00852568     -0.01555180       1
H               2.50469000    -28.76000000     23.44950000      0.13582200     -0.05422270     -0.01542650       1
O               1.18262000     12.27400000      4.93611000     -0.02294590      0.02671510      0.00886094       8
H               1.60268000     10.57080000      5.15351000      0.00979634     -0.02568080      0.00431901       1
H               2.32760000     13.01390000      3.77302000      0.01064440      0.00293036     -0.00469172       1
O               2.49691000      3.32230000     15.41740000      0.12837800      0.12926800     -0.09988490       8
H               1.50327000      2.46148000     16.29770000     -0.12361900     -0.10685300      0.11210200       1
H               2.97387000      4.98411000     16.30120000     -0.00636557     -0.02927220     -0.01785690       1
O             -36.70410000     55.21880000    -29.68290000      0.07199190     -0.04750980     -0.00647996       8
H             -36.08910000     55.17190000    -31.54190000     -0.01405450      0.00590638      0.03577600       1
H             -35.31110000     54.06680000    -28.69860000     -0.04865810      0.04011290     -0.03539520       1
O               3.60303000     51.00870000    -16.82700000     -0.00625167     -0.02409580      0.05111230       8
H               4.48258000     50.88710000    -14.96560000     -0.02705870      0.00716298     -0.05983630       1
H               2.17957000     49.75880000    -16.95960000      0.03439360      0.01911960      0.00509098       1
O             -36.64130000     39.81560000      3.32176000      0.01051970     -0.02947830     -0.04168660       8
H             -36.22460000     38.57640000      1.83178000     -0.01114330      0.03105180      0.05139440       1
H             -38.44020000     40.09150000      3.32652000      0.00103774     -0.00528214      0.00265639       1
O              22.80250000     32.55560000     14.82810000      0.01110020      0.01777700     -0.05142540       8
H              24.07210000     31.37050000     13.92560000     -0.03124010      0.04275400      0.02270860       1
H              22.50290000     34.30100000     13.47640000      0.00524729     -0.05636030      0.02619810       1
O             -12.77220000    -20.57670000     10.93250000     -0.00579029      0.00562434      0.09618400       8
H             -12.86090000    -20.46450000      9.24619000      0.00778629     -0.00985256     -0.08307950       1
H             -11.79760000    -21.98270000     11.63700000     -0.00995727      0.00050523     -0.01784050       1
O             -44.56570000      7.86974000     17.09260000      0.01379470     -0.00116301      0.01027230       8
H             -46.05170000      8.08698000     18.02110000     -0.04665110      0.00911998     -0.00484645       1
H             -43.57220000      7.82796000     18.62050000      0.03025630     -0.00602249     -0.00471407       1
O             -21.30380000    -16.14020000     36.14350000     -0.03507430      0.01452940     -0.02049010       8
H             -20.18940000    -17.51230000     35.92640000      0.01697420     -0.01754630     -0.00317678       1
H             -22.46870000    -16.22760000     34.68660000      0.02420260      0.00522270      0.01582260       1
O              15.45320000     13.52890000     31.80340000      0.01548420     -0.00843602      0.00297309       8
H              17.09950000     13.32750000     30.95710000     -0.00895654     -0.00154704      0.00187168       1
H              14.15140000     13.28100000     30.56250000     -0.00194972      0.00711431     -0.00650733       1
O             -23.41500000     -3.89770000     38.81130000     -0.03170150     -0.06744580     -0.08067330       8
H             -24.11220000     -2.59595000     39.66840000     -0.02844910      0.06400510      0.04254430       1
H             -24.87550000     -4.26867000     37.41190000      0.06288060      0.00967217      0.04298260       1
O              44.72460000      7.48234000     32.54240000     -0.03288680      0.05003510     -0.05627800       8
H              43.45010000      7.94537000     31.11180000      0.03929290     -0.01276790      0.02187900       1
H              43.76680000      6.25385000     33.36820000     -0.00820351     -0.02650230      0.03222610       1
O             -10.59510000    -34.10980000     -8.48250000     -0.00996675     -0.00406579     -0.02810270       8
H              -8.76819000    -34.23740000     -8.44250000      0.00889283      0.00831767      0.00717501       1
H             -10.88570000    -34.81910000    -10.22860000     -0.00936693      0.00400984      0.02729920       1
O              54.46520000    -20.61190000    -12.47010000     -0.20496300      0.00582104     -0.00678425       8
H              56.04010000    -20.78680000    -12.30820000      0.18427200     -0.02360830      0.02231590       1
H              53.42500000    -21.34170000    -11.05630000      0.01960290      0.01397940     -0.01281050       1
O              15.62850000     -2.05601000      6.11710000     -0.04816620      0.01273940      0.03683160       8
H              14.20900000     -0.72349800      6.14975000      0.04004510     -0.03130310     -0.00150210       1
H              15.17810000     -3.28555000      7.60200000      0.01514810      0.02491830     -0.03939020       1
O             -33.70350000     -1.17852000     45.92460000      0.01158320      0.02069110     -0.05979560       8
H             -32.47770000     -1.83642000     44.61440000     -0.01830470      0.00531202      0.03492450       1
H             -33.71870000     -2.15488000     47.37780000      0.00494342     -0.03644260      0.02927970       1
O               4.45332000    -11.02430000    -10.27620000     -0.00040352      0.04459450      0.03230370       8
H               4.43080000    -10.02870000     -8.58413000     -0.00283470     -0.04143020     -0.03741720       1
H               4.50465000    -12.82420000    -10.10550000     -0.00553638     -0.00286487      0.01170190       1
O              18.66680000     14.82560000     15.33120000      0.04332560     -0.04474040     -0.06297050       8
H              19.07020000     16.56980000     14.78200000     -0.00988509     -0.00960910      0.00265016       1
H              19.44780000     13.69760000     13.73820000     -0.02726820      0.04114630      0.06023930       1
O              11.39290000     19.29900000     -9.58888000      0.03594300      0.01730660     -0.02443440       8
H              12.15620000     17.80730000     -8.92446000     -0.00929868     -0.01691340      0.00946760       1
H               9.68106000     19.60750000     -9.29156000     -0.02869440     -0.00883006      0.01978990       1
O              25.34870000     55.54400000     30.92850000      0.03777360      0.13891600     -0.05974020       8
H              23.73080000     55.41470000     31.34420000     -0.10899900      0.01053710      0.01559700       1
H              25.80430000     54.06210000     31.38980000      0.07440780     -0.15055500      0.03790060       1
O              -6.05023000      7.48670000      3.42851000      0.00708317      0.06108620     -0.00780360       8
H              -5.77179000      9.33645000      2.97395000      0.01788850     -0.03757020      0.01607030       1
H              -7.83956000      7.65961000      3.09832000     -0.01858090     -0.02566070     -0.00372733       1
O              18.76680000    -27.24980000     18.40420000     -0.10023400      0.05292530     -0.08674660       8
H              19.56060000    -28.71320000     18.79340000      0.03841270     -0.06488060      0.01584160       1
H              17.72040000    -27.64100000     16.63930000      0.05302120      0.01320180      0.06716510       1
O              -1.58578000     18.17370000     43.78150000      0.04076090     -0.01158340     -0.03509310       8
H              -1.09046000     16.35920000     43.85210000     -0.00804425      0.02823520     -0.00285947       1
H              -0.47810900     18.90080000     42.32820000     -0.03008660     -0.02149540      0.03822410       1
O              39.20520000     43.64570000      1.69384000      0.04060080      0.01732330     -0.09175200       8
H              39.55360000     44.76890000      2.94783000      0.00425524      0.03089450      0.06117580       1
H              38.22980000     42.30140000      2.13246000     -0.04057390     -0.04325980      0.03067340       1
O              20.37030000     12.84700000    -28.20120000      0.01512250     -0.01568250     -0.07045870       8
H              21.41580000     11.50020000    -29.04550000     -0.01406540      0.01405410      0.03407630       1
H              19.79650000     13.54220000    -29.89520000     -0.00238380      0.00236007      0.03330280       1
O             -17.47800000     43.28770000     -0.16570200     -0.02082820     -0.02529330     -0.07451750       8
H             -17.14910000     41.50170000     -0.50478600      0.00365173      0.01318470      0.02159580       1
H             -16.99610000     44.00830000      1.35500000      0.01516500     -0.00294192      0.04775050       1
O               6.80479000    -27.75310000     28.88180000     -0.00053792     -0.06042540      0.02333580       8
H               8.00605000    -28.10280000     30.24380000     -0.00974290      0.00414311     -0.00936907       1
H               6.84547000    -26.04990000     28.54890000      0.01084810      0.06443460     -0.00615465       1
O               4.08205000     31.00220000      1.98809000     -0.06150960      0.04063640      0.01126750       8
H               2.90296000     31.15740000      3.49938000      0.03122000     -0.01387310     -0.02310130       1
H               3.22320000     32.41030000      0.93488600      0.01084220     -0.03853920      0.01138520       1
O             -11.80380000    -12.38050000     11.41250000      0.04714350      0.02858700     -0.04082480       8
H             -11.75830000    -14.10380000     11.88810000     -0.00121215     -0.02882550      0.02241460       1
H             -10.17110000    -12.28720000     10.31770000     -0.04543410      0.00969199      0.01730510       1
O              -5.84953000      5.81497000     14.02230000     -0.07819620      0.23347700      0.05457400       8
H              -4.60014000      7.30195000     14.57070000     -0.01393480     -0.06316340     -0.02328960       1
H              -5.23001000      4.37690000     13.75580000      0.08850810     -0.16301300     -0.03061570       1
O              25.99990000    -14.31950000     -1.31849000     -0.01789830     -0.00898281     -0.03716340       8
H              27.73280000    -14.12700000     -1.85513000     -0.00771100      0.00616863     -0.00913245       1
H              24.92430000    -14.99150000     -2.86089000      0.02722510      0.00903118      0.04614070       1
O              22.81560000      7.11644000     44.13820000     -0.05613640     -0.03852050     -0.05025690       8
H              21.57890000      6.21845000     45.41380000      0.03282710      0.02524120     -0.03411070       1
H              22.16070000      6.65452000     42.14550000      0.03094590      0.02869160      0.08434630       1
O              15.30880000     27.94530000     46.19880000      0.06893970      0.11024000     -0.00693981       8
H              17.21650000     27.83280000     46.47900000     -0.03230460      0.01668480     -0.00616827       1
H              14.91250000     26.36010000     46.53080000     -0.03901540     -0.11525000      0.01304460       1
O             -16.83250000     13.16810000     22.89330000      0.05156470      0.00562680     -0.04786840       8
H             -15.15000000     12.89460000     21.80390000     -0.05081550      0.00717321      0.02669280       1
H             -16.55820000     12.00850000     24.24720000      0.00193698     -0.00932601      0.01299650       1
