192
Lattice="23.94793 0.0 0.0 0.0 23.94793 0.0 0.0 0.0 23.94793" Properties=species:S:1:pos:R:3:force:R:3 TotEnergy=-1102.87571 cutoff=-1.0 nneightol=1.2 pbc="T T T"
O        7.31370000      21.89480000       0.18910300      -0.05401170       0.01725040      -0.00927821
H        6.46927000      23.33370000       1.04658000       0.02281960      -0.01706370      -0.00015563
H        5.67863000      21.04470000      23.58000000       0.02952010       0.00775968       0.00099617
O       15.18640000      17.23390000       4.60902000       0.02144910       0.04648870       0.00819740
H       16.54890000      18.11600000       5.61494000      -0.02016480      -0.02777850      -0.01872510
H       14.34040000      18.72600000       3.89102000       0.00761940      -0.01847900       0.01151210
O       11.58280000      19.39980000      12.01990000      -0.04151530       0.02555440       0.03245550
H       10.18430000      20.63610000      11.75860000       0.03079340      -0.00748411      -0.00859368
H       11.61720000      19.77310000      13.90010000       0.01049180      -0.02067860      -0.02084200
O       22.59020000       2.44525000      14.10970000       0.02638690      -0.00904124       0.02054410
H       23.30460000       2.78469000      15.80410000      -0.01039810       0.00254378      -0.02543520
H        0.06307000       1.47983000      13.19930000      -0.02382090       0.00400543       0.00828681
O       18.62190000       9.51949000      11.59980000       0.00435804      -0.04238340       0.03525120
H       17.39990000       8.42212000      12.49750000       0.01368670       0.00940835      -0.00796057
H       17.59290000      10.80320000      10.97630000      -0.02497930       0.01520490      -0.02111500
O       21.01300000      14.21170000      10.93750000       0.02189800      -0.03907300      -0.04642880
H       19.55850000      13.18900000      10.22590000       0.02149960       0.01845720       0.01701220
H       20.65850000      14.88780000      12.58860000      -0.00893193       0.00751001       0.02534260
O       12.20640000      14.12760000      19.68000000      -0.11661600      -0.09224450      -0.14062400
H       13.12810000      14.83020000      20.78320000       0.10519500       0.07054750       0.12812600
H       12.17990000      12.28410000      19.78070000       0.00935140       0.02134180       0.00480033
O        9.06309000       0.46620700      19.15420000      -0.00664919      -0.03692600       0.03007900
H        8.51922000      23.42963700      20.68440000       0.01037290       0.01322870      -0.02000160
H        7.90362000       1.83652000      19.23690000      -0.00475962       0.01932020      -0.00363488
O       16.45500000       4.12554000       7.07206000       0.01764500       0.04804090      -0.03435830
H       16.50640000       2.74391000       8.12443000      -0.00213005      -0.03531280       0.02242170
H       14.76400000       4.73766000       7.04810000      -0.01280340      -0.00597457       0.00869903
O       22.72160000       6.48897000      10.52520000      -0.03084510      -0.04582900       0.03126710
H       21.25910000       7.30764000      11.36280000       0.01759440       0.00463693      -0.02111720
H       22.46740000       4.76077000      11.35210000       0.01693470       0.03808630      -0.01650090
O       21.03330000      21.67350000      17.08460000      -0.05457830       0.04804230       0.01707920
H       22.21670000      20.57370000      16.49630000       0.05764810      -0.02483030      -0.02323590
H       20.78250000      23.21060000      16.09460000       0.01347060      -0.02261590       0.00212491
O        3.34295000      13.95840000      17.83630000      -0.02179680      -0.06171140      -0.02317140
H        2.75865000      12.24760000      17.21480000      -0.00688119       0.03195570       0.01913400
H        4.88646000      13.91870000      16.87770000       0.01843600       0.02077230       0.00812642
O        8.02692000      14.92240000      15.94370000      -0.24897800      -0.01349230      -0.20258200
H        8.29050000      15.96030000      14.36560000      -0.01237260      -0.02537770       0.03942060
H        9.32043000      15.11380000      16.68550000       0.26635200       0.03488830       0.16716900
O       11.53830000       4.20824000       1.91691000      -0.04758250      -0.03144460       0.00168927
H       10.70200000       2.59793000       2.49266000       0.01668570       0.03664600      -0.00709284
H       10.11360000       5.12162000       1.01992000       0.02821800      -0.01192890       0.00833068
O       19.38390000      18.59660000       7.86651000       0.03349630       0.02781700      -0.00269005
H       21.05830000      19.53190000       7.70106000      -0.03265700      -0.02574350       0.00193841
H       19.69880000      16.99610000       8.66218000       0.00623717       0.00327480       0.00058099
O       19.87190000      16.57430000      15.48500000       0.01214210      -0.03089790      -0.00249248
H       20.72050000      15.44110000      16.73920000      -0.02065000       0.03443080      -0.01432960
H       19.93820000      18.38950000      15.73560000       0.00470810      -0.01401030       0.01005450
O       10.26920000      11.33280000       1.65127000       0.02545420      -0.01105730      -0.00892272
H       11.98780000      11.66820000       0.92862400      -0.02512350      -0.00170442       0.01243620
H       10.10820000       9.54441000       1.17411000      -0.01118950       0.02022320       0.00380532
O       19.25170000      10.60310000       3.98265000      -0.01976700      -0.08001540       0.01236910
H       17.80540000       9.36963000       4.39085000       0.02152680       0.04931220      -0.00821350
H       20.46480000       9.14444000       3.94727000       0.00383638       0.02738770       0.01085690
O       14.65390000       6.52332000      14.01130000      -0.03211570      -0.04806780       0.00528651
H       14.74530000       5.24412000      15.44610000       0.01188030       0.03042950      -0.03857110
H       13.52430000       5.66223000      12.79140000       0.02060180       0.01024000       0.00841034
O       20.85960000       6.15019000      20.63690000      -0.03272340      -0.05323860      -0.04633620
H       21.42080000       7.46190000      21.64940000      -0.01480160       0.04289420       0.01359310
H       19.25810000       6.41881000      19.62230000       0.04746520       0.01105870       0.03348490
O        7.96628000       7.36224000      23.37860000      -0.06525350      -0.02576490       0.01397500
H        6.22753000       6.78440000       0.12857000       0.05588640       0.01609560      -0.01545300
H        7.68898000       6.96659000      21.55050000       0.01824320       0.00012615       0.01748080
O        2.71025000      20.64660000      21.72440000      -0.04055020      -0.02133310      -0.07412360
H        0.94162300      20.18700000      22.36940000       0.05128550       0.01312500      -0.01740300
H        2.65047000      20.20180000      19.53240000      -0.00815465       0.00638488       0.09870670
O        7.44992000      16.38450000      10.67930000       0.00975520       0.03393330      -0.04377910
H        7.01250000      16.73730000       8.84376000       0.01604590      -0.00900163       0.04116010
H        9.11609000      17.29410000      10.96820000      -0.01519760      -0.01840630      -0.00877030
O        2.65764000       6.89783000      21.00650000      -0.04252320       0.01181550       0.02073140
H        0.87264200       6.28238000      20.84360000       0.03382620       0.00579141      -0.00461471
H        2.45583000       8.45768000      22.08440000       0.00439196      -0.01788190      -0.02681770
O       22.85500000      10.25990000      15.99300000       0.02510230       0.01221770      -0.02924130
H       21.08770000      10.24080000      16.49400000      -0.00090162       0.00647190      -0.00413624
H       23.08090000      10.86670000      14.23520000      -0.01452950      -0.01818820       0.03130390
O       13.73800000       9.12006000      17.86040000      -0.06757620      -0.03352710      -0.02395330
H       12.50660000       8.45667000      16.24860000       0.06965960       0.02357550       0.07036330
H       13.45290000       7.86344000      19.29650000       0.00272934       0.01977920      -0.02935820
O       14.62780000      15.39300000      14.19790000      -0.07001810      -0.11701900       0.00389396
H       14.16910000      14.74700000      15.89550000       0.01723160       0.02714720      -0.01809020
H       15.49740000      16.79760000      13.99110000       0.05350630       0.08015210       0.01478980
O        9.56005000       9.44937000       8.29709000       0.02396800       0.06275300       0.01861870
H       10.12870000      11.20680000       7.83015000      -0.00665312      -0.03349730      -0.00936107
H        9.33340000       9.93692000      10.07700000      -0.00966834      -0.01965190      -0.01444990
O        1.39093000      18.58120000      17.20660000       0.00319307       0.01249820      -0.04242370
H        1.30310000      16.75090000      16.99410000       0.01252630       0.00601972       0.01072220
H        2.35714000      19.15740000      15.69440000      -0.00920227      -0.01019530       0.02193630
O       11.40060000       4.82335000       8.19293000       0.00630535      -0.06301600       0.02250040
H       11.25640000       6.56763000       8.03973000      -0.01233120       0.03149170       0.00580751
H       10.29340000       4.11325000       9.57283000       0.01323500       0.02472030      -0.02341350
O       20.38440000      10.96030000      23.06560000       0.03205190       0.02144080       0.04033230
H       21.90370000      12.05400000      23.33430000      -0.02216940      -0.01996370      -0.01108470
H       19.73350000      10.90070000       0.91327000      -0.00207927       0.00147782      -0.02183690
O        5.24501000      20.08770000      13.42720000       0.02565470      -0.01313340      -0.03405650
H        5.82567000      18.96980000      11.96280000      -0.02172940       0.00947778       0.03257090
H        6.74975000      21.19080000      13.49230000      -0.01040560      -0.00605737       0.00897136
O        6.54476000       0.74418300       4.81635000       0.01568310      -0.01845470      -0.03086570
H        5.23997000      23.56952900       5.45826000       0.00995698       0.02997730       0.00510172
H        7.04131000       2.38051000       5.42637000      -0.01997950      -0.01300130       0.02502850
O        6.13671000      11.42060000      11.31130000       0.00333662      -0.01534500       0.00137831
H        6.25650000      13.06010000      12.04480000      -0.01102850       0.00748299      -0.00229590
H        4.42346000      10.84340000      10.93390000      -0.00245120       0.01170580       0.00111656
O       16.50060000      21.51740000      12.89000000       0.01644110      -0.03590620      -0.06716840
H       15.05720000      20.36290000      12.92410000       0.00538392       0.01843450       0.00118440
H       17.17010000      21.05390000      11.05570000      -0.01844260       0.02293730       0.06829070
O        3.96590000      14.54310000       6.08369000      -0.06264760      -0.04057540       0.04035150
H        2.38248000      13.44380000       6.81834000       0.01116030       0.00862620       0.04032430
H        5.15192000      13.50490000       7.28298000      -0.01599360       0.00367295      -0.04287360
O       16.64450000       5.01373000       1.38060000      -0.00111818       0.00034590       0.01524670
H       15.24030000       4.02376000       2.13572000       0.01559720       0.02489490      -0.00060335
H       17.60820000       5.82125000       2.74709000      -0.01508060      -0.02566620      -0.01187290
O       11.33210000      14.25740000       5.89590000       0.03692020       0.13059700       0.09763490
H       12.29750000      15.55780000       4.95557000      -0.01042330      -0.02511000       0.01415140
H       10.94620000      13.00770000       4.94828000      -0.03365690      -0.11265100      -0.10856700
O        1.34723000      11.31930000       9.14518000      -0.07265140       0.01405770      -0.02651650
H        0.20454000      10.11260000       8.07044000       0.04003600       0.03212270       0.04155650
H       23.08835100      12.89770000      10.57930000       0.00149480      -0.00595582      -0.02466400
O        3.17946000       7.50082000       3.08340000       0.02597190       0.02120380      -0.03438230
H        1.40776000       7.22557000       3.38538000      -0.00252232       0.00027726       0.00545712
H        3.42969000       8.40414000       1.44999000      -0.01409970      -0.01621830       0.03616030
O        8.95716000      23.46138200      13.91180000       0.08040860       0.01189490      -0.22974000
H        7.77820000       0.62936000      12.94030000       0.03232610       0.00320175       0.00115470
H        8.16941000      23.46818200      15.23950000      -0.10506800       0.00104380       0.23366500
O        6.10355000      14.64600000       1.91474000       0.01514250      -0.00977831      -0.05158310
H        7.48502000      13.36590000       2.04500000      -0.02197760       0.01486450       0.01188070
H        4.83600000      14.97820000       3.13571000       0.02647480      -0.00322406       0.00459586
O        2.03399000      11.66510000      23.04540000       0.02408440       0.02710560      -0.00982758
H        2.18923000      12.54280000      21.37310000       0.00146851      -0.01303310       0.02592890
H        3.44368000      12.46450000       0.08897000      -0.01539230      -0.00517601      -0.01553820
O        7.96404000       4.11084000      12.25780000      -0.04824540       0.06580550      -0.04010060
H        6.09904000       5.71869000      10.63990000       0.05893140      -0.06052920       0.03388860
H        8.65271000       5.43479000      13.40630000      -0.01772060      -0.01721770      -0.01584550
O       12.09490000      19.57010000      17.49700000       0.03258570       0.01855500       0.02299830
H       10.71390000      20.63090000      18.06200000       0.01153390      -0.00049685       0.00136747
H       13.62380000      20.04830000      18.60300000      -0.04299120      -0.01183110      -0.02806440
O        2.47856000      19.73630000       3.23318000       0.02939360      -0.03725120      -0.02905300
H        2.24204000      13.93790000       4.36338000       0.04560600       0.01458950       0.01454130
H        3.57014000      18.91810000       1.85002000      -0.02951890       0.02610400       0.04294530
O       21.14590000       0.69305300       3.43463000      -0.03249240      -0.01108440       0.00124573
H       20.26770000       0.85448000       1.83339000       0.01442900       0.00262105       0.00213200
H       19.77590000      23.76236000       4.36544000       0.01579310       0.01510540      -0.00265036
O       22.78280000       6.33857000       5.37668000      -0.01792760      -0.03097220      -0.00338076
H       22.57090000       5.81444000       7.24045000       0.00316122       0.01432170      -0.03247860
H       22.39920000       4.86854000       4.24711000       0.00268871       0.01747550       0.03170010
O        0.76241400      22.53110000       7.24349000       0.00693695      -0.00012926      -0.02645830
H       23.74592500      23.54850000       5.99926000       0.01868870      -0.01673140       0.01155090
H        2.17015000      21.72100000       6.27355000      -0.03285520       0.00000554      -0.00603281
O       14.88900000      10.33200000       0.18887000       0.03108170      -0.04348460      -0.02474560
H       16.09580000      11.07650000      22.96140000      -0.01180490       0.00463518       0.01229200
H       15.28790000       8.45633000      23.92930000      -0.01490710       0.03748870       0.01066440
O        6.99430000       5.31967000      19.12180000      -0.01174050      -0.10303100       0.18545100
H        6.96464000       6.05133000      17.74670000       0.00799028       0.10471000      -0.20754000
H        5.29480000       5.71695000      19.70460000      -0.01019420      -0.00726981       0.00772352
O       13.85250000      21.82330000       2.36463000      -0.02446830      -0.00265605      -0.04437110
H       13.43600000      20.20560000       1.42543000       0.00441177       0.03603350       0.00496866
H       13.03280000      23.11160000       1.22663000       0.01996640      -0.02741720       0.02654090
O        6.30623000       5.68637000       7.32613000       0.01707700       0.02904730      -0.01672440
H        5.83105000       5.62235000       5.48946000      -0.00775745       0.01325820       0.03776280
H        7.56733000       7.15009000       7.47447000      -0.02846810      -0.02964970      -0.01152820
O       10.95070000      18.48260000      23.69360000      -0.01410100       0.00211064      -0.01811950
H        9.83264000      17.80290000      22.35100000       0.02171050       0.00612052       0.02381030
H       10.14530000      20.08380000       0.19367000      -0.01113170      -0.01559310      -0.00223415
O       17.86980000      20.32560000      20.59390000       0.01165860      -0.10114500      -0.07572300
H       18.85040000      20.52480000      18.96230000      -0.01335900      -0.01087270       0.02857740
H       17.98540000      21.91990000      21.02650000      -0.00461272       0.11661800       0.04791700
O       15.86810000      16.24920000      22.44770000       0.00250469      -0.00165667       0.04450670
H       16.47890000      17.37540000      21.16170000       0.00498406       0.00975621       0.01171540
H       16.08230000      17.12080000       0.19107000      -0.00274246      -0.02150670      -0.04788350
O        7.97947000       8.38342000      15.11070000       0.06944600       0.04017450       0.05458800
H        7.62357000       9.70045000      13.95400000      -0.02387370       0.00999507      -0.02660670
H        9.34629000       9.44987000      16.10790000      -0.04740410      -0.04097420      -0.02102040
O       18.73530000      11.26440000      18.50600000      -0.03150950      -0.00103101       0.01030380
H       19.25880000      11.46230000      20.30160000      -0.00686298      -0.00487653      -0.01831920
H       16.90860000      10.79800000      18.51060000       0.02812750       0.00770078      -0.00579965
O        1.67864000      23.37810000      11.87330000       0.05218250      -0.01863640       0.05230630
H        1.83746000      22.62110000      10.26800000      -0.01897040       0.00605906      -0.03443750
H        3.20996000      22.50970000      12.68760000      -0.03744100       0.01873830      -0.00796322
O       12.75770000       4.90759000      20.58580000       0.00487567      -0.01979940      -0.00591636
H       12.28260000       4.31825000      18.90690000      -0.00007655      -0.00582142       0.02172800
H       13.39200000       3.40155000      21.52330000      -0.00967891       0.02498980      -0.01953610
O       16.93840000      23.05120000       6.79713000      -0.02734080      -0.01783420       0.00022159
H       17.54050000      21.50800000       7.45527000       0.03220090      -0.01371140       0.01231300
H       15.28700000      22.27810000       6.52173000      -0.00248907       0.02946690      -0.01395970
O       16.95190000       1.52736000      21.40460000      -0.00535317      -0.00184981      -0.00558826
H       17.06020000       2.58247000      22.95820000       0.01020630       0.00375520      -0.03730170
H       17.25040000       2.29957000      19.69830000       0.00095388      -0.00245113       0.04078980
O       17.65210000       2.42917000      15.89640000       0.01619560      -0.04032670      -0.02161980
H       19.30830000       2.24193000      14.95230000      -0.02516070       0.01816890       0.01523230
H       16.86060000       0.80663500      15.38180000       0.00321474       0.02256890       0.00641011
O       15.84350000      13.00490000       9.23686000       0.06080640      -0.05214990       0.01274120
H       15.30460000      13.63080000      10.78300000      -0.03626680       0.03829170       0.01738630
H       15.60240000      13.39080000       7.54715000      -0.02705920       0.02735180      -0.02095240
