192
Lattice="25.37192 0.0 0.0 0.0 25.37192 0.0 0.0 0.0 25.37192" Properties=species:S:1:pos:R:3:force:R:3 TotEnergy=-1103.5888 cutoff=-1.0 nneightol=1.2 pbc="T T T"
O       25.15770000      20.09130000      14.28320000      -0.00445959      -0.00317369      -0.00215258
H       25.10590000      21.32350000      15.62340000       0.00210734       0.00292339       0.00351502
H       23.54020000      20.12980000      13.43990000       0.00094470       0.00602162       0.00116546
O       18.21230000       7.84925000       7.00794000      -0.00235695       0.01503350      -0.01477940
H       18.63410000       8.90430000       8.39913000       0.00081765       0.00029335       0.00866708
H       18.18850000       6.17325000       7.63342000       0.00349010      -0.01400960       0.00204878
O        4.70920000       3.29861000      17.69030000       0.00000546      -0.00038845      -0.01001550
H        5.46067000       2.85779000      16.08020000      -0.00066885      -0.00114717       0.00272877
H        6.13231000       3.65769000      18.76970000      -0.00661408       0.00094995      -0.00142062
O       13.03180000      18.07510000      13.34020000       0.00432124       0.00850358       0.00768153
H       13.86580000      16.65620000      14.13000000       0.00129324       0.00348533      -0.00118448
H       11.38280000      17.39800000      13.08880000      -0.00794070      -0.00503193      -0.00199853
O       11.40590000       8.78925000      21.14640000       0.00987003      -0.00235298      -0.00384717
H       11.99230000       9.27231000      22.78500000      -0.00150852       0.00718616      -0.00034203
H        9.62506000       9.01273000      21.27630000      -0.01428230      -0.00586272       0.00214542
O       24.47590000      18.84370000       4.30113000       0.02083100       0.01710830       0.00527347
H       22.97720000      18.96830000       3.32944000      -0.01231140       0.00188724      -0.00704401
H       24.24570000      17.45950000       5.41646000      -0.00223983      -0.00820530       0.00286516
O        3.97313000      12.08360000       3.46777000      -0.00043110      -0.00754957      -0.00438303
H        4.88807000      10.70760000       4.28919000      -0.00243108       0.00293051      -0.00837582
H        3.00136000      12.82610000       4.77905000      -0.00040326       0.00625373       0.00989413
O       19.83040000      21.86250000       1.80984000       0.00751001      -0.00155894       0.00346748
H       20.91150000      23.33560000       1.65604000      -0.00233504      -0.00396686      -0.00096434
H       18.53770000      22.09730000       0.55879000      -0.00440000       0.00344322      -0.00825560
O       16.12300000      14.11300000      16.39990000       0.00882027       0.00479717       0.00037914
H       16.15200000      13.12030000      17.90820000      -0.00630998      -0.00042082       0.00338720
H       16.16500000      12.90350000      15.05990000      -0.00371918      -0.00487749       0.00042580
O        0.23026000      24.11800000      18.12230000       0.00171394      -0.00193435       0.00019192
H        1.34761000      23.73240000      19.53760000      -0.00167736       0.00027395      -0.00138784
H        0.99467300       0.19838000      17.35660000       0.00371712       0.00152044       0.00065506
O       24.64180000      24.16410000       7.35105000       0.01049500      -0.01377670      -0.00470534
H       24.78860000      22.51250000       6.56431000      -0.00324294       0.00655499       0.00072862
H       22.93530000      24.26760000       7.88744000      -0.01108330      -0.00523732       0.00110763
O       24.98780000      10.67050000      18.50600000       0.00420905      -0.00646313      -0.00178037
H       23.53710000      10.79270000      19.57770000      -0.00686915      -0.00137352       0.00320702
H       24.69650000      11.75990000      17.09990000       0.00050453       0.00984898      -0.00062077
O       20.75440000      24.96230000      16.14070000      -0.00354242       0.00395112      -0.00050084
H       21.63510000      25.37050000      17.66560000       0.00345816      -0.00099449       0.00379106
H       21.97320000      24.02700000      15.17650000      -0.00662493      -0.00194806      -0.00041780
O       11.76820000       0.73930900      18.43310000       0.00445794      -0.00267423      -0.00811587
H       12.08010000      24.36270000      18.00860000       0.00296686       0.00413324       0.00402666
H       10.65910000       0.60035300      19.86780000      -0.00463140       0.00542812       0.00157345
O        0.41874300       6.64435000      15.16960000       0.00044098       0.00091749       0.00268231
H        1.88561000       5.83099000      15.89010000       0.00104669      -0.00131232       0.00012809
H        0.03030000       7.97666000      16.39280000       0.00041840      -0.00432603      -0.00188378
O       16.18680000       3.25909000      16.36690000       0.00058095      -0.00443697      -0.00020122
H       17.38580000       1.88466000      16.35260000      -0.00216238       0.00367330      -0.00173847
H       14.72310000       2.60549000      17.24760000      -0.00035732      -0.00357797       0.00108688
O        7.51028000       8.74570000       5.42853000       0.00471785      -0.00017759       0.00504784
H        8.55342000      10.02340000       6.17674000      -0.00009132      -0.00493686       0.00066742
H        8.22146000       7.10492000       5.82499000      -0.00405336       0.00451490      -0.00258237
O        6.45301000      21.00720000       6.29486000      -0.00131159       0.00881376      -0.00137197
H        5.09072000      19.82100000       6.23082000       0.00163849      -0.00512543       0.00498038
H        5.92675000      22.24450000       7.52438000       0.00117615      -0.00538690       0.00117319
O       14.85040000      11.61860000       4.16144000      -0.00874494      -0.00285934       0.00421114
H       15.06030000      10.64700000       5.70025000       0.00074746      -0.00336927      -0.00709787
H       13.42390000      10.85290000       3.31980000       0.00409295       0.00100895       0.00190328
O       19.72850000       7.99957000      12.28770000       0.00080587       0.00364432      -0.00375012
H       21.41400000       8.19317000      12.91030000      -0.00180003      -0.00284501       0.01019060
H       19.81990000       6.30939000      11.62310000      -0.00058252      -0.00519727       0.00392654
O        1.52818000      15.23930000      14.03570000      -0.00662008      -0.00374285       0.00802776
H        0.33332700      14.10210000      13.27400000      -0.00156702       0.00380656      -0.00572146
H        0.61718300      16.79700000      14.40550000       0.00598038      -0.00170274      -0.00607007
O       18.37630000       3.27127000      24.62210000      -0.00229831      -0.00778156       0.00160394
H       19.95100000       2.90407000       0.10008000      -0.00123925       0.00326177      -0.00236237
H       18.19360000       1.87138000      23.46460000      -0.00006032       0.00283702       0.00295778
O       15.72880000      16.69360000       4.47849000       0.00738218       0.00021451       0.00136476
H       14.37910000      17.90490000       4.32306000      -0.00447851       0.00308447       0.00112217
H       14.92700000      15.07130000       4.72875000       0.00314949      -0.00262691      -0.00607914
O        8.03094000       1.14827000      22.02370000       0.01116310      -0.00669878       0.00231998
H        7.85411000       2.80805000      22.65990000      -0.00752333       0.01437760       0.00461475
H        6.41528000       0.31686400      22.04280000      -0.00824832      -0.00027181      -0.00054559
O       16.77490000      23.43430000      23.12240000       0.00709923       0.00977746       0.00403269
H       16.48080000      22.17320000      21.88360000      -0.00197468      -0.00930638      -0.01021600
H       15.17890000      24.29750000      23.21770000      -0.00681065      -0.00387207       0.00247712
O       12.73150000       8.29962000       8.76580000      -0.00812113       0.01081310      -0.00096274
H       10.98890000       8.40660000       9.26585000       0.00150838      -0.00179171      -0.00024586
H       13.35030000       7.08548000       9.94815000       0.00227172      -0.00522811      -0.00021222
O       19.02190000       8.45627000       0.56760200      -0.00042260       0.00184956      -0.00272568
H       17.73280000       7.18191000       0.47683200       0.00500974      -0.00009245       0.00090711
H       18.16190000      10.04830000       0.54214700      -0.00133465      -0.00034711       0.00706919
O        6.04817000      14.49230000       8.31505000      -0.05224160       0.00818422       0.01253280
H        7.46271000      14.65750000       7.33975000       0.04390580       0.00465296      -0.02110700
H        6.43548000      13.92900000      10.01030000       0.00867847      -0.00501105      -0.00519032
O       12.60410000       0.82184100       8.11707000       0.00292867       0.00421374      -0.01598390
H       11.95370000       1.87460000       9.43988000      -0.00163673       0.00499138       0.00899180
H       12.34770000      24.48162000       8.57882000       0.00198298      -0.00851412       0.00507558
O       16.17510000      17.50650000      21.61110000      -0.01864840       0.01375520      -0.02323880
H       16.15070000      16.81840000      23.23030000       0.00105443      -0.01106340       0.02869680
H       17.86470000      17.54050000      21.06240000       0.01741040      -0.00257303      -0.00383453
O        3.81426000      23.10810000      21.83180000       0.00776947       0.00080423      -0.00200124
H        5.05530000      22.20610000      20.82620000      -0.00012192      -0.00012268       0.00308233
H        3.83255000      22.39020000      23.52620000      -0.00248586      -0.00326696      -0.00069396
O       13.54310000      21.17370000      18.49420000      -0.00283432       0.00270785       0.00265357
H       13.64010000      19.62780000      19.43900000       0.00319944      -0.00368106       0.00171158
H       14.05630000      20.75140000      16.81930000       0.00031455      -0.00704369      -0.00796672
O       19.98500000      21.92950000      11.88240000       0.01394280       0.00337189       0.00493775
H       20.18690000      21.19530000      10.24670000      -0.00157060      -0.00011851      -0.00773686
H       18.72600000      20.90180000      12.65140000      -0.00664908      -0.00545589       0.00155372
O       22.51170000       3.29103000      12.47040000       0.00059041      -0.00068126       0.00325730
H       23.49460000       4.02946000      13.83830000      -0.00353204      -0.00043582      -0.00703696
H       21.43220000       2.05959000      13.28240000       0.00209164       0.00292500       0.00081189
O       23.04150000       4.48773000       2.93322000       0.00720120      -0.00316350      -0.00617439
H       22.04030000       3.58941000       4.15493000      -0.00228398       0.00015395       0.00568879
H       22.07220000       5.94392000       2.50010000      -0.00390043       0.00760215      -0.00072121
O       20.10690000       2.59655000       7.12200000      -0.00682334       0.02611430      -0.01126830
H       21.52070000       2.36446000       8.18205000       0.00933649      -0.00210262       0.01380600
H       19.20380000       1.05434000       6.99935000      -0.00253157      -0.02217720       0.00027487
O        7.67437000       3.25435000       5.83650000      -0.00827761       0.00445189      -0.00195086
H        8.41103000       1.61238000       5.97780000       0.00701929       0.00063647       0.00160381
H        6.06958000       3.13994000       6.71194000       0.00193737      -0.00443450      -0.00236458
O        5.11906000       7.19083000      21.78370000       0.00560552      -0.00272235      -0.01053460
H        4.56000000       6.43342000      23.31990000      -0.00296705       0.00093149       0.01244970
H        3.63764000       7.39484000      20.75120000       0.00425821       0.00100434       0.00310379
O       15.16860000      20.04290000       8.65259000      -0.01214320       0.01041110       0.01160870
H       14.37650000      19.42490000      10.18560000       0.00411723      -0.00087071       0.00128026
H       16.14850000      18.66300000       8.05401000       0.00086847      -0.00838036      -0.00569817
O       13.30080000       3.58161000       3.15252000      -0.00009833      -0.00487478       0.00433742
H       14.47810000       3.81436000       1.81548000       0.01494750      -0.00032436      -0.00424691
H       14.28030000       3.03018000       4.58840000      -0.00604818       0.00087091      -0.00001431
O       11.09330000       4.34252000      12.10240000      -0.00765901       0.00222538      -0.00900808
H       12.11170000       4.27393000      13.56770000       0.00906164      -0.00307317       0.01325340
H        9.45448000       3.63800000      12.58510000       0.00625336      -0.00153267      -0.00300014
O        2.47035000       7.37205000       9.90822000       0.01377410      -0.00653430       0.01253600
H        1.55103000       7.00202000      11.43680000      -0.00312850       0.00477045      -0.00020693
H        1.31972000       7.78742000       8.61247000      -0.01200070       0.00187348      -0.01038090
O       17.99310000      16.52000000      12.43290000      -0.00044585       0.00803263      -0.00219607
H       18.31860000      16.21310000      14.18890000      -0.00098592      -0.00510067       0.00193227
H       19.14230000      15.50860000      11.49490000       0.00629153      -0.00098409      -0.00404888
O       11.96200000      24.54890000      25.18525900      -0.00792595      -0.00768065      -0.00372237
H       10.36220000       0.03448000      24.97665200       0.00490931      -0.00370592      -0.00668455
H       12.90120000       0.24408000       0.90437200       0.00252990       0.00883010       0.01416130
O       10.80690000      13.61980000      11.87310000      -0.00166295       0.00478166      -0.00027790
H       10.27300000      12.05680000      12.60430000      -0.00221931      -0.00095778       0.00170423
H       12.21920000      13.26160000      10.81680000       0.00388976      -0.00484346      -0.00188382
O       15.19430000       8.59811000      17.22480000       0.00538487       0.00218429      -0.00902487
H       15.93950000       7.54148000      15.94200000       0.00098621      -0.00093731       0.00342318
H       14.41950000       7.41527000      18.35070000      -0.00370522       0.00141905       0.00173555
O        3.20829000       1.69197000       8.37856000       0.01018850      -0.00896263       0.00829665
H        1.88730000       0.40838500       8.53304000       0.00126569       0.00682563      -0.00788186
H        2.62193000       3.14216000       9.27101000      -0.00500574       0.00896836       0.00112977
O       20.62970000      15.20850000       7.43396000      -0.00059280       0.00116631       0.00663087
H       21.69660000      14.30210000       6.29079000       0.00427335       0.00095130      -0.00268611
H       19.41800000      16.07340000       6.40045000      -0.00750120      -0.00026374      -0.00330282
O        4.75205000      13.59960000      23.43130000       0.07269690       0.01188530       0.02924370
H        3.75716000      13.02850000      24.87090000       0.01604200       0.00075357       0.00426620
H        7.79808000      13.93230000      24.89960000      -0.08385420      -0.01067570      -0.03358500
O        7.54626000      20.85660000      18.21460000      -0.00787413       0.00611568       0.00030256
H        9.22785000      20.20880000      18.12610000       0.00684075       0.00075458       0.00219055
H        6.46591000      19.43230000      17.89430000      -0.00050630      -0.00814832      -0.00373100
O       19.20170000      10.12430000      20.72370000      -0.00184197       0.00371078      -0.00619057
H       18.70300000       9.85437000      18.99650000      -0.00219090      -0.00163506       0.00028292
H       17.86910000       9.28014000      21.62090000       0.00874145      -0.00126113       0.00198080
O        3.75271000      21.54080000       1.46139000       0.00066909       0.00346106      -0.00682105
H        2.88738000      20.31220000       2.47000000      -0.00569263      -0.00170810      -0.00137691
H        5.43551000      21.63430000       2.11772000       0.00129945      -0.00064084       0.00575619
O       10.48730000      13.46520000      18.43960000       0.01329580       0.01973700      -0.00893673
H       10.87290000      11.77590000      18.88140000       0.00220440      -0.01219010       0.00577000
H        8.85357000      13.86930000      19.02930000      -0.01466110      -0.00468024       0.00239889
O        4.98150000      15.87180000      18.27520000       0.02738190       0.01434740       0.00575252
H        3.21310000      15.88020000      18.12110000      -0.01967500      -0.00526988      -0.00347794
H        5.33647000      16.12360000      20.04660000      -0.00800159      -0.00827760      -0.00011426
O        5.68127000      11.67580000      12.22080000       0.00628861      -0.00053908       0.01414930
H        4.37125000      10.95750000      11.20440000      -0.00390388      -0.00540548      -0.00087180
H        4.90012000      12.88930000      13.32550000      -0.00413183      -0.00173184       0.00230618
O       23.73430000      13.38820000       3.31777000      -0.00840570      -0.00305261       0.00269329
H       24.96530000      12.55020000       2.28339000       0.00418789      -0.00091485       0.00229427
H       22.29770000      12.28220000       3.30926000       0.00054599      -0.00479700      -0.00580804
O       23.56220000       0.13818000      25.34401700      -0.02573780      -0.00947585      -0.00265686
H       24.76630000       1.38238000       0.38201200       0.00976948       0.00888173       0.00555392
H       24.34620000      24.11860000      24.53945300       0.01182730      -0.00447184      -0.00532342
O       11.15440000      19.86930000       3.92165000       0.00396127      -0.01111990      -0.00087082
H       11.35520000      21.45660000       3.10550000       0.00078528       0.00880564      -0.00698205
H       10.04310000      20.15310000       5.32315000      -0.00424231       0.00099054       0.00027667
O        5.79499000      21.81290000      11.85440000      -0.00498927       0.00866146      -0.00580320
H        4.59304000      20.55250000      12.32460000      -0.00567807      -0.00325369       0.00322610
H        7.38205000      21.20210000      12.40680000       0.00993246      -0.01018980       0.00382300
O        6.96307000       1.52611000      12.64750000      -0.00150283      -0.00288522       0.00225530
H        7.16817000      25.16227900      13.16370000      -0.00443027       0.00459175       0.00004333
H        6.10711000       1.39741000      11.04110000      -0.00611342       0.00039157       0.00089262
O        4.02037000       5.07563000       2.06930000       0.00356719       0.00143064      -0.00989926
H        2.52112000       4.10426000       1.84266000      -0.00511873      -0.00150651       0.00631058
H        5.26780000       3.95838000       2.78376000      -0.00053858       0.00277547       0.00262192
O       23.18650000      12.22980000      11.00180000       0.00672584      -0.00388142       0.00494489
H       22.88910000      10.44880000      11.02540000       0.00083668       0.00159673      -0.00354502
H       21.75610000      12.89940000      10.12470000      -0.00192930       0.00528237      -0.00533410
O       18.99230000      22.70480000       6.66524000       0.00271359       0.00876040       0.00314792
H       18.66050000      22.11880000       4.95417000       0.00613992       0.00200746       0.00082364
H       17.45680000      22.51720000       7.62251000      -0.00466255      -0.00624423       0.00051505
O       11.34500000       7.80337000       0.90679300       0.00672894       0.00474674       0.00160395
H       11.74700000       6.92110000       2.45226000      -0.00492319      -0.00291359       0.00089960
H       12.34380000       6.91789000      25.05878800      -0.00303032      -0.00539246       0.00048321
