192
TotEnergy=-1103.41502000 cutoff=-1.00000000 nneightol=1.20000000 pbc="T T T" Lattice="24.08440000       0.00000000       0.00000000      -0.00000100      24.08440000       0.00000000      -0.00000100      -0.00000100      24.08440000" Properties=species:S:1:pos:R:3:force:R:3:Z:I:1
O              23.64670000     -2.65177000    -26.77970000     -0.01799270     -0.04893110     -0.03116040       8
H              22.06440000     -2.52521000    -27.84540000      0.02948820     -0.00687720      0.01478170       1
H              24.44800000     -4.44710000    -27.10080000     -0.01917990      0.05167520      0.01511240       1
O              46.99950000     46.19870000      2.46613000     -0.02649560      0.03777080      0.10890400       8
H              48.67410000     46.75140000      2.69507000      0.02774180      0.01606450      0.03061540       1
H              47.25000000     45.68070000      0.92924100     -0.00309831     -0.05086050     -0.13394100       1
O               9.21461000      2.39352000      9.89122000     -0.01578100      0.08256260      0.02621610       8
H               9.13773000      4.26701000     10.76200000      0.01478400     -0.06020850     -0.03590750       1
H               9.52637000      1.31414000     11.29400000      0.00033233     -0.02020320      0.01187030       1
O              -4.09387000     -9.93444000     -0.25386500     -0.04288920     -0.03522200      0.13786900       8
H              -3.25432000    -10.17480000     -1.63889000      0.05012380     -0.00245521     -0.12509000       1
H              -5.26160000     -8.71092000      0.31948900     -0.00270252      0.04538570     -0.01603910       1
O               7.05985000     31.13800000     18.47590000     -0.01823660     -0.00284639      0.00751788       8
H               7.26040000     32.32170000     19.90080000      0.01452030     -0.00122020     -0.01543420       1
H               7.47770000     32.10830000     17.00640000      0.00372670      0.00132027     -0.00031058       1
O              -5.77673000     12.80660000      8.62977000      0.02194790      0.03766320     -0.01432880       8
H              -5.82865000     11.01970000      8.89361000      0.00516462     -0.01365770     -0.01636530       1
H              -4.47239000     13.39260000      7.31507000     -0.03347300     -0.03071530      0.03115470       1
O              44.30070000     25.20700000     13.75940000     -0.03307570      0.00883126     -0.00649717       8
H              46.02400000     25.62370000     13.89900000      0.03771080      0.00827613     -0.00493898       1
H              43.91670000     24.86580000     11.98590000     -0.00216112     -0.01021950      0.01110760       1
O               0.78796400    -31.40920000     11.36350000      0.04695390      0.00745576      0.02236380       8
H               1.04308000    -33.19970000     11.32140000      0.00638228     -0.02230710      0.00021306       1
H              -0.75782500    -31.19360000     10.61690000     -0.04687700      0.01774720     -0.03117640       1
O              30.96770000    -32.99300000     21.94250000     -0.08769770     -0.11269700     -0.01399220       8
H              32.01410000    -31.75680000     22.24840000      0.08764630      0.08717840      0.01331760       1
H              31.74770000    -34.71720000     22.06800000     -0.00036081      0.02247290     -0.00809410       1
O              10.27240000    -28.52260000    -26.36070000      0.03195730      0.00934477      0.00258277       8
H              12.14570000    -27.98090000    -26.30280000     -0.03462540     -0.01570740      0.00070181       1
H               9.45130000    -27.98830000    -24.81480000      0.00199161      0.00924391     -0.00404643       1
O             -10.14920000      1.36672000      7.44874000     -0.00831910     -0.00240244      0.19323100       8
H             -11.63820000      2.35586000      8.29487000      0.04135090     -0.03899950     -0.00953896       1
H             -10.53800000      1.80075000      5.95805000     -0.02958030      0.03900040     -0.17814900       1
O             -11.68760000     27.21980000     51.07060000     -0.04153650     -0.00454938     -0.00676145       8
H             -13.21470000     26.68060000     50.14640000      0.00059072      0.01427510      0.02273700       1
H             -10.58110000     26.63830000     49.82490000      0.03497520     -0.00692582     -0.02248400       1
O              13.79010000    -29.51800000    -11.61320000     -0.01585720      0.01691290      0.00270685       8
H              13.28520000    -30.93840000    -12.79690000     -0.00050397      0.04492820      0.01443010       1
H              12.57220000    -28.07900000    -11.17380000      0.01008000     -0.04841440     -0.02929250       1
O              25.54680000     11.72470000     35.51520000      0.03039310     -0.01093150      0.06146800       8
H              25.98130000     10.40250000     34.33450000      0.00226403     -0.00499210     -0.00773552       1
H              26.80320000     11.36690000     37.06090000     -0.03048010      0.01882370     -0.04913280       1
O              -1.47515000      3.55785000      1.31406000     -0.05617650     -0.01283940      0.05435920       8
H              -1.82865000      1.83051000      1.98595000      0.01248410      0.02319620     -0.01528610       1
H              -0.27673200      3.47744000      0.07734100      0.04765330     -0.01477630     -0.03940740       1
O             -26.58640000     19.64420000     31.89410000      0.02805060     -0.01206490     -0.02915730       8
H             -26.22140000     20.65410000     30.42000000      0.00897379     -0.01354120     -0.00689197       1
H             -27.61030000     20.81310000     32.69420000     -0.03793150      0.02137980      0.03314680       1
O             -32.59110000     11.57150000     25.23780000     -0.00497498     -0.00348981      0.00661007       8
H             -33.66930000     10.58760000     23.97200000      0.03985970      0.02879680      0.00110997       1
H             -31.10120000     12.63240000     24.76380000     -0.02319260     -0.03772950     -0.02123530       1
O             -16.89780000     64.45990000    -20.89540000     -0.02480080     -0.05577960     -0.05006670       8
H             -18.30910000     63.61260000    -20.04970000      0.00700645      0.01838760      0.00848330       1
H             -17.27880000     63.44860000    -22.57150000      0.01943190      0.03550430      0.03825610       1
O              68.11310000     21.60760000     41.31520000      0.18012800      0.02461630      0.05166390       8
H              68.61840000     23.07980000     40.42520000     -0.01491350      0.00734747     -0.01824410       1
H              66.60460000     21.13430000     41.10840000     -0.16987200     -0.04204140     -0.02698320       1
O              54.91660000    -20.98930000      1.73704000     -0.05002580     -0.00018177     -0.04390580       8
H              53.53570000    -21.70560000      2.83111000      0.02089350      0.00760445     -0.01741340       1
H              54.13470000    -21.01920000     -0.09887600      0.02915760     -0.00819926      0.06308650       1
O              30.32230000     18.05780000    -13.38580000     -0.04920670      0.03430970      0.00478337       8
H              30.99120000     16.44260000    -13.78150000      0.01414880     -0.02240920      0.00241724       1
H              28.44310000     17.93800000    -13.23760000      0.02871770     -0.00253589     -0.00537264       1
O             -12.98290000      7.33844000     58.86980000      0.04629850     -0.04664880      0.02722770       8
H             -13.70580000      8.25478000     57.55010000     -0.01663140      0.01912640     -0.03562050       1
H             -11.40750000      6.49999000     58.21670000     -0.02766450      0.02549800      0.01342280       1
O               6.94586000      2.06998000     -3.98165000     -0.01798020     -0.08575220      0.03630150       8
H               7.54573000      0.72838300     -5.09027000     -0.00233806      0.01834930      0.00012592       1
H               7.11647000      3.67790000     -4.49455000      0.02065640      0.06962670     -0.04058990       1
O              42.59300000      5.30559000     22.64160000     -0.01860280      0.03626670      0.01615940       8
H              41.86310000      6.58121000     23.88140000      0.01676800     -0.03526600     -0.02318910       1
H              44.05260000      4.60998000     23.47660000      0.00796069      0.00020714      0.01242210       1
O              -2.47451000     60.61660000     28.65180000     -0.08026010     -0.04076840     -0.01356540       8
H              -3.42166000     60.92560000     27.03750000      0.02150140     -0.00181751      0.02201190       1
H              -0.92052200     61.26410000     28.40370000      0.07140940      0.04777630     -0.01099870       1
O               9.05054000     38.08080000     10.42480000     -0.00273129      0.01883430      0.03592850       8
H               8.18274000     36.89600000      9.38964000      0.01756110     -0.01549420     -0.02027970       1
H              10.84780000     38.51050000     10.10010000     -0.01437830     -0.01383480     -0.02762300       1
O             -16.39970000     21.41040000     17.80350000     -0.05789290      0.01211130     -0.09000620       8
H             -18.13930000     20.76080000     17.28480000      0.04728560      0.01670410      0.03977810       1
H             -15.77890000     21.17080000     19.40330000      0.01408880     -0.03068760      0.06069660       1
O              31.90400000     32.64380000     50.56780000     -0.02176200     -0.04057610     -0.01007090       8
H              31.28070000     30.83150000     50.37110000      0.02230950      0.02415410      0.00971621       1
H              30.31090000     33.50420000     50.17100000      0.00564769      0.01054120     -0.00645389       1
O              13.75450000     33.58920000     20.89310000      0.03935300      0.05495160     -0.04622170       8
H              14.62240000     34.79310000     19.49260000     -0.02354970     -0.01839500      0.04294900       1
H              14.01960000     32.21270000     19.73050000     -0.01038490     -0.03990320      0.00414196       1
O               2.06050000    -22.55940000     21.88440000     -0.13986500     -0.01149590      0.05246240       8
H               0.93817300    -24.23600000     21.64010000      0.03069550      0.03670920      0.00695918       1
H               3.41805000    -22.88100000     21.01550000      0.11836800     -0.02765950     -0.05814220       1
O               1.58637000     16.28720000      4.35441000      0.00359569      0.01669100      0.03029580       8
H               1.41968000     17.44060000      2.75514000      0.00997946     -0.02030480      0.06466280       1
H               1.69036000     16.88450000      6.30848000     -0.01128480     -0.00046022     -0.09230180       1
O               1.36479000      1.56344000     14.16320000      0.00008654     -0.02438380      0.03007580       8
H               1.68059000     -0.05338800     15.24690000     -0.00635689      0.03824690     -0.03450610       1
H               1.55790000      2.99873000     15.33970000     -0.00041113     -0.00893598     -0.00524927       1
O             -34.20150000     53.50900000    -30.24280000     -0.00987674     -0.04637310      0.04305740       8
H             -32.93710000     53.58550000    -31.50540000      0.01592460      0.00067142     -0.02059830       1
H             -33.83340000     51.86200000    -29.23620000     -0.01132820      0.05155940     -0.01915210       1
O               3.44592000     48.06220000    -19.28530000     -0.00112834      0.01353780      0.07580620       8
H               3.37360000     48.51230000    -17.17770000      0.00981057     -0.01802490     -0.08929530       1
H               4.60188000     46.66110000    -19.67160000     -0.01108470      0.01148860      0.01410800       1
O             -34.80680000     39.52590000      3.12541000      0.01367790      0.04589010      0.04059160       8
H             -33.96910000     38.23330000      2.21217000     -0.01498690     -0.03971540     -0.01692510       1
H             -36.52220000     39.95510000      3.01333000     -0.02566720     -0.00911813     -0.01902160       1
O              20.22910000     35.09780000     13.35240000      0.07756040     -0.04871510      0.02526020       8
H              22.17180000     34.54170000     13.11410000     -0.07122500      0.02580030      0.00522419       1
H              20.00060000     36.24020000     12.03600000     -0.00627101      0.02526900     -0.02984530       1
O             -16.05240000    -14.44890000      7.49121000      0.03579880      0.02424120      0.00361063       8
H             -16.33110000    -14.60790000      5.73498000      0.02179330     -0.00018781     -0.03760080       1
H             -17.65150000    -14.97780000      7.88988000     -0.05844660     -0.02025440      0.03344020       1
O             -46.39070000      4.87326000     17.95480000      0.00689966      0.00703881     -0.00074403       8
H             -46.15290000      3.40164000     19.05800000     -0.00708810      0.01201750      0.00630832       1
H             -44.73480000      5.66115000     17.85290000     -0.00077774     -0.00666383     -0.00068810       1
O             -20.99570000    -15.87510000     32.30080000     -0.04377950     -0.01853110     -0.04392040       8
H             -21.00180000    -17.66250000     32.48060000      0.02967920     -0.03152800      0.03738050       1
H             -22.28870000    -16.31670000     30.91430000      0.01774420      0.04588760      0.00225144       1
O              13.55640000     15.13680000     32.49360000     -0.01101940     -0.01958900     -0.04131410       8
H              15.02850000     14.00190000     32.87420000     -0.01402800      0.01797220     -0.02086540       1
H              13.02000000     14.98040000     30.50300000      0.03427440      0.00419862      0.06884420       1
O             -21.77770000     -2.98020000     40.10010000      0.02323850     -0.00170861      0.00296629       8
H             -22.72320000     -4.49168000     40.21090000     -0.04154940     -0.01597140      0.01964500       1
H             -20.55620000     -3.77460000     39.06010000      0.02050470      0.01164320     -0.02324240       1
O              41.18320000      7.37127000     33.14870000      0.01095890      0.03399910      0.05660160       8
H              41.10310000      6.08344000     31.92620000      0.00692899     -0.01975690     -0.00445463       1
H              41.81880000      7.00430000     34.95020000     -0.02197780     -0.01363440     -0.05137690       1
O              -8.30919000    -36.22780000     -7.27169000     -0.12257700      0.04636890     -0.02545080       8
H              -7.09279000    -36.85900000     -8.25442000      0.08292090     -0.03523400     -0.04121500       1
H              -9.75293000    -36.08850000     -8.87080000      0.03380700     -0.01169090      0.07183120       1
O              52.11220000    -21.06220000    -14.41420000      0.03542270     -0.01569990      0.01020150       8
H              54.11830000    -21.45310000    -14.12110000     -0.06834520      0.00876394     -0.00356230       1
H              50.98670000    -21.41490000    -12.92460000      0.03233550     -0.00378788     -0.01538770       1
O              17.61660000     -1.51000000      9.88810000     -0.07867500      0.03205570     -0.00144858       8
H              16.54680000      0.04451100      8.99572000      0.02951790     -0.06229730      0.02687060       1
H              16.16540000     -2.60970000     10.69050000      0.04823340      0.03121150     -0.02759810       1
O             -32.84590000     -3.97016000     45.41880000     -0.03957860      0.01319260     -0.08133820       8
H             -33.00270000     -5.02942000     43.69590000      0.01538850      0.02131110      0.04731790       1
H             -31.97380000     -4.82239000     46.66360000      0.02532860     -0.02783210      0.02655760       1
O               5.21493000    -12.36820000     -9.06454000      0.04323100      0.01696560     -0.05319660       8
H               4.68063000    -12.44260000     -7.38929000     -0.00083817      0.00462067      0.04046550       1
H               6.82345000    -11.36480000     -9.33187000     -0.04204620     -0.02421210      0.01418380       1
O              22.71710000     17.26390000     16.08390000     -0.05853340      0.03027650      0.13200600       8
H              21.43300000     18.65650000     16.21440000      0.02092520     -0.02097980     -0.00430989       1
H              23.31430000     17.15470000     14.55970000      0.04089690     -0.00852647     -0.12785800       1
O               8.87788000     21.96880000    -11.11380000     -0.00510764     -0.01190380      0.02279020       8
H               8.80740000     22.06290000     -9.17893000     -0.00383639     -0.01076680     -0.04142630       1
H               7.86725000     20.46400000    -11.71760000      0.01851120      0.02438590      0.01239400       1
O              24.34410000     56.15660000     27.88560000      0.00887074      0.09615630      0.02584160       8
H              23.17150000     57.77510000     28.29110000      0.01851480     -0.06078500     -0.01320460       1
H              23.54600000     54.63060000     27.61870000     -0.03474660     -0.03565760     -0.01264320       1
O              -7.64748000      6.68130000      3.58216000     -0.07729670      0.03544280     -0.03762160       8
H              -7.57198000      8.50291000      3.02719000      0.00733584     -0.02496880      0.01796350       1
H              -9.62187000      6.49651000      3.14603000      0.06915530     -0.00863093      0.02138520       1
O              15.67540000    -30.56690000     16.93640000      0.05047200     -0.04905130      0.09320270       8
H              14.71000000    -30.07450000     15.65640000     -0.05506380      0.02890060     -0.08682250       1
H              15.33350000    -32.39090000     17.10220000      0.01212130      0.01603710     -0.00025939       1
O               1.76225000     17.06310000     47.13100000      0.01246090     -0.06580870     -0.02869170       8
H               3.27575000     15.90460000     46.37930000     -0.04661150      0.04234130      0.03064800       1
H               0.25172700     15.89110000     47.16910000      0.03648350      0.02365720     -0.00243185       1
O              41.38750000     41.91080000      1.46322000     -0.06918580     -0.13087500     -0.11188000       8
H              42.10180000     43.06270000      2.29554000      0.07581880      0.13031000      0.10332100       1
H              39.65340000     41.54510000      1.90337000     -0.00565314      0.00417346      0.01926050       1
O              22.50850000     13.01180000    -28.90270000     -0.02088750     -0.08266310      0.02496660       8
H              21.58810000     11.32960000    -29.38510000      0.01468540      0.03163530      0.02426680       1
H              22.48060000     13.63440000    -30.52150000      0.00237066      0.04489150     -0.04638770       1
O             -17.36610000     45.32040000      1.21701000      0.01743730      0.02919650      0.00771843       8
H             -17.13470000     43.62790000      1.77162000     -0.00690900     -0.01934550      0.01394590       1
H             -16.40400000     46.26400000      2.51866000     -0.01358200     -0.01365490     -0.02083580       1
O               8.26559000    -26.96620000     30.19820000     -0.00269918     -0.06075660      0.00265904       8
H               7.59183000    -28.10910000     31.49870000      0.00897485     -0.00715337     -0.01828920       1
H               7.91869000    -25.53820000     31.07590000     -0.00142066      0.07075910      0.02729600       1
O               3.79409000     35.06640000      0.68796000     -0.01525920      0.00524918     -0.04641200       8
H               2.49162000     34.06490000      1.49854000     -0.00228917      0.00043152     -0.00539468       1
H               3.41729000     35.14170000     -1.26559000      0.01185820     -0.00756213      0.05572590       1
O             -12.87720000    -12.92220000     14.39230000      0.00637554      0.07450950      0.04250630       8
H             -12.88770000    -14.45520000     13.68530000      0.00959513     -0.09377620     -0.03082390       1
H             -13.65730000    -12.04600000     13.03880000     -0.00930703      0.02421130     -0.01392230       1
O              -6.68932000      5.56842000     14.15840000      0.04918980     -0.06420050      0.00336437       8
H              -5.38677000      6.74592000     14.66570000     -0.00274958     -0.00069014      0.00465936       1
H              -5.64803000      3.67445000     14.31550000     -0.03361500      0.06626400     -0.01114800       1
O              27.20840000    -13.63430000     -4.48805000     -0.03172020      0.14655500      0.00920726       8
H              25.44400000    -13.12760000     -4.75977000      0.00754628     -0.00475508      0.00278451       1
H              27.50780000    -15.24030000     -4.53427000      0.01369160     -0.13168300     -0.00725378       1
O              20.83370000      8.01920000     42.47130000      0.00770525      0.02014960     -0.01684440       8
H              19.99150000      7.46636000     43.94080000     -0.01896170     -0.01372610      0.02068610       1
H              22.53940000      7.53381000     42.74930000      0.01216620     -0.01251160     -0.00325233       1
O              14.77130000     26.12220000     46.16630000      0.01517130      0.09837270      0.04059370       8
H              16.41710000     26.92530000     46.86260000     -0.03591040     -0.01542050     -0.02812490       1
H              15.01630000     24.51370000     45.73930000      0.01887010     -0.09098210     -0.01829950       1
O             -15.03340000     10.45090000     21.51060000     -0.05905270     -0.04104790      0.07611590       8
H             -13.29550000     10.33350000     21.15840000      0.04004160     -0.00612291     -0.01364910       1
H             -15.21000000      9.17973000     23.13360000      0.00599640      0.05335920     -0.04595050       1
