192
Lattice="24.05554 0.0 0.0 0.0 24.05554 0.0 0.0 0.0 24.05554" Properties=species:S:1:pos:R:3:force:R:3 TotEnergy=-1103.42285 cutoff=-1.0 nneightol=1.2 pbc="T T T"
O       20.53700000       3.32470000      16.55328000      -0.01262250       0.00609566      -0.05271700
H       21.40830000       3.11140000      18.02218000       0.04018020       0.00744187       0.06876340
H       19.21550000       2.11714000      16.62668000      -0.02654980      -0.01719990      -0.00954531
O       22.58606000      20.04416000      10.79540000      -0.00947678       0.00368898      -0.03000980
H        0.19042000      19.32256000      10.93010000      -0.00122649      -0.01019100      -0.00594816
H       22.17166000      20.08796000       8.90669000       0.01044130       0.00687398       0.03745940
O       10.32360000       1.10891000      16.70130000       0.04672680      -0.08066420      -0.01350970
H        8.77407000       0.42168500      16.16680000      -0.04166760       0.01211700      -0.00194514
H       11.10660000      23.33517000      16.35450000      -0.00604876       0.07044250       0.01762190
O       19.41020000      14.89833000      22.77418000      -0.01718840       0.01414730       0.01361230
H       18.49680000      16.50313000      22.46292000       0.01437810      -0.01789480       0.00529019
H       19.14318000      14.56893000       0.55672700      -0.00036995       0.00526668      -0.01993610
O        6.86657000       9.20986000      20.94550000       0.09291110       0.00827055      -0.05628670
H        7.18993000      10.83096000      19.87120000      -0.02334510      -0.04081080       0.02955790
H        8.75976000       8.11256000      20.44780000      -0.08299430       0.02941300       0.02717410
O       21.83165000      14.74440000       7.21169000       0.00554067      -0.05198890      -0.02943070
H       22.90173000      13.38680000       6.33131000      -0.02006950       0.03732450       0.02714600
H       22.90775000      16.14360000       7.42760000       0.01602880       0.00867245       0.00596360
O       14.06946000      22.83020000      11.45180000       0.00140638       0.00285634       0.02841850
H       14.40566000      22.69320000       9.66673000      -0.00309435      -0.01469120      -0.00584069
H       13.24916000      21.38160000      12.30060000      -0.00085209       0.01369040      -0.02788410
O        0.11383500      23.81478000      14.78190000      -0.00644440       0.03172510       0.02537480
H       23.97200100      22.36198000      13.65730000      -0.02446490       0.02378030       0.00425030
H       22.73716000       1.04924000      15.25730000       0.02765050      -0.04634110      -0.02986570
O        6.41926000      13.33798000      17.44440000      -0.06216700      -0.01108630       0.01071600
H        8.08476000      13.58138000      17.11440000       0.07417260       0.00212314      -0.02535230
H        6.08476000      14.82478000      18.40130000      -0.01755390       0.00866427       0.01216820
O        9.11828000      22.84658000       1.46004000      -0.00837139      -0.02288140      -0.01133190
H       10.49420000      22.74368000       0.22204000      -0.00032493       0.01354460       0.01193710
H        9.21079000       0.07644000       2.72894000       0.00787723       0.00768902       0.00449647
O       12.94454000       4.48314000       5.95256000      -0.01232710      -0.01008560      -0.01698830
H       11.19414000       3.77155000       5.58123000       0.03455270       0.01926520      -0.00057590
H       13.58124000       5.69552000       4.63582000      -0.02430070      -0.01673180       0.01652290
O       13.70034000       8.40196000       2.38922000      -0.07360900       0.04993670       0.03179620
H       13.73854000       7.49986000       0.91052000       0.01188740      -0.02713630      -0.04219100
H       11.71504000       9.20146000       2.36202000       0.06609520      -0.02242270       0.02502230
O       14.20670000      18.41948000       2.99144000      -0.10951600      -0.01110640      -0.02733030
H       15.27980000      17.27668000       3.84804000       0.01037060      -0.02575030       0.00627270
H       12.18270000      17.48048000       2.69204000       0.10019600       0.03445410       0.01180520
O        2.03986000      15.71380000      10.24426000       0.05041380      -0.00318688      -0.00313663
H        3.81446000      15.55520000       9.57776000      -0.03559170       0.01066450       0.00511547
H        2.36526000      15.24210000      11.96996000      -0.01091530      -0.00197662       0.00487493
O       22.89266000       2.97546000      21.35822000      -0.07767420      -0.03859870      -0.00566390
H        0.49914700       3.38048000      21.58395000       0.05531340       0.01079330       0.00723833
H       22.54725000       1.14392000      21.91506000       0.01858820       0.03233900      -0.00437837
O       21.56778000      21.51120000       5.85186000      -0.04216170      -0.01622640      -0.00094918
H       19.84078000      22.16200000       5.83496000       0.00753513      -0.01151590      -0.00331618
H       22.52068000      22.98710000       6.06646000       0.03016380       0.02071740       0.00005651
O       18.06228000       9.89358000      21.37840000      -0.01247670       0.05611620      -0.00167714
H       16.98158000       9.38352000      19.96770000       0.00217950       0.01120130       0.01501280
H       17.80738000      11.86170000      21.68770000       0.01237270      -0.06402490      -0.01285080
O        9.22984000      10.14432000       3.98384000      -0.01390780       0.00365180       0.03239820
H        9.16974000      10.83082000       5.96954000      -0.00392356      -0.03082280      -0.06109350
H        7.90984000       8.83762000       3.37134000       0.01539870       0.03677890       0.02262290
O       17.11022000      23.77030000      15.42666000      -0.09895740       0.12414200      -0.05511130
H       15.93532000      23.63280000      13.73626000       0.03699540       0.00661027       0.04963850
H       17.79902000      22.29590000      15.47026000       0.06395110      -0.13354100       0.00922955
O        8.53112000       1.78234000       5.63790000      -0.04545300       0.03034250       0.00806084
H        7.64342000       1.35794000       7.25372000       0.01729160       0.00011030      -0.02508940
H        7.11542000       2.83924000       4.74322000       0.02561760      -0.03593040       0.01818940
O        7.57856000      17.37360000       8.59454000      -0.01366900       0.02681520      -0.00547489
H        7.95066000      15.56000000       8.49124000       0.01817700       0.01712500       0.02570570
H        8.16976000      18.66670000       9.87794000       0.00087372      -0.05195010      -0.01321150
O       15.04681000       7.64559000      13.68442000      -0.09151210      -0.00679827      -0.00636829
H       14.04354000       6.11906000      13.16032000       0.00621456       0.02874940       0.00089265
H       16.64057000       7.06233000      13.51862000       0.08232770      -0.01421060      -0.00946854
O        4.01222000       0.13805100      22.59543000       0.09423110      -0.00143241      -0.00389767
H        3.11733000      22.69179000      22.71807000      -0.02344020      -0.03069610       0.00527817
H        5.89206000      23.41912800      22.59284000      -0.06753280       0.03545870       0.00458057
O       19.50026000       6.07797000       0.57166000       0.00684071      -0.00901242      -0.02170310
H       19.20956000       7.70509000      23.75960000      -0.00093060      -0.01179610       0.00317716
H       20.52356000       5.07688000      23.41100000      -0.00443947       0.01444670       0.01617460
O        1.54034000      10.08392000       6.29766000      -0.00740776      -0.03387890      -0.03874780
H       23.82277500       9.06132000       6.02316000       0.07246220       0.01999520      -0.00184653
H        3.00014000       9.52552000       5.02966000      -0.06630220       0.01145250       0.03661240
O        9.15834000      12.11926000       8.95911000       0.06948270       0.00726433       0.02155280
H        7.94136000      11.15976000       9.95967000       0.01056660      -0.00220293      -0.00000176
H       11.24830000      12.18616000       9.85782000      -0.07387540      -0.00709831      -0.03129720
O        7.19774000      20.24830000      17.01410000       0.11269500      -0.00918257       0.02117440
H        5.52984000      20.16390000      17.33300000      -0.08156490      -0.00675684       0.02063890
H        8.20594000      19.54890000      18.54750000      -0.02931380       0.01453700      -0.03471650
O        5.20716000       7.71716000       1.78682000       0.02137140      -0.08489770      -0.06798610
H        5.41426000       7.77876000      23.85776000      -0.00421557       0.02043210       0.06099160
H        5.35626000       5.68026000       1.82652000      -0.01883190       0.06738040       0.01770490
O       13.62710000       9.23636000      18.15090000      -0.00471377       0.03389300       0.04415290
H       14.08880000       8.84326000      16.49890000       0.01066070      -0.01735100      -0.04200680
H       12.91980000       7.79456000      18.92610000      -0.00821727      -0.01550790       0.00140689
O       22.54365000      22.33378000      22.94030000       0.00594632       0.01175960      -0.02634780
H       20.88558000      21.63158000      23.06370000      -0.01051090      -0.01074870       0.01219060
H       23.53975500      22.07428000       0.35936000      -0.00299535      -0.01145300       0.01571600
O        4.96556000      16.09480000      22.03408000       0.04658220       0.03438210       0.00328401
H        6.45306000      15.44210000      22.95825000      -0.02237060      -0.00051742      -0.00360510
H        3.67594000      14.91890000      22.06630000      -0.03486740      -0.03695690       0.00038110
O        4.42191000       3.21643000      16.13440000      -0.03651770      -0.04830050      -0.02002300
H        3.01811000       2.00980000      15.49160000       0.03912230       0.03283730       0.01776440
H        3.78946000       3.85886000      17.76830000       0.00511182       0.00682225      -0.01201000
O       10.23798000       5.43292000      20.44578000      -0.08929780       0.15716000      -0.09275450
H        9.56238000       4.24172000      19.50238000      -0.03898350      -0.08054310      -0.06034240
H       11.20608000       4.90682000      21.56018000       0.13351100      -0.07943540       0.15031800
O        5.28659000      23.94316000      10.21354000       0.00025998       0.00772920       0.05319230
H        5.42568000       1.54992000      11.21414000       0.00423966      -0.01957300      -0.03367310
H        5.48553000      22.79486000      11.67924000      -0.00269016       0.00605136      -0.02918530
O       16.92528000      10.30356000       6.35861000       0.08462610       0.04172160       0.06387300
H       15.91538000       9.39556000       5.38030000      -0.06485590      -0.05301480      -0.06646480
H       18.57698000       9.40126000       6.32951000      -0.02027990       0.01267060       0.00059718
O       21.64800000      11.40106000      12.59180000      -0.02515720      -0.02133650       0.01209950
H       23.16060000      12.12426000      13.09690000       0.04205270       0.01117240       0.02337270
H       21.31340000      12.41826000      11.20890000      -0.01830530       0.01910530      -0.03924440
O       12.17894000       3.96134000      11.09110000      -0.00122769      -0.01418000       0.05544290
H       12.32154000       3.68494000       9.37559000       0.01013460       0.00977868      -0.05554810
H       12.73964000       2.32224000      11.72440000      -0.00963486       0.00648015       0.00439843
O        2.87178000       6.15718000      19.55860000       0.19087100      -0.07030560       0.11820000
H        1.76888000       7.01995000      18.88200000      -0.17960300       0.11679400      -0.10449400
H        4.16188000       7.60383000      19.90650000      -0.01321770      -0.04280000      -0.00254836
O        4.82574000       9.08264000      10.40726000       0.00691635      -0.01170570       0.02533490
H        4.71214000       7.22364000      10.76206000       0.00201056       0.02987850      -0.01786320
H        3.59014000       9.83514000       9.29636000      -0.00954647      -0.01843820      -0.01141870
O       18.05080000      14.78230000       3.80906000      -0.09574950      -0.04313170      -0.03191620
H       19.41960000      15.42750000       4.52566000       0.08458060       0.03724950       0.04947060
H       17.43750000      13.49700000       5.02656000       0.01096170       0.00618305      -0.01978330
O        1.81414000      20.20652000      18.08136000      -0.02907750       0.08401860       0.02232930
H        0.95624000      20.44297000      19.75746000       0.01679180      -0.01438160      -0.02500700
H        1.34024000      22.10319000      17.41576000       0.01423190      -0.06585850       0.00355095
O       20.78006000       3.08791000       9.35666000      -0.04801770      -0.04794460       0.03948950
H       20.45816000       4.25335000      10.90466000       0.01045130      -0.01441280      -0.02885870
H       19.73216000       1.41302000       9.73376000       0.03713760       0.06541870      -0.01275510
O       14.30220000      16.25418000      13.73144000      -0.02313870      -0.04376780      -0.02706280
H       15.82359000      17.08948000      13.86614000       0.04832880       0.04561180       0.02556420
H       15.03452000      14.91568000      12.65174000      -0.02849050      -0.00205506       0.00371992
O        6.75022000       4.41254000      11.74244000       0.02026810       0.00849113      -0.02785880
H        8.58262000       4.69594000      11.30084000      -0.03014230      -0.01108330       0.02064880
H        6.41322000       4.26614000      13.51504000       0.00493830       0.00349518       0.01813820
O       15.15160000      22.71182000       5.95673000      -0.00136592       0.06833330       0.01528770
H       14.39240000       0.31991300       5.41676000       0.01923240      -0.02468360       0.01588030
H       14.31030000      21.58475000       4.90593000      -0.01445070      -0.03755750      -0.02303580
O       10.61308000      18.01502000      20.56266000      -0.06377620      -0.02553010       0.07947520
H       10.67448000      16.46178000      19.59216000       0.01430010      -0.00583039      -0.01032210
H        9.57738000      17.24066000      22.31016000       0.05028230       0.02668040      -0.06493280
O        2.20477000      11.16484000      14.57331000       0.04541410      -0.00114167      -0.01448440
H        3.71522000      12.02264000      15.48296000      -0.03238440      -0.02833550      -0.03161950
H        2.74850000       9.98324000      13.06844000       0.00329836       0.03906280       0.04802210
O       19.10200000      18.33460000      14.93140000      -0.00358290      -0.07552660       0.05895900
H       19.90020000      18.91940000      13.50040000       0.03312940       0.01018220      -0.04041130
H       20.18320000      16.68590000      15.57110000      -0.02570100       0.07081150      -0.02532920
O        9.98426000      19.57570000      12.85584000       0.01637740      -0.02965750       0.03245180
H       11.14990000      18.03960000      12.93684000      -0.02604930       0.03242860       0.00078638
H        9.03505000      19.62730000      14.55729000       0.01161050      -0.00289989      -0.03563550
O        1.15936000       1.11032000       7.19306000       0.01325100      -0.01563870       0.01490670
H       23.61020000       1.63432000       7.97976000       0.02438420       0.00322622       0.01092290
H        2.43586000       0.24322000       8.39706000      -0.03618170       0.02499860      -0.02076510
O       21.47652000       6.90122000       5.56325000      -0.02147640      -0.01671490       0.05034700
H       20.77936000       5.72837000       6.91325000       0.02239870       0.02063630      -0.02007590
H       20.74502000       6.18761000       4.08938000      -0.00268676       0.00129059      -0.03088690
O       12.34100000      22.49348000      21.59250000      -0.00271212      -0.12013700       0.11147700
H       11.44600000      20.86268000      21.20730000       0.01836480       0.02415650      -0.02014950
H       12.46240000      23.78048000      20.60370000      -0.00709250       0.09683190      -0.10015200
O       17.42065000      20.40640000      23.16656000      -0.02981870      -0.00008633       0.00348520
H       16.43640000      21.19000000      21.75376000       0.00847764      -0.02014530       0.03509840
H       16.20750000      19.77570000       0.51622000       0.02049600       0.01801560      -0.03891930
O        9.10856000      15.27256000       1.00691000      -0.02316700       0.11424700      -0.01374860
H        8.19736000      16.68956000       2.24952000       0.01362270      -0.04210540      -0.01407420
H        9.38286000      13.68506000       1.59175000       0.00431491      -0.06265250       0.03432120
O       23.60980000      15.98150000      16.50118000      -0.02395990      -0.05857330       0.03217980
H       23.47920000      14.90580000      18.13658000       0.01156840       0.02419540      -0.04077860
H        0.44756000      17.42310000      17.06108000       0.00917524       0.02416050       0.00406867
O        1.93214000      19.75286000       1.79909000       0.01737440      -0.02836620      -0.00168887
H        2.56744000      18.46226000       0.66743700      -0.01241290       0.00570499      -0.02116430
H        3.06224000      19.11686000       3.08188000      -0.00228107       0.02211140       0.01827570
O        6.96686000      18.75198000       3.77926000      -0.02659650       0.07658990      -0.33471300
H        7.28659000      18.61298000       5.22596000       0.06096130      -0.05006620       0.33937900
H        8.06166000      20.35138000       3.38386000      -0.03277700      -0.02966100      -0.01394960
O        4.11562000       2.61186000       3.32737000      -0.01363260       0.00783418       0.00306002
H        3.83389000       1.66166000       1.69289000      -0.00729804       0.01024580       0.03472340
H        2.72837000       2.68466000       4.72633000       0.02648450      -0.01799240      -0.04314140
O       14.39696000      12.06084000      10.48750000      -0.01517600       0.05006630      -0.02911000
H       14.39819000      10.49354000      11.22340000       0.00369523      -0.05535350       0.03642860
H       15.29433000      11.72134000       8.91857000       0.00345516       0.00073915      -0.00368042
O       20.18712000       6.67219000      12.95330000      -0.03849420      -0.07910770       0.02669910
H       21.19162000       8.12925000      12.91260000       0.01914640       0.02765540       0.00767653
H       20.19776000       5.45319000      14.54440000       0.01898210       0.04306410      -0.03373850
O        0.23776000      13.08964000      21.08101000      -0.00608177      -0.02374260      -0.02023290
H       24.04950000      11.31314000      20.10230000      -0.01577230       0.05800460       0.03752610
H       22.67730000      13.89434000      21.60576000       0.01413000      -0.02525090      -0.00459011
O       23.01940000       9.48999000      17.93126000       0.01532560       0.01273640      -0.01887140
H       21.34620000       9.30866000      17.27376000      -0.00293920       0.00270970       0.00618189
H       23.92690000      10.65070000      16.72196000      -0.00807427      -0.02751890       0.00608836
O       14.45900000       3.54576000      23.17116000       0.00931332      -0.03073310      -0.00184394
H       16.22560000       3.96866000      23.15896000       0.00480475       0.01848010       0.00439741
H       14.64950000       1.71036000      23.30196000      -0.01304660       0.01428850       0.00235674
O       11.43304000      14.00820000      17.54370000       0.00859832       0.01892330      -0.01459180
H       12.63354000      14.72260000      16.26010000      -0.01207590      -0.01231000       0.01721350
H       12.11404000      12.46490000      18.22880000       0.00841064      -0.00699155      -0.00448369
