192
TotEnergy=-1103.53695000 cutoff=-1.00000000 nneightol=1.20000000 pbc="T T T" Lattice="23.99741000       0.00000000       0.00000000      -0.00000100      23.99741000       0.00000000      -0.00000100      -0.00000100      23.99741000" Properties=species:S:1:pos:R:3:force:R:3:Z:I:1
O              22.65960000     -4.15140000    -28.46430000      0.02706680     -0.03178730      0.00321611       8
H              21.00640000     -4.19920000    -29.34220000      0.01974850      0.00045801     -0.00552997       1
H              23.75360000     -5.70397000    -28.90530000     -0.03568250      0.02695920      0.00561148       1
O              46.37840000     43.89870000      0.76077200     -0.04645550     -0.12894100     -0.02262230       8
H              47.03520000     45.36860000      0.82747900      0.06363540      0.16331500      0.04971440       1
H              46.60280000     43.93010000     -1.04290000     -0.00784601     -0.02980140     -0.02932440       1
O              11.71060000      5.84875000     13.21760000      0.04221050     -0.01103480      0.03940070       8
H              12.86670000      5.16257000     14.59660000     -0.02863120      0.02723210     -0.02168590       1
H              11.31880000      4.23332000     12.48900000     -0.01567120     -0.01529500     -0.01433090       1
O              -5.02090000    -10.49610000     -1.84867000     -0.01382600      0.07014490      0.01781480       8
H              -4.24176000    -10.70300000     -3.46619000      0.00105554      0.00305922     -0.00305569       1
H              -5.33368000     -8.48581000     -1.53371000      0.01330650     -0.06743520     -0.01309480       1
O               6.24132000     31.16910000     18.91100000      0.03236170      0.00459114     -0.01779260       8
H               8.09088000     31.52120000     19.07940000     -0.02261370     -0.00094443      0.02123550       1
H               6.29336000     31.21460000     17.04540000     -0.01329620     -0.00303282      0.00151190       1
O              -5.20840000      9.96464000      5.68639000     -0.00519722     -0.04747100      0.06012810       8
H              -5.29800000      8.67772000      7.22848000      0.01304390      0.04455190     -0.04575540       1
H              -6.51663000      9.18598000      4.60480000      0.00513216      0.00271501     -0.01067570       1
O              43.87410000     24.52020000     12.96340000     -0.06938800      0.04861880      0.10250800       8
H              45.49750000     24.54420000     13.48160000      0.08020490     -0.00136756      0.00673557       1
H              43.70380000     23.92210000     11.42160000     -0.00917641     -0.04478920     -0.10893900       1
O              -1.11914000    -28.88220000      7.71314000     -0.02358830      0.05479210     -0.03298820       8
H              -0.74664100    -29.92230000      6.22684000      0.01445840     -0.00446746      0.00560051       1
H              -2.19037000    -27.44670000      6.89942000      0.02198060     -0.04215110      0.03547660       1
O              30.61850000    -32.27260000     18.01030000      0.09808920      0.02060560      0.03323040       8
H              29.16330000    -32.72050000     17.29030000     -0.08397420     -0.01907480     -0.03037590       1
H              30.88710000    -33.17420000     19.60670000     -0.01057270      0.00149839     -0.00046288       1
O               9.71363000    -25.40450000    -24.41900000      0.00272673     -0.02885750      0.02501270       8
H              11.06450000    -25.87550000    -25.62480000      0.00512360      0.00677566      0.02506730       1
H               9.93911000    -26.32980000    -22.70120000      0.00169208      0.01274520     -0.04701760       1
O              -9.58031000      2.69309000      8.11595000     -0.05104840      0.00581152     -0.01317740       8
H             -10.40240000      3.08522000      6.29300000      0.02200990     -0.01653750      0.06930710       1
H             -10.90110000      2.36352000      9.58700000      0.02882920      0.00700733     -0.06028370       1
O             -11.19770000     27.90050000     50.92940000     -0.02161800      0.12381500      0.16186400       8
H             -13.00210000     28.01440000     51.38320000      0.00319198      0.00256708     -0.00047462       1
H             -11.16240000     26.91560000     49.69480000      0.01294310     -0.12739600     -0.15954700       1
O              16.01840000    -30.24180000    -13.02310000     -0.00343687      0.01079810     -0.01683260       8
H              16.16080000    -31.68050000    -14.17230000      0.00246375     -0.00462821     -0.01018630       1
H              16.08140000    -30.98190000    -11.41990000     -0.00237706     -0.00525705      0.02801040       1
O              27.46650000     14.68380000     36.04470000     -0.04534770     -0.03823830     -0.01872350       8
H              25.81540000     15.44000000     35.74160000      0.01250430      0.01485690      0.00898233       1
H              26.84390000     12.97310000     35.48230000      0.03025940      0.02107470      0.01353760       1
O               0.09627600      0.86082600      3.27635000     -0.04160720      0.00061874      0.05572710       8
H              -0.26831900      1.08784000      5.23107000      0.00978910     -0.00225809     -0.05737800       1
H               1.81922000      1.21753000      3.06391000      0.02662330      0.00121671     -0.00524499       1
O             -29.52120000     21.60240000     32.80360000      0.11945700     -0.10746900      0.14355000       8
H             -30.74620000     22.11620000     31.96700000     -0.15851300      0.08326950     -0.11906600       1
H             -30.49660000     20.17400000     33.87670000      0.03832380      0.03164620     -0.02539340       1
O             -33.91400000     12.08220000     23.25900000     -0.10201500     -0.05139930      0.04345510       8
H             -35.08980000     11.10160000     22.14730000      0.03160950      0.02493110      0.00036217       1
H             -32.47940000     12.77120000     22.67220000      0.07058120      0.01731700     -0.05267400       1
O             -18.08600000     63.21510000    -20.27300000     -0.01083350      0.03973820      0.02739110       8
H             -17.97310000     62.41690000    -18.64050000      0.00519022     -0.00286398      0.00905604       1
H             -18.23430000     61.86350000    -21.35410000      0.00744741     -0.03571400     -0.03619500       1
O              67.24690000     20.37540000     39.88210000     -0.01095840      0.00874720     -0.01298890       8
H              67.22860000     22.11960000     39.01090000     -0.01240220     -0.04225210      0.01178740       1
H              65.66620000     19.39280000     39.72180000      0.00855124      0.02910270      0.00157233       1
O              55.69570000    -19.94340000      4.04565000      0.01085170      0.00465953     -0.00641997       8
H              55.18500000    -20.89490000      5.49017000      0.00131364     -0.00073131      0.02245360       1
H              54.84220000    -20.89720000      2.74986000     -0.01036470     -0.00183145     -0.01638180       1
O              30.72480000     18.47470000    -13.63020000      0.01001090      0.08720750     -0.02506070       8
H              32.46040000     18.35580000    -14.07750000      0.01300280      0.00089590     -0.00526591       1
H              30.20360000     17.00730000    -13.01670000     -0.02997690     -0.09171730      0.03361170       1
O             -17.25350000      7.86638000     61.87400000     -0.00863538      0.01325670      0.00390171       8
H             -16.19790000      9.37944000     62.17420000     -0.03283350      0.03048820      0.01018900       1
H             -15.71690000      7.13036000     61.43410000      0.02995210     -0.05369730     -0.01755630       1
O               4.94720000      1.04464000      0.96552200     -0.03742650      0.03644010     -0.05547720       8
H               4.06136000      1.91525000     -0.81882100      0.04048110     -0.02654280      0.06082750       1
H               6.49593000      0.19436700      0.56115100     -0.00078078     -0.00341678     -0.01493590       1
O              43.62070000      4.93533000     24.12660000      0.00371206      0.05125350      0.05674130       8
H              42.84100000      6.64133000     24.94990000      0.01925190     -0.06153660     -0.03003750       1
H              44.81500000      4.30184000     25.45730000     -0.02101390      0.00744953     -0.02531990       1
O              -0.27573900     59.10250000     28.87370000     -0.06666320     -0.29569900      0.01375610       8
H              -2.32658000     58.41690000     28.90580000      0.06085900      0.03007460      0.00151490       1
H              -0.23858100     60.63230000     28.79850000     -0.00365672      0.26766000     -0.01234210       1
O               9.92691000     37.76110000     10.56310000      0.06164760      0.00191138      0.01979990       8
H               9.04952000     36.43630000      9.65467000      0.00012318     -0.00006771     -0.00703425       1
H              11.79320000     37.32480000     10.70230000     -0.04323210      0.00489774     -0.01698230       1
O             -16.56730000     20.77000000     19.18000000      0.03323600      0.00287832      0.07141920       8
H             -16.54850000     18.94840000     18.94390000     -0.00973278     -0.00294188     -0.00471693       1
H             -15.78720000     20.95470000     21.16170000     -0.03071200      0.00631728     -0.06661860       1
O              30.61180000     33.14060000     51.17360000     -0.01933250      0.02801620     -0.01199190       8
H              31.22830000     31.48670000     51.21440000      0.00994588     -0.03279830      0.00613896       1
H              29.10470000     33.07830000     50.11780000      0.00974897      0.00406970      0.00484655       1
O              11.01270000     33.42870000     19.46700000     -0.01516060     -0.00782544     -0.00073541       8
H              10.14990000     34.25930000     18.00410000      0.02993200     -0.01355470      0.00761070       1
H              12.08460000     31.88660000     19.10010000     -0.00580138      0.02840010     -0.00936425       1
O               2.62042000    -24.98600000     18.32180000     -0.00056811     -0.03007350      0.01503150       8
H               1.19089000    -26.19510000     18.98560000      0.03625060      0.02962260     -0.01731200       1
H               4.37080000    -25.76430000     18.54450000     -0.03650140      0.00582304      0.00088548       1
O               0.71592100     16.34170000      3.88858000      0.07118910     -0.05554230      0.03661770       8
H               2.62931000     15.92080000      3.53663000     -0.04404420      0.01368690      0.01981120       1
H               0.33313700     17.36760000      2.57142000     -0.02407130      0.04239260     -0.05526130       1
O               1.12845000      0.59734600     13.18520000      0.01779480     -0.04178660     -0.03563950       8
H               2.05840000     -0.73373300     12.08840000     -0.02200400      0.03689970     -0.00120089       1
H               1.51017000     -0.27278800     14.68500000      0.00353104      0.00224372      0.04599020       1
O             -33.56660000     53.84360000    -29.27730000      0.03236750     -0.00042098     -0.00652920       8
H             -31.84670000     54.01510000    -30.08710000     -0.03304960     -0.00384335      0.01403940       1
H             -33.24720000     52.96050000    -27.64270000     -0.00284699     -0.00098313     -0.01548980       1
O               6.40162000     49.95490000    -15.27850000     -0.11285700     -0.01493090     -0.00194051       8
H               5.03993000     51.24560000    -14.78040000      0.04247020     -0.01467080     -0.00353233       1
H               4.88415000     48.45820000    -15.37240000      0.05753720      0.02421090      0.00165934       1
O             -34.01340000     39.46550000      3.02329000     -0.02384790      0.10791500      0.09738690       8
H             -33.87240000     38.42100000      1.74222000     -0.00705100     -0.07300960     -0.09164750       1
H             -35.46640000     40.70560000      2.85422000      0.02470660     -0.02962100      0.00152473       1
O              21.35760000     35.53800000     11.35950000      0.03248360     -0.13433500     -0.00477214       8
H              21.37780000     37.17130000     11.23390000     -0.00888475      0.14029200     -0.00625027       1
H              23.08010000     35.08300000     10.60070000     -0.03367640     -0.00745975      0.01844780       1
O             -17.33750000    -12.34280000      7.62172000     -0.05931830      0.04687960      0.09580430       8
H             -17.28080000    -13.36660000      6.28187000      0.00630629     -0.06058370     -0.07934130       1
H             -19.07440000    -12.75490000      8.43381000      0.04694720      0.00622172     -0.01940320       1
O             -44.91690000      3.62397000     20.66690000     -0.06314040     -0.08903590      0.01468500       8
H             -45.03200000      1.99770000     19.55890000      0.00522543      0.03342900      0.01644570       1
H             -43.76610000      4.79117000     20.16730000      0.06037520      0.04159740     -0.02886550       1
O             -22.23970000    -14.16380000     33.31290000     -0.01230750      0.00812475     -0.03286920       8
H             -22.21760000    -15.98440000     33.40560000      0.00502152     -0.00636798      0.02020510       1
H             -23.06230000    -13.92710000     31.59840000      0.01119520      0.01025930      0.01110660       1
O              15.47420000     14.11480000     31.82200000      0.02603950     -0.02620410     -0.01278620       8
H              16.73900000     13.03420000     30.99740000      0.00479171     -0.00642092      0.02767240       1
H              14.96590000     14.66370000     30.18860000     -0.03157120      0.02554390     -0.02068390       1
O             -20.81670000     -2.02957000     33.25090000     -0.07857020     -0.03240520     -0.01609610       8
H             -19.86740000     -3.59685000     33.40600000      0.01666970      0.00505762      0.00225750       1
H             -22.72280000     -2.87943000     32.69970000      0.06281660      0.02830330      0.00840379       1
O              42.92160000      5.36021000     33.52740000      0.05987370      0.02306790     -0.06240710       8
H              41.28930000      4.96875000     33.18560000     -0.07194440     -0.02833830     -0.02240930       1
H              43.01700000      5.33357000     35.22010000      0.01068240      0.00498127      0.08000030       1
O              -8.24988000    -34.82150000     -7.66063000      0.03703960     -0.06694830     -0.01522530       8
H              -6.47603000    -35.65140000     -7.23485000     -0.05284760      0.03246090     -0.00989682       1
H              -8.98534000    -36.30740000     -8.77574000      0.01826150      0.04975140      0.02590440       1
O              50.19950000    -18.72190000    -12.44990000      0.03951270     -0.01534080      0.04853890       8
H              51.90140000    -18.27160000    -11.19690000     -0.07888740     -0.02190150     -0.04864610       1
H              49.04180000    -20.19920000    -11.80320000      0.05310240      0.04242020      0.00053198       1
O              10.26130000      1.18187000     11.46520000     -0.03727750     -0.02429910      0.00313181       8
H               9.96155000     -0.25728800     12.76910000      0.00814448      0.02907780     -0.02303730       1
H               8.49094000      1.36479000     10.47550000      0.04675430     -0.00120960      0.02361490       1
O             -33.49740000     -2.53166000     44.96000000     -0.06029840      0.03537020     -0.09296530       8
H             -33.45580000     -3.15656000     43.13440000      0.00052038      0.00516446      0.04819290       1
H             -32.34500000     -3.42837000     45.83190000      0.05471800     -0.04620070      0.04232110       1
O               9.10458000    -12.07850000     -8.80609000      0.01937390      0.05938870     -0.00292826       8
H               8.37092000    -10.44900000     -7.99340000      0.01201840     -0.03863510     -0.01800230       1
H              10.18210000    -11.35990000    -10.28480000     -0.03637800     -0.01745470      0.03142920       1
O              21.80030000     16.89440000     12.20340000      0.00786790     -0.03852270      0.02862620       8
H              20.64660000     17.92930000     13.09870000     -0.00431758      0.01326390      0.00751636       1
H              22.34970000     17.74900000     10.76450000      0.00041478      0.02369270     -0.03326600       1
O               9.44822000     21.25940000     -9.42644000     -0.01537640     -0.00355532      0.04893780       8
H               8.88068000     21.34840000     -7.43598000      0.00655740     -0.00432036     -0.06004550       1
H               8.20314000     20.28770000    -10.40170000      0.00828116      0.00662867      0.01262550       1
O              23.07340000     50.01380000     32.20210000     -0.00467733     -0.02147370     -0.01841210       8
H              24.57240000     50.46610000     33.09250000     -0.01027430      0.01148390      0.00481991       1
H              21.52090000     50.89450000     32.59220000      0.01053790      0.01103930      0.00749883       1
O              -8.10164000      7.96430000      2.27533000     -0.04486940      0.02220280     -0.01199470       8
H              -9.20844000      9.39941000      1.65921000      0.03200580     -0.01173860     -0.00040432       1
H              -9.44502000      6.68106000      2.42955000      0.01479950     -0.00841442      0.00556987       1
O              14.08200000    -29.75140000     16.44020000      0.03552610     -0.03222600      0.00532300       8
H              12.45170000    -29.15540000     15.91340000     -0.00457869     -0.01494060     -0.00935843       1
H              14.54080000    -31.66930000     16.42180000     -0.02807190      0.04103140      0.00146708       1
O               1.31559000     15.46040000     41.88670000     -0.01150350     -0.02609580     -0.03997980       8
H               1.66167000     13.64580000     42.18830000     -0.00231656      0.01165710      0.01489360       1
H               0.59497800     15.24790000     40.16170000      0.00857255      0.01478470      0.02377140       1
O              41.72460000     42.54240000      0.03807600      0.02691920      0.00957196     -0.03542130       8
H              43.50810000     43.06270000      0.42290300     -0.02699260     -0.00424192      0.01082170       1
H              40.85630000     41.76700000      1.37013000     -0.00852155     -0.01002740      0.02744660       1
O              20.90100000     10.82130000    -31.34110000      0.00248424      0.04355370     -0.03725910       8
H              20.32980000      9.17235000    -31.48790000     -0.01159470     -0.04304210      0.00696891       1
H              20.94800000     11.23420000    -33.21620000      0.00802809     -0.00130243      0.02734350       1
O             -14.04200000     43.11210000      3.94602000     -0.00933622      0.00247509      0.04348810       8
H             -15.67390000     42.20260000      4.05609000      0.02031020      0.00624464     -0.00686413       1
H             -13.60870000     43.47350000      5.83314000     -0.00668707     -0.00831459     -0.04392740       1
O              11.35720000    -28.33500000     32.94760000      0.03797480      0.02107220      0.00287131       8
H              12.65930000    -29.62520000     33.34090000     -0.01280760      0.02160630     -0.00004640       1
H              12.15920000    -26.63360000     33.30090000     -0.02076880     -0.03763860     -0.00286364       1
O               2.78937000     35.35240000      0.35612700     -0.00822496     -0.02079270     -0.07167380       8
H               1.83308000     35.50990000      1.80521000     -0.03139050      0.00143231      0.03898590       1
H               1.57468000     34.83050000     -1.05453000      0.03210000      0.01399990      0.03072970       1
O              -9.30329000    -13.64150000     12.22210000      0.03678390     -0.00014233     -0.02159260       8
H              -9.92751000    -15.34650000     12.11050000     -0.00522062     -0.00475996     -0.00003823       1
H              -7.63078000    -13.62050000     11.30530000     -0.03687500      0.00079172      0.02099090       1
O              -4.81934000      5.24685000     15.63780000      0.03741280     -0.05400830     -0.00331865       8
H              -3.31021000      4.93909000     16.86790000     -0.03707580      0.01296500     -0.02386110       1
H              -4.83523000      3.59950000     14.56220000     -0.00266432      0.04213700      0.03195900       1
O              26.04600000    -13.66240000     -4.83502000     -0.02399610      0.03054420      0.00332511       8
H              24.61440000    -14.41520000     -5.64666000     -0.00525403     -0.00391873      0.00029655       1
H              27.41070000    -14.78990000     -4.85886000      0.02709680     -0.01993600     -0.00249490       1
O              22.54830000      5.94538000     43.62590000      0.04491400     -0.00264388     -0.03609600       8
H              21.72780000      5.72990000     45.16570000     -0.02246360     -0.00552322      0.03492290       1
H              24.33410000      5.36462000     43.94910000     -0.02930470      0.00116575     -0.00286782       1
O              15.42910000     26.44820000     46.24810000     -0.00894253      0.04630730      0.04873260       8
H              16.88700000     27.15470000     47.20030000     -0.00570884     -0.01444090     -0.01886310       1
H              15.86310000     25.40630000     44.91570000      0.01655060     -0.03017770     -0.02048810       1
O             -16.76560000     13.15600000     22.57630000      0.01949900      0.06350270      0.00079144       8
H             -15.71920000     12.01920000     21.80120000      0.03399620     -0.04069280     -0.01631570       1
H             -18.30750000     12.39470000     22.81740000     -0.04691470     -0.02521980      0.01026690       1
