192
Lattice="25.49673 0.0 0.0 0.0 25.49673 0.0 0.0 0.0 25.49673" Properties=species:S:1:pos:R:3:force:R:3 TotEnergy=-1101.61082 cutoff=-1.0 nneightol=1.2 pbc="T T T"
O        5.05292000       0.99918400       1.74347000      -0.01552950       0.00754674       0.02419140
H        3.47909000      25.33360000       2.66722000       0.03596340       0.01230380      -0.01174590
H        4.18927000       1.57705000       0.28842700      -0.00580218       0.00740321      -0.02533250
O        8.45809000       4.33321000       3.65855000      -0.03242630      -0.02370520       0.01252510
H        7.67574000       3.19054000       2.38713000       0.02269310      -0.00924613       0.00981602
H        7.67247000       3.71613000       5.34553000       0.01342210       0.00781842      -0.03589390
O       16.21450000       1.38748000      23.08370000      -0.09698330      -0.00125209      -0.01860950
H       14.43170000       0.91123000      22.02210000       0.07644810       0.03238180       0.05339250
H       15.58460000       2.56770000      24.41250000       0.01109030      -0.01889870      -0.02532170
O        4.04817000       7.25455000       1.79335000       0.12938400      -0.02730960      -0.11606000
H        5.57759000       4.48290000       2.54102000      -0.02993780       0.05644180      -0.00622828
H        3.03075000       7.32171000       3.04192000      -0.10470300       0.00123503       0.12946600
O       23.36000000       3.29316000      17.14810000       0.02189070      -0.00028313      -0.08456160
H       22.64900000       2.94581000      15.32700000       0.02672440       0.01264530       0.03524060
H       21.87250000       2.96965000      17.93950000      -0.04790080      -0.01559570       0.04791880
O        7.11429000      20.20510000       1.34275000       0.00741342      -0.02652390      -0.09625260
H        6.04285000      19.80150000       2.59226000      -0.04171850      -0.01244660       0.06429820
H        8.27435000      21.40010000       1.78511000       0.03325260       0.03212070       0.02585310
O        8.49877000       1.16967000      19.01550000      -0.09068420      -0.04876840      -0.01129550
H        8.05654000       2.61201000      20.03740000      -0.01020530       0.00077347      -0.00520497
H        6.08088000       0.06674100      18.69610000       0.09749480       0.06313750       0.01896350
O       11.08170000       5.93683000      16.42190000       0.10349200      -0.11440500      -0.00390724
H       10.60450000       7.47717000      16.48170000      -0.05323310       0.14818200       0.00432323
H        9.75430000       4.85028000      16.41330000      -0.04924470      -0.03573700       0.00134863
O        3.03844000      22.26620000      22.38270000      -0.18946100       0.08436570      -0.11783100
H        4.37368000      22.16240000      23.16370000       0.19454000      -0.04398820       0.13257600
H        1.78036000      21.14110000      21.96420000      -0.01491470      -0.04234400       0.00791526
O        1.52514000       9.52365000       9.80163000      -0.01718420      -0.03272620      -0.01877520
H        2.03436000      11.09870000       8.89450000      -0.00261235       0.02333890      -0.00707520
H        0.87968800       8.39089000       8.41934000       0.01820230       0.01807430       0.02624710
O       11.25810000       9.60795000       4.88709000      -0.04193200       0.01492330       0.00546338
H       11.97550000       8.21991000       4.09528000       0.02791440      -0.02871750      -0.01667390
H        9.48456000       9.08077000       4.86879000       0.01082510       0.01157650       0.00658325
O        4.44175000       8.85599000      22.38640000      -0.04285550       0.37874800      -0.02179530
H        2.61385000       9.65770000      21.96450000       0.07609740      -0.04562810       0.01287180
H        4.33076000       7.36914000      22.36810000      -0.03334430      -0.32694900       0.00053591
O       14.56580000      13.00550000      19.41750000      -0.00439413       0.04283060      -0.04439390
H       14.62170000      11.54350000      20.31090000       0.00038144      -0.04936070       0.03642930
H       16.28910000      13.48370000      19.28470000       0.00678489       0.00507449       0.00189604
O        6.55527000      15.38720000      23.81240000      -0.03712960      -0.07566290      -0.07408840
H        6.78703000      15.09260000      21.85090000      -0.00259224       0.00744281       0.05733430
H        7.47187000      16.81190000      24.04700000       0.02853000       0.06921660       0.01635880
O       16.30540000       8.19671000      21.63660000       0.04166930       0.01837200       0.05039650
H       15.02040000       7.66764000      22.74880000      -0.02207950      -0.01427510       0.01410090
H       15.77110000       8.08470000      20.00330000      -0.01573040      -0.01012670      -0.05309310
O       16.49390000      24.68420000      10.86980000       0.11284000      -0.06047190      -0.08446610
H       15.19540000      24.54790000      11.82180000      -0.12671600      -0.02368750       0.09368200
H       16.69640000       0.84707000      10.64680000       0.01467030       0.08220540      -0.01801870
O        5.71836000       7.92400000      13.21970000       0.01920440      -0.01934460       0.01890830
H        4.76932000       9.05818000      12.21080000      -0.01603970       0.00921472      -0.00932517
H        6.42347000       8.84895000      14.64310000      -0.00690317       0.00115191      -0.00687756
O       23.19730000      17.30810000      16.66130000      -0.03711040      -0.05751370       0.03283950
H       21.65400000      14.56330000      16.99540000       0.04092800       0.05793690      -0.04379240
H       23.12540000      18.14420000      15.01590000      -0.01361150      -0.01843700       0.00703517
O       21.95670000       7.02470000       2.62021000       0.01067790      -0.10834700       0.01755690
H       21.63410000       8.63667000       2.36070000      -0.02005790       0.10362200      -0.02394990
H       21.63220000       6.12546000       1.06194000       0.01039160       0.00350254       0.00381949
O        9.44199000      20.68630000      20.01900000      -0.00995041      -0.05706960       0.11854700
H       12.07510000      20.92170000      22.64550000      -0.00427298      -0.00781561      -0.00503170
H        9.94490000      21.52850000      18.65800000       0.03970980       0.05016620      -0.06897630
O       14.42000000       1.78214000       3.34228000      -0.02430660       0.03112310       0.03794410
H       13.84140000       0.74640600       2.01772000      -0.01372830      -0.00941779      -0.01102160
H       12.97360000       2.75171000       4.15914000       0.03119610      -0.02823770      -0.02855570
O        4.27208000      24.02370000      12.35880000      -0.03647870       0.02273920      -0.02817710
H        3.76329000      23.40360000      13.91740000      -0.01231800      -0.01267170       0.02887110
H        5.99495000      23.81880000      12.29240000       0.04882900      -0.01048020      -0.00541738
O       20.99160000      11.83690000      15.85270000      -0.01471150       0.09040390       0.06730040
H       21.60260000      10.88350000      17.20780000       0.01252510      -0.02375210       0.03788260
H       20.96100000      10.67240000      14.62320000       0.00331884      -0.05444570      -0.08758120
O        2.46323000      23.25030000       3.55657000      -0.00538301       0.00478021      -0.00903401
H        3.67691000      22.63480000       4.80877000       0.00579024      -0.01124570       0.00631892
H        0.85461300      23.19080000       4.33799000      -0.01713420      -0.00132462       0.00782170
O       13.70480000      20.38070000      24.72520000      -0.07533840       0.04280570      -0.08157110
H       13.60820000      18.68080000      25.03090000       0.00324543      -0.06429140       0.00863458
H       14.96770000      21.23130000       0.03617000       0.03829140       0.03155840       0.02623320
O       18.60620000       5.10797000       8.79993000      -0.02195230       0.00077793       0.00473981
H       16.96090000       5.88819000       8.48045000       0.01776000      -0.00472148      -0.00094908
H       19.07560000       5.80125000      10.41300000      -0.00360487       0.00483572      -0.00318121
O        4.45647000      21.57140000      17.79000000       0.00801610       0.01995310      -0.01430200
H        4.53565000      21.43980000      19.59990000      -0.00001829      -0.00676695      -0.00526969
H        5.65686000      22.95050000      17.56600000      -0.00149412      -0.01974350      -0.00865674
O       16.47280000       6.53808000       4.37847000      -0.02514540       0.10001100       0.18092200
H       18.06090000       6.26587000       4.13774000       0.13525800      -0.02641880      -0.02096040
H       15.58290000       6.04063000       3.18886000      -0.11130500      -0.06747230      -0.16305300
O        2.45611000       1.69393000      22.09800000       0.01460350      -0.11662000       0.08545800
H        2.23764000      24.91694000      21.95710000       0.01288350       0.08073850      -0.00402908
H        2.09741000       2.70637000      20.79300000      -0.01904060       0.03432090      -0.07738210
O       22.89550000      20.08690000       4.34269000       0.09020540      -0.00701247       0.04190600
H       23.03890000      20.03810000       2.63659000       0.01700240      -0.00832353      -0.06605120
H       21.25080000      20.28360000       4.51506000      -0.10438400       0.01572290       0.02404520
O       23.66240000      15.87970000       0.12827400       0.03316250      -0.01247030       0.04638530
H       24.36580000      15.16780000       1.78989000      -0.02392960       0.02171200      -0.04192650
H       22.74880000      14.51520000      24.89179100      -0.01011480      -0.01153720      -0.00152008
O        7.67132000      10.77340000      17.64010000       0.04604120      -0.04128150      -0.10209600
H        7.63363000      12.43900000      17.13370000       0.00609838       0.04423650      -0.01023580
H        7.00679000      10.70240000      19.14680000      -0.05005900      -0.00942949       0.11057600
O       14.94800000      15.68790000      23.77010000       0.00427333       0.00943945       0.00837921
H       14.85640000      14.52550000      25.14050000      -0.00371666      -0.00969233       0.00847784
H       16.60640000      16.39030000      23.97190000       0.00300085      -0.00148892      -0.00361715
O       13.96700000      22.99790000      18.49480000       0.02764400       0.04156960       0.08390360
H       14.33760000      23.94930000      20.29280000      -0.02011660      -0.04365850      -0.08155720
H       15.40740000      21.82020000      18.54080000      -0.00247218       0.01072470      -0.00911934
O       22.10680000       8.36628000      11.94940000       0.07733330       0.03180410      -0.01363220
H       22.25950000       6.86329000      10.97250000      -0.00573769      -0.01185010       0.00139876
H       24.04650000       9.02474000      11.52770000      -0.06061050      -0.01000520       0.01307700
O       23.26990000       3.69817000      23.30830000       0.03708290      -0.00301654       0.01803240
H       25.07110000       2.95180000      23.50550000      -0.04259490       0.01588990      -0.01021230
H       22.17780000       2.26571000      23.31180000       0.00545418      -0.00293457      -0.00604785
O       11.57320000      21.69740000       3.69098000       0.02859220       0.08360280       0.02473610
H       11.72040000      20.33880000       4.82947000       0.00228317      -0.01320790       0.01627560
H       12.38260000      23.26960000       4.65709000      -0.02723710      -0.06414850      -0.03244380
O       10.18610000      14.39800000       2.29149000       0.00938871      -0.02203100       0.00030233
H        8.80232000      14.61370000       1.07579000       0.01472900      -0.01558870       0.01658660
H       10.46270000      12.58760000       2.83474000      -0.01311230       0.03786250      -0.01210460
O       12.01150000      25.08470000      13.48490000      -0.01479810       0.08003730      -0.16257700
H       12.33260000      24.84050000      15.05190000       0.02929370      -0.02840320       0.15557900
H       12.50890000       1.42467000      13.17580000      -0.01919060      -0.04814860       0.01095110
O       21.47920000       2.55654000      12.34610000       0.06739110      -0.02345880      -0.07009980
H       19.84320000       2.37877000      11.51450000       0.02245830      -0.00451012       0.00040266
H       23.32650000       1.89216000      10.47900000      -0.07158280       0.01479210       0.06691890
O       10.28950000       1.20040000      24.14730000       0.01818730      -0.00761528       0.07241190
H        9.99963000       0.28812800       0.35467000      -0.00508957       0.01799690      -0.06636650
H        9.45092000       0.48753400      22.73040000      -0.01253790      -0.01934300      -0.00675885
O        2.78882000      12.54190000       1.40114000       0.04663920      -0.00509094      -0.13452700
H        4.07832000      10.58770000       1.20363000      -0.04660480       0.00758557       0.01564560
H        1.53421000      12.60980000      25.29709600       0.01659220      -0.02039420       0.06104740
O        5.23168000      20.65570000       6.58629000       0.07203450       0.03644810      -0.04354300
H        4.00015000      20.09200000       7.61760000      -0.05494340      -0.03389840       0.05180090
H        6.72245000      21.09810000       7.60001000      -0.01523930      -0.00128025      -0.00020540
O        9.76311000      15.57470000      19.24480000      -0.02190590       0.04071100       0.00533463
H       10.46840000      15.46820000      20.90720000       0.01230020      -0.00590019      -0.00429160
H        9.48595000      17.52220000      19.14170000       0.00670341      -0.02670340       0.00326044
O       25.06370000      21.06780000      13.93600000       0.08205610      -0.13774700      -0.33145800
H        0.92087000      20.19360000      14.51430000       0.05714060      -0.03965630       0.01218860
H       24.60760000      21.72720000      15.15490000      -0.13499500       0.18296500       0.31499400
O        9.20108000      21.20540000      10.46480000      -0.25351800      -0.22797700      -0.01116200
H        9.16265000      18.59260000       9.16493000       0.02066620       0.09278520       0.05410980
H       10.44680000      22.07540000      10.29400000       0.23349400       0.13497600      -0.03877480
O       17.60060000      23.19130000       5.39282000       0.01917410      -0.00212486      -0.04848960
H       16.68220000      24.60190000       5.91908000      -0.01094120       0.01797880       0.01478080
H       17.49410000      21.89140000       6.55958000      -0.00798594      -0.01818320       0.03173280
O        3.44373000       3.68492000      16.80740000       0.06074700       0.05698360      -0.06679350
H        1.90570000       3.21198000      16.02840000      -0.01668500      -0.00268523      -0.00338997
H        4.37711000       4.91639000      15.19860000      -0.04324480      -0.04864400       0.07124450
O       20.39390000      25.19150000      21.11700000       0.19938400       0.04596480       0.11462300
H       19.47580000      24.63360000      20.00960000      -0.14024800      -0.09288950      -0.18119400
H       19.35900000       0.42277000      22.22620000      -0.05822280       0.03696960       0.05697600
O       20.35330000      11.27710000      24.96540000      -0.04218400      -0.08570690      -0.07007480
H       19.00140000       9.45713000      23.55960000       0.04892750       0.07473830       0.04798010
H       18.90400000      12.22670000      25.45370000      -0.00772693       0.00676838       0.00724977
O        2.95523000      13.69930000       7.31341000      -0.02115970       0.02461550      -0.00495823
H        3.99645000      13.52270000      25.46969900      -0.00858493      -0.00641524       0.06045410
H        2.02357000      15.44170000       7.37820000       0.03949910      -0.07018550       0.00483976
O        0.83417000      18.06810000       8.35905000       0.10940900      -0.00961585       0.07831820
H       25.21180000      18.39730000       7.24487000      -0.10722900       0.03435390      -0.12266500
H       25.41000000      18.26460000       9.82379000      -0.01373430       0.00174685       0.04672750
O       25.43350000       5.49337000       6.25774000      -0.02990390       0.06979110      -0.01584330
H        0.06467000       3.80742000       6.54411000      -0.00427008      -0.05344270       0.00741451
H       23.70530000       5.89773000       5.57572000       0.03328460      -0.01324670       0.00516213
O       12.66580000       6.03028000      25.37790000       0.01120110       0.24100700      -0.01517830
H       10.50780000       8.11011000       0.23197000       0.06096070      -0.07823830      -0.00851937
H       12.26640000       4.48872000       0.09707000      -0.07325120      -0.15324000       0.02114760
O        0.29790500      25.31420000       8.75616000      -0.10829900      -0.00317251      -0.01924090
H        1.11293000      24.61900000      10.07300000       0.04312400      -0.03726900       0.06653310
H        1.41229000       0.78487000       7.94494000       0.06181510       0.04655020      -0.03834620
O       14.90810000      16.80480000       6.10949000      -0.04643980      -0.01660970      -0.04770860
H       14.03980000      15.69080000       7.29038000       0.00594723       0.01406900       0.00203347
H       13.68170000      16.66450000       4.58994000       0.03471680       0.00375338       0.04133300
O        8.21886000      12.42740000       9.49928000      -0.03823460      -0.07906280      -0.01949620
H        9.08136000      10.90810000      10.43440000      -0.03676980       0.04454690      -0.03479140
H        6.39031000      11.63960000       8.30110000       0.07060120       0.04747720       0.05527340
O       22.63560000       8.27052000      19.34110000      -0.02056590       0.10445200      -0.00185573
H       23.26480000       6.97190000      18.49290000       0.04057140      -0.08174120      -0.05967020
H       22.18670000       7.58884000      20.84400000      -0.01729660      -0.02391980       0.06060750
O       17.84280000      13.39820000       3.07159000      -0.02842820      -0.00959147       0.04862020
H       18.43050000      11.79570000       3.76395000       0.00097207       0.00852523      -0.01139350
H       16.65640000      13.86570000       4.49793000       0.02295620       0.00659741      -0.03176690
O       12.11110000      16.16420000      10.79950000      -0.27723400       0.08197100      -0.16994200
H       13.35260000      16.18310000      11.60000000       0.29208100      -0.00942140       0.18790800
H       11.55300000      14.72910000      10.11130000      -0.02464320      -0.07775020      -0.02012150
O       18.26830000      20.53910000      17.22390000       0.09462460      -0.00613510       0.07645520
H       20.14140000      19.37670000      18.69720000      -0.07232930       0.03473710      -0.07649740
H       17.03930000      19.35660000      16.80340000      -0.01420530      -0.03920750      -0.00910426
O       15.24460000       8.16028000      12.44530000      -0.00864833      -0.09791310       0.05743900
H       15.03050000       5.94549000      14.14660000       0.00439183       0.09583140      -0.06433910
H       15.59410000       9.48176000      13.63520000       0.00222547       0.00277804       0.00415981
O       15.86710000      13.84170000      13.95200000       0.06168870      -0.01424470       0.04398370
H       14.51380000      13.32350000      15.11820000       0.02137310       0.00863457      -0.00341026
H       17.70270000      13.59800000      14.91990000      -0.08345110       0.00645509      -0.03845040
O        6.59731000       4.29014000       8.11290000       0.12166500       0.12289700      -0.32387000
H        6.38002000       3.98201000       9.55655000      -0.04688590      -0.06591690       0.32009800
H        8.21328000       5.58087000       7.99442000      -0.07441120      -0.04976110       0.01850690
