192
Lattice="24.46593 0.0 0.0 0.0 24.46593 0.0 0.0 0.0 24.46593" Properties=species:S:1:pos:R:3:force:R:3 TotEnergy=-1103.72431 cutoff=-1.0 nneightol=1.2 pbc="T T T"
O        9.12030000      11.56200000      21.60580000       0.00103213      -0.00137800       0.00102602
H        8.95187000      11.04880000      23.33880000       0.00150408      -0.00018805      -0.00118928
H        9.12208000      10.02820000      20.62630000       0.00075779      -0.00207397      -0.00217894
O        4.03765000      12.58790000      20.67530000      -0.00799782       0.00567703       0.00021749
H        5.83544000      12.57640000      20.36110000       0.00205001      -0.00185905       0.00461353
H        3.51135000      14.26460000      20.20480000       0.00278674      -0.00191435      -0.00086486
O       11.89480000      16.59610000      19.33580000       0.00196083      -0.00555116      -0.00306486
H       12.63680000      15.67910000      17.51630000      -0.00327034      -0.00148652      -0.00013903
H       11.94000000      15.16850000      20.47700000      -0.00130675       0.00861284      -0.00439745
O        2.99644000       4.00293000       3.38194000      -0.00061717       0.00333692      -0.00251017
H        1.56838000       3.78449000       2.27237000       0.00158617       0.00212567       0.00247402
H        2.53558000       3.24129000       4.98187000      -0.00235279      -0.00040796       0.00035461
O       18.06120000      12.34870000      22.96850000       0.00557361       0.00546742      -0.00207891
H       19.01110000      11.83480000      21.46210000      -0.00371495       0.00049614       0.00041952
H       17.32970000      13.92990000      22.45130000      -0.00194747      -0.00364765      -0.00219377
O        2.18456000      13.07740000       2.46887000       0.04066550      -0.00052498      -0.00137809
H        2.36871000      11.58720000       3.65812000       0.00605251       0.01068340      -0.00461395
H        3.61063000      13.22370000       1.30519000      -0.01491690      -0.00738928       0.00786554
O        5.78072000      18.13280000      19.09240000      -0.00745164       0.00014362      -0.00559968
H        5.17494000      19.08570000      20.52560000       0.00723805      -0.00248816      -0.00026490
H        7.52082000      17.64440000      19.33440000       0.00173478       0.00191423       0.00292547
O       17.92940000       7.56317000       5.86554000       0.00013603      -0.00134005       0.00205103
H       17.22160000       7.56679000       4.15655000       0.00079433       0.00199690       0.00358362
H       16.46200000       7.84720000       6.91133000       0.00045078      -0.00153161       0.00181094
O        8.57283000      16.30780000       1.44743000      -0.00321069       0.00130099      -0.00067959
H        8.51914000      18.12360000       1.44384000      -0.00147454      -0.00331339      -0.00005029
H        9.98673000      15.87370000       0.39828500       0.00279391      -0.00050129      -0.00205428
O       17.28230000      17.86020000      13.30310000       0.00383990      -0.00029920      -0.00566711
H       16.84790000      17.91280000      15.06540000      -0.00229794       0.00525027       0.00453517
H       16.13190000      16.53100000      12.78350000      -0.00006874       0.00124198       0.00337291
O       20.20450000      22.31820000      11.11040000       0.00567458      -0.00156746       0.00232738
H       21.78480000      21.56690000      11.64190000      -0.00674579       0.00495400      -0.00251493
H       18.93570000      21.12830000      11.65780000       0.00063585      -0.00596743      -0.00023495
O        2.93544000      21.09110000       8.82264000      -0.00000885       0.00224586      -0.00739164
H        4.70660000      21.52700000       8.78314000      -0.00107803       0.00210330      -0.00002957
H        2.62330000      20.46680000       7.10583000       0.00180707       0.00307984       0.00709605
O        2.32836000      19.26140000       4.06214000       0.00534883      -0.00948625      -0.01282060
H        2.33223000      20.03860000       2.39757000       0.00048280       0.00142627       0.00312576
H        2.97449000      17.57630000       3.74171000      -0.00702737       0.00483752       0.00346438
O       22.90470000       6.64424000       0.06600100       0.00158687       0.00197122      -0.00299675
H       23.09530000       8.43917000       0.27081400      -0.00245558      -0.00157444       0.00387979
H       21.38940000       6.46188000      23.54170000      -0.00370107       0.00060950      -0.00039188
O        7.87707000       6.84586000      18.31040000       0.00228823      -0.00097430       0.00479797
H        8.89338000       5.51088000      17.59980000       0.00161549      -0.00288832       0.00083951
H        6.28507000       6.71481000      17.42500000      -0.00102747      -0.00034716       0.00181947
O       13.51520000      12.78960000       8.25999000      -0.00324566      -0.00554610      -0.00108116
H       14.24570000      14.42490000       7.25286000      -0.00167718      -0.00298393       0.01064070
H       14.51190000      12.08800000       9.64857000       0.00410313       0.00433724      -0.00551351
O       10.11930000      11.00880000       3.27522000       0.00609879       0.00720153      -0.00024043
H        8.66270000       9.96145000       3.01529000      -0.00444930      -0.00309482       0.00008839
H        9.52483000      12.72580000       3.40009000      -0.00087286      -0.00315868      -0.00129258
O       22.93080000      15.56360000       8.63604000      -0.01452760      -0.00356359      -0.00898946
H       24.21950000      16.29810000       9.63597000       0.01236150       0.00554316       0.00647879
H       22.44670000      16.81950000       7.39721000       0.00052832      -0.00276627       0.00573611
O        5.03668000       3.74764000      11.47090000       0.00186002      -0.00752875       0.00041265
H        5.75802000       2.13539000      11.94710000      -0.00355907       0.00675404      -0.00067134
H        3.82191000       3.39035000      10.15210000      -0.00006348       0.00021210       0.00265681
O       15.12120000       8.49785000       1.78591000      -0.02736490       0.00475342       0.01671370
H       13.69200000       9.41067000       2.57338000       0.01461830      -0.01019510      -0.01187400
H       15.40710000       9.27598000       0.18791000       0.00657708       0.00485223      -0.00824872
O       21.33700000       2.53956000      18.45930000      -0.00225539      -0.00021364       0.00210334
H       20.59740000       4.04125000      19.21320000       0.00056197      -0.00296389      -0.00011060
H       20.15140000       2.13800000      17.13490000      -0.00555463      -0.00111393       0.00020031
O       14.81990000       8.00221000      16.73710000       0.00241126       0.00161153      -0.00277953
H       13.02000000       7.96496000      16.84990000      -0.00295649       0.00078781       0.00019920
H       15.21340000       7.26665000      15.10190000      -0.00131401      -0.00342745      -0.00118509
O       22.56800000      15.63400000      15.39750000       0.00235783       0.00049522       0.00209263
H       21.38590000      16.20750000      14.14300000      -0.00189217       0.00120527       0.00026101
H       24.20510000      15.55950000      14.60630000      -0.00241674       0.00147043      -0.00034499
O       12.43300000      23.90740000      11.80140000      -0.00081107       0.00127048       0.00229405
H       13.90360000      23.38720000      10.88190000       0.00019534      -0.00125012      -0.00090583
H       12.11980000      22.57000000      12.99380000      -0.00091631      -0.00290327      -0.00056210
O        8.12907000      23.50180000       8.19600000      -0.00139923       0.00039425       0.00118994
H        8.43619000      24.16863900       9.85712000       0.00173723       0.00047453      -0.00060544
H        9.82724000      23.17950000       7.65779000      -0.00018384      -0.00294680       0.00027099
O        2.16887000       9.87935000       5.83950000       0.01885520      -0.01312390       0.00806050
H        0.34913700      10.08100000       5.72795000      -0.01677510      -0.00507253       0.00136555
H        2.61457000       8.18486000       5.34024000      -0.00492645       0.00128855       0.00062118
O       12.09740000       6.63748000       8.64139000      -0.00163856       0.00039841      -0.00492439
H       10.34290000       6.82175000       9.01988000      -0.00255025       0.00213910       0.00139480
H       11.76270000      12.22120000       8.21744000       0.00750780       0.00259397      -0.00217682
O       11.61950000       3.39643000       4.53094000      -0.00364314       0.00544878       0.00280122
H       12.39560000       4.67604000       3.49618000       0.00306860      -0.00388466      -0.00008073
H       11.35380000       4.37793000       6.12259000       0.00936937      -0.00127135      -0.00081850
O       19.98540000       2.80150000       7.39000000      -0.00028164      -0.00344377       0.00853097
H       19.13200000       1.93483000       8.75126000       0.00432889       0.00458961      -0.00378842
H       19.25720000       4.48928000       7.32718000      -0.00161904       0.00014192      -0.00503575
O        9.66521000      18.89290000      13.70100000       0.00207071       0.00123887      -0.00239858
H        9.96150000      18.17370000      12.06520000      -0.00080551       0.00172289       0.00134853
H       10.42280000      17.65890000      14.81060000       0.00140838      -0.00022697       0.00222668
O       18.94250000      24.01990000       2.49202000       0.00988028       0.00849546      -0.00647713
H       19.65070000       1.21267000       2.85289000      -0.00835835      -0.01012680       0.00315306
H       19.68790000      23.56250000       0.86173800      -0.00786218      -0.00168703       0.00099012
O        9.88943000      17.93620000       6.77142000       0.02320770      -0.01369760       0.03579270
H        8.49286000      18.29790000       5.77409000      -0.02597600       0.00529588      -0.01844340
H        9.26515000      16.79670000       8.10938000       0.00535835       0.00722339      -0.01355120
O       15.26830000       5.21189000      11.81050000      -0.00417510      -0.00167262       0.00362590
H       14.83630000       3.51315000      12.28250000       0.00074858       0.00246659       0.00144378
H       13.73820000       5.78575000      10.67040000       0.00772119      -0.00030004      -0.00495523
O       20.01460000      18.26520000       4.64754000       0.00477574      -0.00873402      -0.00405119
H       20.63610000      19.96180000       4.77104000      -0.00158309       0.00299948      -0.00308993
H       21.08450000      17.40520000       3.39919000      -0.00266091       0.00225611       0.00202999
O       23.02310000      18.42000000      21.50480000      -0.00315355      -0.00056969      -0.00117636
H       23.06920000      17.61010000      19.87230000      -0.00058979      -0.00020525       0.00372225
H       22.88280000      17.10140000      22.84600000       0.00697877       0.00142170      -0.00629732
O        0.98483600       2.07092000       8.06776000       0.00500961       0.00014956      -0.00376546
H       23.63430000       2.20874000       7.90964000      -0.00309515      -0.00023987      -0.00037255
H        1.37354000       0.31512300       8.38479000      -0.00109748      -0.00413310       0.00025677
O       13.67300000      21.16280000       1.28577000      -0.01561100       0.01279550       0.00511771
H       12.37300000      20.82810000       2.59795000       0.01009070       0.00022035      -0.00044199
H       14.76150000      22.57620000       1.90497000      -0.00087349      -0.00406978      -0.00093366
O       18.17880000      11.86450000      10.51640000       0.00491031       0.00752303      -0.00080738
H       19.60400000      13.01750000      10.56550000      -0.00890247      -0.00469082      -0.00057239
H       18.78660000      10.35790000      11.32040000       0.00117340      -0.00317041      -0.00024181
O        3.64819000      17.08700000      13.12860000      -0.00174004      -0.00045948       0.00023816
H        3.90012000      18.08260000      14.62600000       0.00068782      -0.00347777       0.00329769
H        4.91358000      17.71160000      11.99090000      -0.00282966       0.00058705       0.00056653
O        8.73936000       2.33388000      23.67420000      -0.00756884       0.00495721      -0.00229915
H        9.08911000       3.48871000      22.31710000       0.00093337       0.00042364       0.00095304
H        9.00076000       3.29535000       0.73675800       0.00199885      -0.00287152      -0.00097908
O       14.14110000       1.82278000      21.75090000      -0.01638970      -0.00214361      -0.00751010
H       14.44430000       0.19517000      22.45790000       0.00748590       0.00228474      -0.00425581
H       12.64490000       1.58644000      20.67910000       0.01547040       0.00422156       0.00380571
O       23.08600000      15.13300000       0.81809200      -0.02238210       0.00904610       0.00318611
H       21.61570000      14.08190000       0.53367000       0.00885725      -0.00372198       0.00316754
H        0.10467000      14.13080000       1.77231000      -0.02177490       0.00810708      -0.01983900
O       17.90980000       6.31352000      20.87910000       0.00466306      -0.00055988       0.00210128
H       17.25870000       7.45827000      19.61190000      -0.00018116      -0.00101869      -0.00226477
H       16.59240000       5.06983000      21.05160000       0.00122701      -0.00115831       0.00133845
O       13.34770000      14.68760000      15.29510000      -0.00316561       0.00376484      -0.00177286
H       12.49140000      21.70140000      24.38610000       0.01338960       0.00261112       0.00761777
H       14.21400000      13.12040000      15.60100000      -0.00367332       0.00265962       0.00158466
O        0.70382700       8.47157000      19.50920000      -0.00074502       0.00584928       0.00119522
H        0.55627000       7.54630000      21.06810000      -0.00211369       0.00046196      -0.00122816
H        1.81660000       9.89186000      19.88380000       0.00140586      -0.00245948      -0.00134974
O       17.32030000       0.64394300      15.11310000       0.00366799      -0.00122883      -0.00114786
H       18.22080000       0.80587000      13.54140000      -0.00121155      -0.00339264       0.00180474
H       17.10490000      23.31320000      15.34920000      -0.00250752       0.00428766       0.00180567
O        3.05898000       1.89699000      21.50700000      -0.00560136       0.00277666      -0.00751533
H        2.58956000       2.96296000      20.08770000       0.00361798      -0.00389547       0.00389444
H        4.64546000       2.53882000      22.10420000       0.00329071      -0.00152899       0.00058327
O       22.96490000       7.72120000      10.90040000       0.00175056       0.00516512       0.00287360
H       24.27840000       8.39575000       9.84369000      -0.00135620      -0.00176586       0.00058940
H       22.75520000       6.00095000      10.39700000       0.00014684      -0.00219399      -0.00195402
O       15.20640000      16.61460000       6.31681000       0.00442268      -0.00368706      -0.00359916
H       14.17400000      18.05660000       6.68165000      -0.00117466       0.00230212       0.00156299
H       16.94560000      17.10870000       5.93300000      -0.00242928       0.00035789       0.00221253
O       10.82170000       2.27225000      17.02950000       0.00856178       0.00684419       0.00416862
H        9.64139000       1.09940000      16.30100000      -0.00551964      -0.00467115      -0.00246623
H       12.29720000       2.25299000      15.95840000      -0.00322770      -0.00135204       0.00200779
O        5.91388000       7.93434000       1.07401000       0.00287929      -0.00070268       0.00343704
H        5.81319000       7.53942000      23.77770000      -0.00078827       0.00094491      -0.00098629
H        5.04503000       6.57536000       1.94569000       0.00091317      -0.00061764      -0.00143490
O        8.34672000      14.03810000      10.27830000       0.00724060       0.00323865       0.00690825
H        9.06700000      13.54020000      11.89140000      -0.00033008       0.00330732      -0.00514913
H        6.58956000      13.66780000      10.50290000      -0.00215660      -0.00487951      -0.00153727
O        3.12282000       4.79282000      16.21910000      -0.01222580       0.01518660       0.03934310
H        1.73162000       5.99777000      16.32960000       0.01139570      -0.00923239      -0.00156467
H        3.43075000       4.37254000      14.52600000       0.00185938      -0.00379946      -0.03151640
O        6.71044000      23.81950000      15.22900000      -0.02145980      -0.00013193       0.00748354
H        6.74774000      22.00420000      15.11320000       0.00786070      -0.00153272      -0.00131619
H        5.12828000      24.13180000      16.13890000       0.01479870       0.00098372      -0.01003040
O        8.85496000      22.08280000       1.69561000      -0.01362490      -0.00213975       0.00267745
H        7.61937000      22.28770000       0.35907200       0.00574789       0.00007330       0.00207618
H        8.31411000      23.32070000       2.93131000       0.00539918      -0.00214363      -0.00198994
O        0.54499400      22.70140000      16.93790000       0.00169106       0.00284374       0.00081335
H       23.54900000      23.74587100      16.70100000      -0.00029907       0.00078056      -0.00242790
H        1.33733000      23.54840000      18.33200000       0.00071633      -0.00177432       0.00152427
O       15.27170000      20.52340000      18.24630000       0.00235063       0.00471973      -0.00354286
H       16.06830000      21.41960000      19.60340000       0.00210639      -0.00315745       0.00086793
H       14.18840000      19.20350000      18.93900000      -0.00302864      -0.00492710       0.00122409
O       15.49660000      23.24230000       6.63377000      -0.00195567       0.00467712      -0.00192056
H       14.86320000       0.49377000       6.63324000      -0.00297126      -0.00278308      -0.00272621
H       17.23930000      23.45330000       6.13628000      -0.00335930      -0.00200488      -0.00064703
O       14.33200000      15.88040000       0.38547400       0.00240525       0.00050266       0.00138174
H       15.28660000      14.53340000       1.14290000      -0.00354534       0.00008063       0.00117628
H       15.24970000      17.38770000       0.79835800       0.00011144      -0.00592714      -0.00052175
O       20.43110000      11.47560000      18.39730000       0.01140590      -0.00066778       0.00084447
H       21.93050000      10.42960000      18.56470000      -0.00396208      -0.00108439       0.00043314
H       21.04240000      12.92700000      17.46090000      -0.00317380      -0.00187990      -0.00028800
O       21.89810000      11.13460000       5.26490000       0.00339076      -0.00358152      -0.01003060
H       20.41700000      10.12120000       5.55641000      -0.00701730      -0.01050140       0.00301844
H       21.75010000      12.53020000       6.37779000       0.00219773       0.01086310       0.00983852
O        2.91343000      20.99930000      23.12800000      -0.00626347      -0.03571510       0.00248929
H        2.79381000      22.64920000      22.47340000      -0.00385869       0.02497700      -0.00728281
H        1.49313000      20.01760000      22.36770000       0.00869057       0.01165980       0.00744387
O       19.45250000      22.55340000      21.96170000       0.00090163       0.00857814      -0.00831784
H       20.24770000      20.96030000      21.54380000       0.00823069       0.00081544       0.00094849
H       20.19170000      23.82080000      20.82950000      -0.00476018      -0.00676338       0.00679350
O        7.54389000       9.00907000      12.50850000      -0.00489769      -0.00234040       0.00069706
H        6.59430000       7.45454000      12.54340000       0.00208449       0.00227611      -0.00230711
H        9.27317000       8.48324000      12.45310000       0.00261629      -0.00135932      -0.00066646
