192
Lattice="23.21047 0.0 0.0 0.0 23.21047 0.0 0.0 0.0 23.21047" Properties=species:S:1:pos:R:3:force:R:3 TotEnergy=-1103.93271 cutoff=-1.0 nneightol=1.2 pbc="T T T"
O       13.62960000       0.00175400      17.50610000      -0.01488110       0.00635080       0.00158749
H       14.97420000      22.34586700      16.69720000       0.01189000      -0.00989530      -0.00673066
H       14.43490000       1.53307000      18.12820000       0.00359870       0.00482059       0.00078051
O       17.64510000       3.73373000       6.29702000       0.00468552       0.00057571       0.00216469
H       17.94220000       4.96451000       4.99446000      -0.00226070      -0.00206583       0.00480803
H       19.25800000       2.85998000       6.43488000       0.00038396       0.00065039      -0.00041225
O        1.11604000       7.21117000      10.19750000       0.00016091      -0.00244154       0.00507643
H        0.26600500       5.86780000      11.10680000       0.00019840      -0.00563581       0.00530380
H       23.20279800       8.67499000      10.28750000       0.00259212       0.00508851      -0.00515133
O        4.78174000      22.16790000      13.49860000       0.00004144      -0.00385080      -0.00631179
H        3.19067000      21.50280000      12.87090000      -0.00178718       0.00616413       0.00368318
H        4.72595000       0.78483000      13.31080000      -0.00290890      -0.00284862       0.00097601
O       16.82510000      12.43480000      19.89170000      -0.00172680       0.00307496      -0.00236456
H       18.13760000      11.36490000      20.61700000      -0.00125840      -0.00134384       0.00650736
H       15.48380000      12.57740000      21.11350000       0.00060727      -0.00577488      -0.00567474
O        6.96593000      15.35080000       9.57987000      -0.00390366      -0.00641998       0.00112617
H        8.29988000      15.51990000      10.87140000       0.00093828       0.00013371       0.00108706
H        5.45818000      15.89670000      10.43210000       0.00002786      -0.00103281      -0.00293568
O       13.88320000       3.82536000       2.20756000       0.00040368       0.01371470       0.00115763
H       13.33500000       5.55705000       2.62376000      -0.00127654      -0.02432550      -0.00583165
H       13.61620000       2.64791000       3.62761000      -0.00188700       0.00922157      -0.00224136
O        3.36788000       0.74868600       7.90530000       0.00171829      -0.00342110       0.00377894
H        4.90316000       0.90422400       6.83346000       0.00189033       0.00031815       0.00099576
H        3.64101000       1.72513000       9.41436000       0.00723669      -0.00127838      -0.00297838
O        7.72482000       1.74791000       5.26191000      -0.01724950       0.02878330       0.00038230
H        7.48661000       3.44365000       2.80060000      -0.01140750       0.00555230      -0.00785284
H        7.51600000       3.38019000       6.11592000       0.00875827      -0.01766490      -0.00444440
O        8.50503000      14.54780000      22.89116600      -0.00086735       0.01240330       0.00566702
H        7.37753000      14.31340000       1.08460000       0.00506548       0.00470709      -0.00456392
H        8.86500000      16.35610000      22.82070600      -0.00209511      -0.01334790       0.00214060
O       22.54220000      18.57970000      19.81080000      -0.00252183      -0.00039232      -0.00769544
H       21.79070000      17.04160000      19.07770000       0.00075058       0.00410566       0.00264142
H        1.11633000      18.31860000      19.50320000       0.00291079      -0.00239759      -0.00007401
O       18.62390000       6.43632000      14.51400000       0.00324873      -0.00178977      -0.01124730
H       17.76470000       5.86922000      16.02550000       0.00159415      -0.00387112      -0.00203343
H       19.77330000       5.13345000      13.84100000      -0.00735730       0.00920043       0.01680730
O        6.03328000       9.53795000      16.82470000       0.00011851      -0.00544526      -0.00280896
H        5.48255000       8.18274000      17.88910000       0.00481928      -0.00059926      -0.00119790
H        4.78250000      10.88400000      17.26960000       0.00430084      -0.00521033       0.00128999
O       12.19770000       0.78149000       5.88333000       0.00939752      -0.00589298       0.00045296
H       12.80660000      22.36726700       6.44645000      -0.00519475       0.00911005      -0.00573404
H       10.21960000       0.94411000       5.67978000       0.00049394       0.00124126       0.00506316
O       10.19510000      15.72460000      13.39370000      -0.00084927       0.00209444       0.00083442
H       11.98060000      16.16260000      13.17620000      -0.00502467       0.00048240       0.00080449
H       10.19400000      14.10120000      14.24850000       0.00162029      -0.00376469       0.00182108
O       19.20790000      14.24380000       5.60692000       0.00199314       0.00596989      -0.00048375
H       19.63400000      15.82180000       4.76036000      -0.00529677       0.00019085       0.00419566
H       17.59380000      14.52190000       6.39583000       0.00088413      -0.00233537       0.00236580
O       15.44460000       8.89318000      11.18390000       0.00393073      -0.00882899      -0.00131253
H       15.14400000       7.59282000       9.91131000      -0.00086206       0.00670274       0.01405180
H       16.77990000       8.25455000      12.32760000      -0.00967471       0.00221596      -0.00786720
O        0.90202000       6.09879000      17.84690000      -0.01490080       0.01203150      -0.01121290
H       22.58271200       5.92059000      18.79220000       0.00181222       0.00018495       0.00005046
H        2.23665000       5.34214000      18.74920000       0.01589800      -0.01092620       0.01552030
O       16.31920000       2.36170000      11.35420000       0.00280687       0.00641940       0.00176966
H       15.95870000       3.37359000      12.82300000       0.00247753       0.00088040      -0.00770840
H       16.48290000       3.44579000       9.88827000      -0.00012123      -0.00091176       0.00349344
O       16.08900000      22.42893500       0.97205600       0.03279150       0.01941530       0.00976124
H       17.74050000      22.83369200       1.78148000      -0.02856790      -0.00901293      -0.01832620
H       15.52260000       0.90561700       0.49939600      -0.00330095      -0.01189900       0.00350246
O       12.70320000       5.41295000       7.97708000      -0.00095265      -0.00368209      -0.00759462
H       12.82330000       3.68975000       7.27240000       0.00018223       0.00412220       0.00534638
H       10.97520000       5.93076000       7.60804000       0.00138227      -0.00231248       0.00452685
O        8.51517000       0.23363000      18.38850000       0.00498075      -0.00715144       0.00657085
H       10.27010000       0.19963000      17.84830000      -0.00115071      -0.00357173      -0.00108589
H        7.91575000      21.69330000      18.21820000       0.00642962       0.00713859      -0.00580718
O        9.57491000      21.49350000      10.84080000      -0.00188987      -0.00043225      -0.00733928
H        8.77692000      21.09820000       9.24585000       0.00096099       0.00349947       0.00250722
H        8.17770000      21.92070000      11.92760000      -0.00135463      -0.00096852       0.00065771
O       20.57910000       9.87470000      22.11940000       0.00784527       0.00133775       0.00189075
H       20.52670000       8.06367000      21.96240000      -0.00642124       0.00293483       0.00479663
H       20.45210000      10.13020000       0.72813000      -0.00120849      -0.00497687      -0.00338952
O       19.15350000      19.19600000       4.34852000      -0.00355636       0.00060634       0.00872116
H       17.53060000      19.84640000       3.90368000      -0.00439557      -0.00074777      -0.00100514
H       20.43050000      19.59010000       3.07988000       0.00568420      -0.00270463      -0.00225982
O       14.76140000      21.05180000      10.53470000      -0.01109750      -0.00660023      -0.00770718
H       15.56600000      22.70020000      10.73390000       0.00251192       0.00374830       0.00397767
H       12.95930000      21.41580000      10.62780000       0.00094534      -0.00068211       0.00396127
O        5.70492000       9.18715000      11.03830000       0.00677960       0.01308380      -0.00012360
H        3.91738000       8.89473000      11.22910000      -0.00541532       0.00273704      -0.00188486
H        5.87702000      10.93760000      10.55000000      -0.00034060      -0.00469137       0.00391195
O       15.59900000       4.54633000      18.67600000       0.00110687      -0.00304489      -0.00069121
H       13.88450000       5.08007000      19.09580000       0.00549681       0.00247640      -0.00046438
H       16.65590000       4.64195000      20.19570000      -0.00502967       0.00289238       0.00047480
O       14.15380000      13.37560000       8.91915000      -0.00114565      -0.00375901      -0.00378603
H       14.07480000      14.49260000      10.34980000       0.00216451       0.00402626      -0.00035120
H       14.62810000      11.78770000       9.74431000       0.00369389      -0.00129717      -0.00057838
O       18.58010000      20.56980000      16.66930000       0.00106816      -0.00009643       0.00165987
H       19.96030000      20.99330000      17.78760000      -0.00386744      -0.00406467       0.00228944
H       17.90760000      19.01650000      17.38100000       0.00383566       0.00526830      -0.00259399
O        5.74836000       4.14537000      17.78860000      -0.00836656       0.00557789      -0.00089425
H        5.30012000       4.57637000      16.07720000       0.00300425      -0.00163354      -0.00093637
H        6.43644000       2.42936000      17.68390000       0.00365121       0.00162649       0.00573767
O       20.01100000       9.66042000       4.22229000      -0.00076526       0.00686027      -0.00155523
H       18.22150000       9.30338000       4.50734000       0.00059696      -0.00581763      -0.00027332
H       19.99030000      11.47980000       4.59283000       0.00094529      -0.00297925       0.00024527
O        5.49294000      18.90160000       1.33230000      -0.00395725      -0.00439308       0.00859705
H        6.24241000      18.65180000       3.02901000      -0.00357441      -0.00019294      -0.00717623
H        6.15875000      20.53910000       0.92120200       0.00539706       0.01052450      -0.00537332
O        7.18482000       4.79105000       1.28703000       0.00452395      -0.01036510       0.01995500
H        5.55514000       5.86350000       1.36869000       0.00494135      -0.00897132       0.00039422
H        8.62716000       6.00013000       1.27934000       0.00132009       0.00062772       0.00263984
O       10.08430000       3.74953000      13.36550000       0.00500307      -0.00154947       0.00038307
H       10.98480000       2.95362000      14.74030000      -0.00522764       0.00320883      -0.00362691
H       10.76040000       3.02255000      11.84880000       0.00592576      -0.00023041      -0.00211331
O        5.16793000       3.84083000      12.35850000       0.00965657       0.00416928      -0.00270845
H        4.33386000       5.35819000      11.77450000       0.00736009      -0.00617314       0.00529692
H        7.03538000       4.07346000      12.55980000      -0.01730000       0.00313827      -0.00059396
O       11.78490000      11.50130000      20.71260000       0.00138425      -0.00284917      -0.00269832
H       10.34750000      12.39460000      21.42060000       0.00189476       0.00458214      -0.00149686
H       11.54180000      11.48190000      18.89310000      -0.00025230       0.00142031       0.00122872
O       22.49070000       2.02060000       5.63871000       0.00228440       0.00477356      -0.00084289
H       22.95650000       3.74222000       5.17830000      -0.00141355       0.00143669       0.00135001
H        0.75083000       1.54995000       6.72067000      -0.00463182      -0.00189316      -0.00992094
O       22.91940000       3.76744000      13.61930000       0.00307541       0.00110839      -0.00727091
H        0.72063000       4.58242000      14.97370000      -0.01410750      -0.01575700      -0.00502282
H        0.06583000       1.99233000      13.32750000       0.00041034       0.00337921       0.00883055
O       23.14632000      19.01060000       1.63182000       0.01414520       0.00095191      -0.00517819
H        1.76110000      18.90850000       1.94548000      -0.01437930       0.00315580      -0.00708294
H       22.87720500      19.09340000      22.99563700       0.00328084      -0.00678374       0.00988539
O        8.98553000      11.57470000       4.59782000      -0.01615820      -0.00386662       0.00652228
H        9.12389000      12.37400000       6.22522000      -0.00045319       0.00548924      -0.00143511
H        7.20966000      11.12270000       4.42581000       0.01252890       0.00602339       0.00039341
O       10.63470000       5.85804000      18.92220000      -0.00199777       0.00236752       0.00427522
H       10.62210000       7.61975000      18.46990000      -0.00373353      -0.00370386      -0.00136388
H        8.90458000       5.24000000      18.72210000       0.00398767       0.00352097      -0.00181455
O        7.72451000       6.84103000       7.11949000       0.00345332       0.00033974       0.00018804
H        8.09636000       8.59922000       6.82503000       0.00249347      -0.00761039      -0.00540791
H        6.88610000       6.93398000       8.74192000      -0.00079584       0.00516097       0.00117636
O       22.54480000      11.73480000       9.64071000      -0.00223744       0.00605087      -0.01126270
H       21.97330000      12.85980000      10.93290000      -0.00347068       0.00481908       0.01468230
H       21.64370000      12.50750000       8.24863000       0.00252007      -0.00754936      -0.00359851
O       10.55040000      10.86690000      15.70620000       0.01211640      -0.00390599      -0.00574070
H       11.67280000       9.69738000      14.84820000      -0.00868474       0.00670603      -0.00075252
H        8.84369000      10.09580000      15.90770000       0.00032556       0.00231099      -0.00164213
O       12.23770000      19.34430000      22.13960000       0.00108585       0.01025540       0.00239639
H       11.85920000      21.09510000      21.73090000      -0.00008535      -0.01419770       0.00435855
H       13.60280000      19.50730000       0.14623000      -0.00538589       0.00164628      -0.00649395
O       18.35910000       4.94404000      23.03893900       0.00571323      -0.00283128      -0.00517633
H       16.90950000       4.71312000       0.91021700      -0.00848774       0.00034786       0.00337564
H       19.43190000       3.46315000       0.11152500       0.00368759       0.00651656      -0.00356908
O        2.77064000      12.15790000      18.82020000      -0.02062860      -0.00468295       0.00182026
H        3.11665000      13.90870000      19.30820000      -0.00342802      -0.00012265      -0.00180391
H        1.00900000      11.95530000      18.32540000       0.00985190       0.00805626       0.00587354
O        8.47794000       0.11505800       0.51642700       0.00043587      -0.01566240      -0.00495938
H        9.18652000       0.66657700      22.14428000      -0.00413710       0.00185613       0.00338657
H        9.67577000       0.27748500       1.86902000       0.00015319       0.00264463      -0.00510187
O        7.77982000      18.75990000       5.76851000       0.00148497       0.00149898       0.00497251
H        7.47051000      17.45900000       7.04425000       0.00529231       0.00224540      -0.00133645
H        9.57887000      19.04460000       5.64315000      -0.00165385      -0.00496297       0.00111182
O       21.65440000       1.31627000       0.48944900       0.00945856      -0.00498718       0.00059458
H        0.10433000       1.20562000      22.96252500      -0.00684770      -0.00091085      -0.00134167
H       21.99210000       1.12874000       2.28209000       0.00249907       0.00029865       0.00681336
O        4.19255000      16.71650000      19.79000000      -0.00520342       0.00991728       0.01141890
H        5.41487000      17.30980000      18.55130000       0.00271190       0.00248716      -0.00037565
H        4.72421000      17.32740000      21.44630000       0.00075773      -0.00431162      -0.00498508
O       15.19180000      16.89610000      12.88670000       0.00124676       0.00256704       0.01515440
H       15.16960000      18.63490000      12.13520000       0.00044440      -0.00317046       0.00466790
H       15.18630000      17.10950000      14.75630000      -0.00233842      -0.00166945      -0.01542790
O        3.30935000       7.29161000       0.93806900      -0.00145088       0.03182600      -0.02170500
H        2.13455000       7.42490000       2.36343000       0.00343662       0.00055930       0.00823391
H        3.50301000       8.97322000       0.13986100      -0.00814761      -0.02552100       0.00953648
O        7.07726000      19.11040000      16.49600000       0.02499630      -0.02188710      -0.03643580
H        5.97479000      20.07630000      15.34160000       0.00407127       0.00306703       0.00881893
H        8.39625000      18.39940000      15.28510000      -0.02376200       0.00609782       0.02955780
O       13.37700000      18.32890000       5.98039000       0.00034027      -0.02236420       0.00822665
H       13.00390000      16.56530000       5.51949000       0.00812033       0.02106270       0.01011210
H       14.04980000      18.28940000       7.71607000      -0.00623512       0.00081044      -0.02151030
O       14.49840000      17.40210000      18.00100000      -0.00494584       0.00423193       0.00269346
H       13.80690000      18.77800000      19.01340000       0.00207308      -0.00433454      -0.00276278
H       13.84660000      15.96480000      18.89280000       0.00532959      -0.00540060      -0.00323677
O       20.18020000      15.63450000      12.12740000       0.00028759      -0.00060017       0.00265877
H       21.04890000      17.15950000      11.67240000      -0.00136424      -0.00073869      -0.00219849
H       18.37110000      15.99950000      12.14130000       0.00289017       0.00116007       0.00073943
O       22.38640000      19.63910000       8.31874000      -0.01440310       0.00224385      -0.00622938
H       20.89260000      19.60600000       7.19359000       0.01324700      -0.00057658       0.00507428
H        0.30333000      20.82490000       7.53352000       0.00302336      -0.00183738      -0.00061893
O        0.90931800       7.07938000       5.23542000      -0.00778226       0.00634689      -0.00205246
H       22.59570800       8.17350000       5.32547000       0.00618819      -0.00985764      -0.00369894
H        1.59235000       7.02445000       6.94609000      -0.00469626       0.00117655      -0.00247583
O       14.99510000       9.03466000       4.99861000      -0.00321736      -0.00260072       0.00080532
H       14.37410000       7.57449000       5.94899000      -0.00116840       0.00240613       0.00164898
H       14.29960000      10.46980000       5.86138000       0.00124439       0.00043753      -0.00107898
O       20.72710000      14.31660000      17.28900000      -0.00686636      -0.00048631      -0.00679186
H       20.47630000      14.59970000      15.48320000       0.00323410       0.00096130       0.00846654
H       19.10140000      13.71920000      17.96000000       0.00751656       0.00508984      -0.00106060
O       10.85950000       7.87929000       1.08607000      -0.00148291       0.01143820       0.00211332
H       11.05130000       8.01306000      22.48683100       0.00536100       0.00297628       0.00062991
H       10.97540000       9.60016000       1.71354000      -0.00125162      -0.01187060      -0.00094341
O       22.94530000      21.51470000      12.92390000      -0.01469960       0.00092794       0.00126450
H       21.63820000      21.02350000      14.12630000       0.00625401       0.00270812      -0.00550270
H       22.22200000      21.19140000      11.23940000       0.00675465      -0.00239942       0.00540585
