192
TotEnergy=-1103.30927000 cutoff=-1.00000000 nneightol=1.20000000 pbc="T T T" Lattice="24.38539000       0.00000000       0.00000000      -0.00000100      24.38539000       0.00000000      -0.00000100      -0.00000100      24.38539000" Properties=species:S:1:pos:R:3:force:R:3:Z:I:1
O              20.45510000      1.76113000    -32.14240000      0.04413440      0.06100020      0.05538850       8
H              21.06090000      2.33204000    -30.29320000     -0.01103580     -0.01015860     -0.05406510       1
H              19.53270000      0.34845000    -31.77430000     -0.04103580     -0.04797470      0.00563343       1
O              45.19090000     44.82090000     10.28010000     -0.06339580     -0.01149900      0.15252400       8
H              46.39340000     44.53590000      9.25976000      0.12418100     -0.02912280     -0.11346100       1
H              43.87480000     45.61590000      9.59086000     -0.06101890      0.04073140     -0.04166700       1
O              13.54930000     -1.00634000     20.31240000     -0.02722300      0.00836676      0.02130770       8
H              12.17270000     -1.88946000     19.49710000     -0.02245440     -0.00794530      0.01402040       1
H              14.67680000     -1.17224000     18.98580000      0.05136830     -0.00185001     -0.02837730       1
O              -3.69351000     -9.38432000      0.11208800      0.02746650      0.01506220      0.07945900       8
H              -3.22506000     -7.65900000     -0.43974300     -0.01055030     -0.00940508     -0.00036917       1
H              -3.28720000     -9.29938000      2.11912000     -0.02015280     -0.00492765     -0.07117590       1
O               5.03833000     33.56600000     20.53800000     -0.16143200     -0.18416900      0.15164100       8
H               5.74381000     34.62760000     19.74150000      0.13128800      0.23154600     -0.16529300       1
H               6.31932000     32.39620000     20.65470000      0.02595230     -0.04086870      0.00754241       1
O              -1.64894000     12.60520000      9.70896000      0.05845470      0.05676810     -0.01967970       8
H              -0.81419700     11.71290000      8.13000000     -0.01664890      0.02852350      0.04672280       1
H              -0.56011600     14.43650000     10.20350000     -0.03429060     -0.08061160     -0.03319210       1
O              38.06600000     23.05110000     12.22720000     -0.00924877     -0.05780090      0.01649290       8
H              38.86390000     22.82970000     10.54900000     -0.00559848     -0.00428796      0.01301800       1
H              37.52710000     21.22380000     12.96330000      0.00836042      0.05084480     -0.03135910       1
O              -0.57746600    -24.24600000     13.20400000     -0.05843400     -0.03308950     -0.03341120       8
H              -1.56485000    -25.19120000     11.79450000      0.03946500      0.02565760      0.03760040       1
H              -2.02909000    -24.01080000     14.38770000      0.02540710      0.00794388     -0.00650555       1
O              32.66110000    -36.55790000     17.41950000     -0.01588200      0.00920641     -0.00238995       8
H              33.69350000    -38.06620000     17.26580000      0.00305988      0.01853730      0.01732480       1
H              33.11220000    -35.27900000     18.74530000      0.00446092     -0.03127260     -0.01691490       1
O               8.65088000    -26.52490000    -22.23070000     -0.08855260     -0.07010510      0.03314330       8
H              10.22660000    -26.37640000    -22.74560000      0.10685500      0.01821310     -0.03793570       1
H               7.81883000    -25.00300000    -22.22050000     -0.01320520      0.05582480      0.00752618       1
O             -12.16730000      2.62211000      6.16948000      0.02631170      0.01405660     -0.02077570       8
H             -13.90440000      2.51196000      5.71164000     -0.01171670     -0.00149423     -0.00917257       1
H             -11.37530000      3.41675000      4.61217000     -0.01025260     -0.01397230      0.02559730       1
O             -10.92950000     33.77210000     51.37210000      0.00133425      0.05675640     -0.01197480       8
H              -9.51038000     34.55700000     50.19460000     -0.03465430     -0.01401330      0.02484150       1
H             -12.39250000     35.08250000     51.41820000      0.03754300     -0.03923550     -0.00710492       1
O              15.97510000    -30.32320000    -19.80230000     -0.01278350     -0.01044960      0.00864952       8
H              17.69700000    -31.18650000    -19.71170000     -0.04046470     -0.01600110      0.00617483       1
H              14.56290000    -31.49090000    -19.20810000      0.04746700      0.02670100     -0.01382130       1
O              26.11020000     17.31120000     34.21620000     -0.06306310     -0.00159996     -0.22625500       8
H              27.32150000     17.72810000     32.71060000     -0.03531650     -0.01469560      0.06095070       1
H              26.81690000     17.39220000     35.63650000      0.09340730      0.01380850      0.16593900       1
O              -2.04703000      3.77183000     -3.26586000     -0.06306290      0.01683260     -0.02093740       8
H              -0.75777900      4.68593000     -4.04995000      0.00801643      0.05729240     -0.04649600       1
H              -0.76711500      2.91352000     -2.57160000      0.04740630     -0.07916100      0.06772100       1
O             -27.75930000     20.44880000     28.57880000     -0.08152220     -0.00694274     -0.00104721       8
H             -29.74200000     20.68510000     28.81920000      0.07877570     -0.00339578     -0.01296700       1
H             -27.03270000     21.96890000     29.16890000      0.00923726      0.02069010      0.00892220       1
O             -31.77760000     11.44630000     23.75180000     -0.05335800      0.02345630     -0.02399950       8
H             -33.36450000     12.35630000     22.47830000      0.08604910     -0.02659410      0.04023170       1
H             -30.42990000     12.58100000     24.46500000     -0.03095830      0.00097886     -0.02597530       1
O             -15.78830000     60.96030000    -21.51650000     -0.06220040     -0.00139784     -0.09694140       8
H             -15.86770000     60.83870000    -19.80830000     -0.00572853     -0.00472793      0.07345600       1
H             -17.71990000     60.70600000    -22.23280000      0.06204040     -0.00481420      0.02868760       1
O              65.46660000     21.92370000     40.80930000      0.01873810     -0.01175910      0.01006600       8
H              64.46490000     22.02290000     39.33740000     -0.01362780      0.01721950     -0.01898630       1
H              66.42940000     20.42060000     40.41800000      0.00561246     -0.00187613      0.01123250       1
O              55.99020000    -21.74810000      3.47300000     -0.00755615      0.03251260     -0.05360100       8
H              55.11480000    -22.17490000      4.98115000     -0.02432030     -0.00304060      0.00640731       1
H              54.89040000    -20.66340000      2.23346000      0.02814240     -0.02457940      0.04083940       1
O              32.56950000     17.38090000    -14.00240000      0.02789750      0.04248270      0.06980840       8
H              32.70740000     15.71030000    -14.50750000      0.00136533     -0.04418330     -0.01902410       1
H              33.51840000     17.43940000    -12.29630000     -0.02350150      0.00126191     -0.04955760       1
O             -10.52200000      6.99462000     62.21730000      0.04212960     -0.02307930     -0.01195660       8
H             -11.45860000      5.59259000     61.35210000      0.01256260      0.01211350      0.01353050       1
H              -8.56717000      6.58732000     62.07410000     -0.05556220      0.00593426      0.00295871       1
O               6.51104000      4.35607000     -4.72973000     -0.02718020     -0.03080320     -0.07061950       8
H               8.20753000      3.83780000     -4.46089000      0.01549400     -0.00295896      0.00913645       1
H               5.94280000      3.51175000     -6.48257000      0.01111530      0.02943910      0.06505120       1
O              43.63190000      6.66418000     24.37510000     -0.01949620     -0.01338490      0.05436470       8
H              42.90810000      8.23578000     23.92280000     -0.00215695      0.01795760     -0.02368780       1
H              44.65830000      5.77345000     23.24480000      0.01628490     -0.00229296     -0.02840500       1
O               0.65821300     57.91730000     30.64450000     -0.05381860     -0.02856060      0.01621670       8
H              -0.94415500     56.81670000     30.28720000      0.04501650      0.03586330      0.00255409       1
H               1.79034000     57.88270000     29.24880000      0.00328800      0.00136777     -0.01988810       1
O               8.74900000     36.94040000      8.16676000     -0.02822020     -0.00817803     -0.00103065       8
H               7.35032000     35.82170000      8.53994000     -0.01566870      0.00524872     -0.01063950       1
H               9.74511000     36.22660000      9.47434000      0.03954210      0.00077219      0.01016000       1
O             -15.07830000     20.87730000     18.72660000      0.08424720     -0.07287580      0.05788080       8
H             -16.54180000     21.50600000     18.18490000     -0.09113710      0.03060880     -0.02568770       1
H             -15.36640000     19.30540000     19.83930000      0.00597564      0.04230230     -0.03553430       1
O              27.91650000     34.60710000     50.27950000     -0.00864270      0.04796700      0.00834246       8
H              26.97490000     35.90860000     49.17610000      0.02016820     -0.04623530      0.01137650       1
H              28.60130000     33.16070000     49.41690000     -0.01308040      0.00175219     -0.01334900       1
O              12.17180000     32.85250000     18.45370000     -0.00722483     -0.02951110      0.02975190       8
H              12.33410000     32.10690000     16.80680000      0.01002690     -0.00695781     -0.00797767       1
H              12.20190000     31.40820000     19.72370000     -0.00152842      0.02706120     -0.02630260       1
O               0.82730500    -23.39440000     24.76830000     -0.03328430      0.02699460      0.05835140       8
H              -0.25679100    -22.74920000     26.37380000      0.04759830     -0.03533760     -0.05446770       1
H               1.86645000    -24.87730000     25.18790000     -0.01296110      0.00604065     -0.00081099       1
O               4.05553000     17.03970000     -3.26293000      0.10407900      0.03114980     -0.04268610       8
H               5.70310000     16.04260000     -3.32764000     -0.04495550      0.02552040      0.00695159       1
H               2.88842000     16.05210000     -2.54462000     -0.05949720     -0.06276710      0.03478470       1
O               3.20369000      2.52564000     15.72480000     -0.02853140      0.06439270      0.02618570       8
H               1.96999000      1.70034000     14.73210000     -0.00808635     -0.02994820     -0.02732930       1
H               1.93589000      4.08951000     16.15530000      0.04871080     -0.03468910      0.00627777       1
O             -37.33710000     52.53500000    -27.02390000      0.03004650      0.03128870      0.05625320       8
H             -36.89140000     50.93110000    -27.59390000      0.00961592     -0.03439040     -0.02073660       1
H             -36.15280000     52.58370000    -25.42190000     -0.03690170      0.01386220     -0.03813430       1
O               4.23289000     49.48630000    -17.07240000      0.01182510      0.04371430      0.02880940       8
H               4.63820000     50.89350000    -15.82480000     -0.00955362     -0.03911020     -0.01627080       1
H               4.96789000     47.87950000    -16.49050000     -0.00084322      0.00576076     -0.00430732       1
O             -32.43290000     35.21220000      6.69908000     -0.03415780     -0.01863570     -0.03358630       8
H             -33.79580000     34.44500000      5.23701000      0.04042350      0.02622330      0.03399860       1
H             -31.01290000     34.01980000      6.58592000     -0.00872342      0.00386677     -0.00263238       1
O              20.91900000     35.52190000     14.03960000     -0.06179820      0.01720230      0.02059900       8
H              19.62290000     36.85770000     14.41860000      0.02608900     -0.02957150     -0.00572585       1
H              21.47410000     35.92490000     12.35370000      0.01661900      0.00451655     -0.02192160       1
O             -13.30390000    -21.37050000     11.35170000      0.00532081      0.00777886     -0.01198370       8
H             -12.83390000    -20.84940000      9.58543000      0.00013885     -0.02497310      0.02583310       1
H             -12.46420000    -22.96770000     11.92940000     -0.00490550      0.01466370     -0.01997850       1
O             -47.83560000      6.29187000     17.92520000      0.03337160     -0.06406370      0.02554800       8
H             -48.33150000      7.80056000     17.29820000     -0.05313510      0.07801690     -0.03842320       1
H             -46.48610000      7.13220000     18.79790000      0.02371900     -0.01029630      0.02023170       1
O             -19.66810000    -15.46970000     34.44330000     -0.02415910     -0.01938760      0.01355000       8
H             -19.82070000    -17.24630000     35.03680000      0.01571220      0.01628260     -0.01385560       1
H             -21.32370000    -15.15210000     33.69680000      0.00896824      0.00041392     -0.00446763       1
O              19.34370000     15.08090000     29.99580000     -0.02581900     -0.05677360      0.02596460       8
H              20.36710000     15.58950000     31.39970000      0.00487614     -0.00418020      0.00108867       1
H              18.29870000     13.36450000     30.71400000      0.02450800      0.05267180     -0.03090490       1
O             -20.20890000     -2.27503000     42.02850000     -0.00037690     -0.00873984      0.06426560       8
H             -20.44460000     -2.25802000     43.95460000      0.00545108     -0.01131780     -0.04427770       1
H             -20.52250000     -0.53085400     41.74690000     -0.00521182      0.01992740     -0.01753280       1
O              43.75260000      3.25148000     32.80260000     -0.04761090     -0.06467240     -0.06372310       8
H              43.00700000      3.77775000     34.27560000     -0.00699548      0.02888990      0.05409920       1
H              42.27660000      1.97416000     32.28940000      0.05742900      0.03358510      0.00463629       1
O              -8.90284000    -34.02460000     -9.87467000      0.04339460      0.03586920      0.03551370       8
H              -7.16028000    -33.16480000    -10.14870000     -0.04736600     -0.02371820     -0.00128594       1
H              -9.80467000    -34.87930000    -11.15540000      0.00168147     -0.01309390     -0.03043360       1
O              54.64740000    -20.31660000    -12.87070000      0.01717630     -0.00767944     -0.02480660       8
H              56.33840000    -21.02840000    -13.18510000     -0.00607411      0.01169410      0.00527577       1
H              54.48220000    -20.35200000    -11.09050000     -0.01183750     -0.00892390      0.01557070       1
O              15.93430000     -1.26336000      7.39040000     -0.02149310     -0.02074180     -0.03858330       8
H              14.32590000     -0.30348300      6.69188000      0.04598150     -0.03181270      0.00905408       1
H              16.40410000     -2.93876000      6.31649000     -0.04033580      0.05464590      0.03044320       1
O             -38.58900000     -8.77063000     44.86620000     -0.05035550      0.02249550     -0.02137230       8
H             -37.15180000     -9.52609000     44.24920000      0.05311730     -0.02497700     -0.02258620       1
H             -38.19200000     -8.35054000     46.52050000     -0.00295349      0.00905492      0.05009260       1
O               3.76628000    -12.30310000    -10.15600000     -0.02444190     -0.07924730     -0.03205990       8
H               5.02865000    -12.30220000     -8.86354000      0.01812740     -0.00320144      0.00322087       1
H               3.75687000    -14.23930000    -11.04680000      0.01446100      0.08684450      0.02659600       1
O              20.00030000     17.43020000     14.69490000      0.06728880      0.03210290     -0.00405907       8
H              20.09630000     17.89690000     12.86830000      0.00498491      0.00152208      0.02551880       1
H              21.88080000     18.07120000     15.35820000     -0.06787830     -0.03111220     -0.02684250       1
O              11.86400000     18.55030000     -9.76656000      0.10308600     -0.06958330     -0.09294950       8
H              12.96250000     17.06730000     -9.21510000     -0.02876020      0.03629560      0.00118891       1
H              10.74090000     19.37830000     -8.87513000     -0.07013180      0.03941720      0.08893670       1
O              23.71010000     49.44540000     30.57300000      0.08070510     -0.20098100     -0.21385500       8
H              23.37790000     50.46820000     31.60010000     -0.14100100      0.23123500      0.22981400       1
H              25.40110000     49.82970000     31.08990000      0.05218470     -0.03673360     -0.02455000       1
O              -4.45037000      7.59469000      5.30980000      0.02059290      0.01488410      0.09440550       8
H              -4.76033000      6.05630000      6.25328000     -0.00164199     -0.00915330     -0.00640592       1
H              -4.60331000      7.43369000      3.63014000     -0.00907049     -0.01916950     -0.08563350       1
O              13.64730000    -26.32590000     25.20420000     -0.06150390      0.25438900     -0.15152800       8
H              14.10310000    -27.69480000     25.73640000      0.08399130     -0.22709000      0.07907010       1
H              14.07270000    -25.96020000     23.09080000     -0.02086660     -0.02862750      0.06788410       1
O              -2.88568000     19.66160000     47.07410000     -0.03436060      0.03944940      0.05647590       8
H              -1.39086000     20.50150000     46.64400000      0.02969850      0.00630336     -0.01532570       1
H              -3.37044000     20.82700000     48.58440000      0.00706039     -0.04134630     -0.03828510       1
O              33.41250000     41.03920000      0.87413600      0.01040080     -0.06953880     -0.01351100       8
H              33.08810000     42.31610000      1.96443000     -0.01303980      0.05877560      0.03550600       1
H              33.22730000     39.46230000      1.99338000      0.00680549      0.01885850     -0.02655480       1
O              25.92240000     17.82110000    -33.52200000     -0.09392840     -0.10960600     -0.05683510       8
H              26.12880000     16.17520000    -32.75220000      0.01360430      0.02192510      0.00466429       1
H              26.76370000     19.15600000    -33.05150000      0.07214060      0.08849740      0.05445610       1
O             -20.44270000     45.82910000     -0.72331300      0.00090479      0.00802146     -0.00416948       8
H             -20.38000000     44.14460000     -1.52003000      0.00860497      0.00537204      0.00839431       1
H             -18.78330000     46.29240000     -0.07732700     -0.00557653     -0.01640400     -0.00487666       1
O               6.56209000    -28.05960000     31.44320000      0.01761280      0.03144330     -0.03870420       8
H               7.44442000    -28.99960000     32.64400000      0.00769704     -0.03211770      0.03979070       1
H               8.05426000    -27.45960000     30.48140000     -0.03026890     -0.00217525     -0.00383839       1
O               3.91740000     29.69400000     -0.25496600      0.01872670     -0.08932330     -0.04317320       8
H               4.96003000     29.33470000     -2.06512000     -0.04190480      0.00467328      0.06749160       1
H               3.10886000     27.80860000      0.21245700      0.01984850      0.06958830     -0.02456760       1
O             -11.54090000    -13.11250000     10.86210000     -0.02503700     -0.00561318      0.05002500       8
H             -11.24410000    -14.66990000     11.88710000      0.00047292      0.01223520     -0.01193900       1
H             -10.24940000    -13.04190000      9.67678000      0.03077430     -0.00489853     -0.03500960       1
O              -5.11218000      5.70405000     13.04710000      0.01072160      0.05273530      0.05009330       8
H              -4.60562000      7.52680000     13.65070000     -0.01223260     -0.04952610     -0.02397340       1
H              -4.78805000      4.69198000     14.60220000     -0.00375560      0.00304757     -0.02268020       1
O              25.00280000    -11.36140000     -1.93721000      0.06604310      0.08471130      0.14942600       8
H              24.68480000    -12.15210000     -3.28431000     -0.03407790     -0.09318000     -0.16000100       1
H              23.54120000    -10.47900000     -1.44096000     -0.02819380      0.00630948      0.01277180       1
O              24.27930000     11.02830000     41.81160000      0.00590832     -0.00065784     -0.05370300       8
H              22.56610000     10.96650000     40.74210000      0.05931930      0.00844555      0.02134450       1
H              25.80600000     11.25470000     40.42580000     -0.04982820      0.00719924      0.03840210       1
O              14.83070000     27.95380000     50.36070000     -0.02481990      0.02312160      0.01269760       8
H              16.33230000     28.99200000     50.27970000      0.00542912     -0.01210190     -0.01374210       1
H              14.84710000     26.27030000     49.75860000      0.02138300     -0.01776920      0.00182116       1
O              -9.87353000     12.83380000     19.30590000     -0.01555430     -0.02210930     -0.04489160       8
H              -9.30303000     13.58340000     17.61670000     -0.00697952     -0.01427380      0.03552910       1
H             -10.66650000     11.08900000     18.77050000      0.01885970      0.03815440      0.01815740       1
