==========================================
SLURM_JOB_ID = 137531
SLURM_NODELIST = gnode19
SLURM_JOB_GPUS = 
==========================================
 DBCSR| CPU Multiplication driver                                           XSMM
 DBCSR| Multrec recursion limit                                              512
 DBCSR| Multiplication stack size                                           1000
 DBCSR| Maximum elements for images                                    UNLIMITED
 DBCSR| Multiplicative factor virtual images                                   1
 DBCSR| Use multiplication densification                                       T
 DBCSR| Multiplication size stacks                                             3


  **** **** ******  **  PROGRAM STARTED AT               2020-05-06 02:46:58.199
 ***** ** ***  *** **   PROGRAM STARTED ON                               gnode19
 **    ****   ******    PROGRAM STARTED BY                           mayank.modi
 ***** **    ** ** **   PROGRAM PROCESS ID                                 15122
  **** **  *******  **  PROGRAM STARTED IN /home/mayank.modi/ab-initio-thermodyn
                                           amics-of-water/mayank/cp2k_energy_cal
                                           culations

 CP2K| version string:                                          CP2K version 7.1
 CP2K| source code revision number:                                  git:e635599
 CP2K| cp2kflags: omp libint fftw3 libxc xsmm spglib                            
 CP2K| is freely available from                            https://www.cp2k.org/
 CP2K| Program compiled at                          Mon Dec 23 19:23:12 CET 2019
 CP2K| Program compiled on                                                pc9404
 CP2K| Program compiled for                                Linux-x86-64-gfortran
 CP2K| Data directory path                                        /opt/cp2k/data
 CP2K| Input file name                                                  input.in

 GLOBAL| Force Environment number                                              1
 GLOBAL| Basis set file name                                           BASIS_SET
 GLOBAL| Potential file name                                      GTH_POTENTIALS
 GLOBAL| MM Potential file name                                     MM_POTENTIAL
 GLOBAL| Coordinate file name                                      __STD_INPUT__
 GLOBAL| Method name                                                        CP2K
 GLOBAL| Project name                                                   H2O_bulk
 GLOBAL| Preferred FFT library                                             FFTW3
 GLOBAL| Preferred diagonalization lib.                                       SL
 GLOBAL| Run type                                                   ENERGY_FORCE
 GLOBAL| All-to-all communication in single precision                          F
 GLOBAL| FFTs using library dependent lengths                                  F
 GLOBAL| Global print level                                                  LOW
 GLOBAL| MPI I/O enabled                                                       T
 GLOBAL| Total number of message passing processes                             1
 GLOBAL| Number of threads for this process                                   10
 GLOBAL| This output is from process                                           0
 GLOBAL| CPU model name                Intel(R) Xeon(R) CPU E5-2640 v4 @ 2.40GHz
 GLOBAL| CPUID                                                              1002
 GLOBAL| Compiled for CPUID                                                    0
 HINT in environment.F:814 The compiler target flags (generic) used to build
   this binary cannot exploit all extensions of this CPU model (x86_avx2).
   Consider compiler target flags as part of FCFLAGS and CFLAGS (ARCH file).

 MEMORY| system memory details [Kb]
 MEMORY|                        rank 0           min           max       average
 MEMORY| MemTotal            131897988     131897988     131897988     131897988
 MEMORY| MemFree              75426904      75426904      75426904      75426904
 MEMORY| Buffers               5728828       5728828       5728828       5728828
 MEMORY| Cached                6373000       6373000       6373000       6373000
 MEMORY| Slab                 24107372      24107372      24107372      24107372
 MEMORY| SReclaimable         23756248      23756248      23756248      23756248
 MEMORY| MemLikelyFree       111284980     111284980     111284980     111284980


 GENERATE|  Preliminary Number of Bonds generated:                             0
 GENERATE|  Achieved consistency in connectivity generation.

 *******************************************************************************
 *******************************************************************************
 **                                                                           **
 **     #####                         ##              ##                      **
 **    ##   ##            ##          ##              ##                      **
 **   ##     ##                       ##            ######                    **
 **   ##     ##  ##   ##  ##   #####  ##  ##   ####   ##    #####    #####    **
 **   ##     ##  ##   ##  ##  ##      ## ##   ##      ##   ##   ##  ##   ##   **
 **   ##  ## ##  ##   ##  ##  ##      ####     ###    ##   ######   ######    **
 **    ##  ###   ##   ##  ##  ##      ## ##      ##   ##   ##       ##        **
 **     #######   #####   ##   #####  ##  ##  ####    ##    #####   ##        **
 **           ##                                                    ##        **
 **                                                                           **
 **                                                ... make the atoms dance   **
 **                                                                           **
 **            Copyright (C) by CP2K developers group (2000 - 2019)           **
 **                                                                           **
 *******************************************************************************


 TOTAL NUMBERS AND MAXIMUM NUMBERS

  Total number of            - Atomic kinds:                                   2
                             - Atoms:                                        192
                             - Shell sets:                                   384
                             - Shells:                                       704
                             - Primitive Cartesian functions:                960
                             - Cartesian basis functions:                   1536
                             - Spherical basis functions:                   1472

  Maximum angular momentum of- Orbital basis functions:                        2
                             - Local part of the GTH pseudopotential:          2
                             - Non-local part of the GTH pseudopotential:      0


 SCF PARAMETERS         Density guess:                                    ATOMIC
                        --------------------------------------------------------
                        max_scf:                                             300
                        max_scf_history:                                       0
                        max_diis:                                              4
                        --------------------------------------------------------
                        eps_scf:                                        1.00E-07
                        eps_scf_history:                                0.00E+00
                        eps_diis:                                       1.00E-01
                        eps_eigval:                                     1.00E-05
                        --------------------------------------------------------
                        level_shift [a.u.]:                                 0.00
                        --------------------------------------------------------
                        Mixing method:                            BROYDEN_MIXING
                                                charge density mixing in g-space
                        --------------------------------------------------------
                        No outer SCF

 Number of electrons:                                                        512
 Number of occupied orbitals:                                                256
 Number of molecular orbitals:                                               256

 Number of orbital functions:                                               1472
 Number of independent orbital functions:                                   1472

 Extrapolation method: initial_guess


 SCF WAVEFUNCTION OPTIMIZATION

  Step     Update method      Time    Convergence         Total energy    Change
  ------------------------------------------------------------------------------
     1 NoMix/Diag. 0.40E+00   11.6     0.99130403     -1089.4156009217 -1.09E+03
     2 Broy./Diag. 0.40E+00   19.1     0.30317208     -1015.0108087762  7.44E+01
     3 Broy./Diag. 0.40E+00   20.6     0.03480004     -1092.8763114769 -7.79E+01
     4 Broy./Diag. 0.40E+00   20.6     0.03172477     -1094.9609338579 -2.08E+00
     5 Broy./Diag. 0.40E+00   20.9     0.00493957     -1095.9691711857 -1.01E+00
     6 Broy./Diag. 0.40E+00   21.8     0.01144035     -1095.8494833500  1.20E-01
     7 Broy./Diag. 0.40E+00   23.8     0.00664155     -1096.0010520969 -1.52E-01
     8 Broy./Diag. 0.40E+00   24.2     0.00724871     -1096.1314328815 -1.30E-01
     9 Broy./Diag. 0.40E+00   25.3     0.00406920     -1096.1534393352 -2.20E-02
    10 Broy./Diag. 0.40E+00   25.6     0.00238260     -1096.1451291143  8.31E-03
    11 Broy./Diag. 0.40E+00   22.9     0.00181347     -1096.1152874758  2.98E-02
    12 Broy./Diag. 0.40E+00   22.7     0.00095527     -1096.1355373073 -2.02E-02
    13 Broy./Diag. 0.40E+00   23.7     0.00097103     -1096.1597860262 -2.42E-02
    14 Broy./Diag. 0.40E+00   23.1     0.00027431     -1096.1634499420 -3.66E-03
    15 Broy./Diag. 0.40E+00   24.2     0.00021005     -1096.1563032501  7.15E-03
    16 Broy./Diag. 0.40E+00   24.9     0.00012730     -1096.1544544963  1.85E-03
    17 Broy./Diag. 0.40E+00   23.9     0.00005662     -1096.1545530129 -9.85E-05
    18 Broy./Diag. 0.40E+00   22.8     0.00004011     -1096.1538700760  6.83E-04
    19 Broy./Diag. 0.40E+00   26.7     0.00003018     -1096.1544675043 -5.97E-04
    20 Broy./Diag. 0.40E+00   25.1     0.00002057     -1096.1547125425 -2.45E-04
    21 Broy./Diag. 0.40E+00   23.8     0.00002166     -1096.1549431959 -2.31E-04
    22 Broy./Diag. 0.40E+00   22.8     0.00000892     -1096.1549452875 -2.09E-06
    23 Broy./Diag. 0.40E+00   23.4     0.00001083     -1096.1548454252  9.99E-05
    24 Broy./Diag. 0.40E+00   22.3     0.00000675     -1096.1548384828  6.94E-06
    25 Broy./Diag. 0.40E+00   27.1     0.00000479     -1096.1548379162  5.67E-07
    26 Broy./Diag. 0.40E+00   26.6     0.00000368     -1096.1547911460  4.68E-05
    27 Broy./Diag. 0.40E+00   26.0     0.00000092     -1096.1547673025  2.38E-05
    28 Broy./Diag. 0.40E+00   23.6     0.00000103     -1096.1547713161 -4.01E-06
    29 Broy./Diag. 0.40E+00   23.0     0.00000057     -1096.1547744235 -3.11E-06
    30 Broy./Diag. 0.40E+00   23.3     0.00000044     -1096.1547716618  2.76E-06
    31 Broy./Diag. 0.40E+00   23.1     0.00000031     -1096.1547719710 -3.09E-07
    32 Broy./Diag. 0.40E+00   23.2     0.00000013     -1096.1547734630 -1.49E-06
    33 Broy./Diag. 0.40E+00   23.1     0.00000015     -1096.1547732641  1.99E-07
    34 Broy./Diag. 0.40E+00   22.7     0.00000011     -1096.1547736835 -4.19E-07
    35 Broy./Diag. 0.40E+00   22.8     0.00000005     -1096.1547738415 -1.58E-07

  *** SCF run converged in    35 steps ***


  Electronic density on regular grids:       -512.0019905237       -0.0019905237
  Core density on regular grids:              512.0015208344        0.0015208344
  Total charge density on r-space grids:       -0.0004696893
  Total charge density g-space grids:          -0.0004696893

  Overlap energy of the core charge distribution:               0.00000495844747
  Self energy of the core charge distribution:              -2838.21791979120962
  Core Hamiltonian energy:                                    825.66556129239416
  Hartree energy:                                            1182.64358725746820
  Exchange-correlation energy:                               -266.24600755861769

  Total energy:                                             -1096.15477384151768

 ENERGY| Total FORCE_EVAL ( QS ) energy (a.u.):            -1096.154773702638067


 ATOMIC FORCES in [a.u.]

 # Atom   Kind   Element          X              Y              Z
      1      1      H           0.03348440    -0.04918151     0.01788594
      2      1      H           0.05957659    -0.05099650     0.08731785
      3      1      H          -0.05890877     0.03687809    -0.01613424
      4      1      H          -0.04219665    -0.03732138    -0.01599961
      5      1      H           0.04894322    -0.02732848    -0.03023270
      6      1      H          -0.03808095    -0.07829753    -0.02196902
      7      1      H           0.00903108    -0.03033327     0.08368151
      8      1      H          -0.03551334    -0.02858634    -0.02572431
      9      1      H           0.00168651     0.00396465     0.00268553
     10      1      H          -0.05581096    -0.08344975    -0.01298777
     11      1      H          -0.02655436     0.04958742     0.03157267
     12      1      H          -0.07017838    -0.01433727    -0.08167954
     13      1      H          -0.07386679    -0.07060314    -0.02800330
     14      1      H          -0.02537727    -0.05033016    -0.02303102
     15      1      H          -0.02661996     0.10164124    -0.02913647
     16      1      H          -0.02189239    -0.08086982     0.09484985
     17      1      H           0.03452180     0.05143119    -0.03274908
     18      1      H           0.04667400    -0.09357098    -0.02747272
     19      1      H           0.07679623     0.07010341    -0.02396069
     20      1      H           0.05729653    -0.07753600     0.00324838
     21      1      H           0.04211560     0.04410062    -0.02896682
     22      1      H           0.05462436     0.02827069     0.02637415
     23      1      H          -0.07666969    -0.04266492     0.00279694
     24      1      H          -0.06686603    -0.04747841     0.05594242
     25      1      H          -0.07391082    -0.02861773    -0.06512282
     26      1      H          -0.08830271    -0.03276806     0.07342873
     27      1      H           0.00431958    -0.04983360     0.00421561
     28      1      H           0.01942932    -0.05050701     0.02285676
     29      1      H           0.00645928     0.01179504     0.01230313
     30      1      H          -0.06534008     0.00474602    -0.02392724
     31      1      H           0.05939130     0.01332483    -0.03022200
     32      1      H           0.09056866     0.00316940    -0.05024932
     33      1      H          -0.00046151    -0.02428083     0.00285709
     34      1      H           0.08239686     0.00500968    -0.08200842
     35      1      H          -0.01334468    -0.05000076    -0.00060931
     36      1      H           0.01251792    -0.04812769     0.04624466
     37      1      H          -0.01124220     0.07974436    -0.03173635
     38      1      H          -0.01642470    -0.07847881     0.02611513
     39      1      H           0.02993648    -0.04124127    -0.00885241
     40      1      H          -0.03692782    -0.03393082     0.01305915
     41      1      H           0.02804168    -0.03800406    -0.04043607
     42      1      H           0.04190821    -0.00255242     0.06709883
     43      1      H          -0.04200349    -0.01616557    -0.02777882
     44      1      H           0.03663233     0.07845217    -0.03512784
     45      1      H           0.01442759     0.06136097    -0.00068671
     46      1      H           0.00534157    -0.00522155     0.08737613
     47      1      H          -0.11079237    -0.07918187    -0.03518623
     48      1      H          -0.05013991     0.09008497    -0.03317787
     49      1      H          -0.00533092    -0.04363857    -0.03601991
     50      1      H          -0.00984998     0.06709493    -0.00340160
     51      1      H           0.05779778    -0.09467204     0.00273070
     52      1      H           0.01985281     0.07165324    -0.06054044
     53      1      H          -0.03388678    -0.05798490     0.02695462
     54      1      H           0.03017842    -0.08550349    -0.03132516
     55      1      H           0.01979453    -0.07447657     0.02870719
     56      1      H           0.12090384     0.05462718     0.03571536
     57      1      H           0.01766104    -0.04339850    -0.03208551
     58      1      H          -0.04939684    -0.04311250     0.02905836
     59      1      H          -0.00326779    -0.04458755    -0.03646936
     60      1      H          -0.07349328    -0.02935262    -0.03501075
     61      1      H           0.01280143     0.06614899    -0.02097864
     62      1      H           0.04114037    -0.06678596     0.03633651
     63      1      H           0.08008194    -0.03413137     0.05323334
     64      1      H           0.01310120     0.02381411    -0.03560760
     65      1      H          -0.05448555     0.09216459    -0.03755012
     66      1      H          -0.03677542    -0.01686732     0.07275386
     67      1      H           0.06724520    -0.03858399     0.04351687
     68      1      H          -0.01874339    -0.00267718    -0.01811359
     69      1      H           0.06661388    -0.00753468    -0.03749507
     70      1      H           0.00412938     0.10748508    -0.02816410
     71      1      H           0.05964989     0.03975169    -0.02288819
     72      1      H          -0.02285393    -0.07770415    -0.03074052
     73      1      H           0.01344789     0.07046318    -0.01346363
     74      1      H           0.00065000    -0.07242858    -0.03891748
     75      1      H          -0.07947519     0.03082885     0.04547898
     76      1      H          -0.03163107     0.02330732    -0.02219866
     77      1      H           0.06716268    -0.03955050     0.03043336
     78      1      H           0.05496680     0.03961766    -0.03110508
     79      1      H           0.00452238    -0.04497396     0.07767754
     80      1      H           0.07055929    -0.06559696    -0.07702472
     81      1      H           0.01185865    -0.08693627    -0.00623169
     82      1      H           0.00968367     0.06776062    -0.00617047
     83      1      H          -0.10303535    -0.01756251    -0.03689570
     84      1      H          -0.02934307     0.03587908     0.06913890
     85      1      H          -0.01323294     0.08940676    -0.02952193
     86      1      H          -0.03611563    -0.07790323     0.04349118
     87      1      H          -0.01199379    -0.00142631    -0.03282765
     88      1      H          -0.07506410     0.01882854     0.03117352
     89      1      H          -0.01163257    -0.02088085     0.00180644
     90      1      H          -0.05649291    -0.01006391    -0.02863822
     91      1      H           0.12355083     0.05795806    -0.02538370
     92      1      H           0.03957489    -0.01271621     0.04390665
     93      1      H           0.01115816    -0.06778178     0.04075470
     94      1      H           0.01789242    -0.01199704    -0.01885325
     95      1      H           0.06660656     0.04574665     0.05178991
     96      1      H           0.09491454     0.00911495    -0.06220536
     97      1      H          -0.04029217     0.00989973    -0.07216985
     98      1      H           0.00758410     0.02450325     0.06146516
     99      1      H           0.01714775    -0.05166166     0.02805723
    100      1      H          -0.01155951    -0.03964830    -0.02848227
    101      1      H          -0.05504709     0.00660829     0.01288798
    102      1      H           0.00446479    -0.03410680    -0.03760642
    103      1      H          -0.03071428    -0.04353605    -0.05185014
    104      1      H          -0.10520980    -0.01821581    -0.03640510
    105      1      H           0.01652723     0.05619196     0.03530451
    106      1      H          -0.05865779     0.05532793     0.03175256
    107      1      H          -0.01847873    -0.06968643    -0.05000213
    108      1      H          -0.05524868     0.06048699    -0.01814855
    109      1      H          -0.00510263    -0.02736267     0.08189697
    110      1      H          -0.05359776     0.02045592     0.00881664
    111      1      H           0.03672942     0.05922258     0.03488710
    112      1      H           0.07050878    -0.04486324    -0.06597338
    113      1      H           0.00809259    -0.03119739    -0.02562941
    114      1      H           0.06759335    -0.03596475    -0.02277212
    115      1      H           0.05257868    -0.10853417    -0.01523079
    116      1      H           0.08366868     0.01348006    -0.02178369
    117      1      H          -0.03559562     0.05224278     0.01606940
    118      1      H           0.00377942     0.01536928    -0.03037745
    119      1      H           0.01265063    -0.09543496    -0.03686080
    120      1      H           0.01156595     0.06749133    -0.03651467
    121      1      H           0.06113450    -0.02548614    -0.03382321
    122      1      H           0.04893590    -0.05199306    -0.03288270
    123      1      H           0.02847063    -0.01789847    -0.03267363
    124      1      H           0.07070275     0.05697937    -0.01964378
    125      1      H          -0.04287540    -0.07893253    -0.02508745
    126      1      H           0.03761594     0.04604904    -0.03302909
    127      1      H          -0.01714919     0.05235286    -0.03283753
    128      1      H          -0.01678789     0.05725203     0.03890241
    129      2      O           0.11311716     0.23652339    -0.15023524
    130      2      O           0.19813932     0.16814437    -0.09994323
    131      2      O           0.14291456     0.11001797    -0.00726667
    132      2      O          -0.20982904     0.13750444    -0.05271758
    133      2      O           0.08176846     0.02744666     0.00870081
    134      2      O          -0.14089432    -0.18848663     0.11872501
    135      2      O           0.11798350     0.16395174    -0.01695801
    136      2      O          -0.24246480    -0.13625415    -0.15200737
    137      2      O          -0.10237829     0.06721379     0.11333475
    138      2      O           0.13147061     0.10576419     0.11800057
    139      2      O          -0.13673515     0.06601661    -0.09543699
    140      2      O          -0.09575870     0.14233953    -0.07518037
    141      2      O          -0.02168983     0.17050345     0.05357149
    142      2      O           0.15065847     0.02417311     0.03905367
    143      2      O          -0.18995663     0.23051102    -0.00472139
    144      2      O          -0.02386949    -0.06947495    -0.04610203
    145      2      O           0.20349162     0.10907427     0.15402129
    146      2      O          -0.17271351    -0.04909172    -0.07846595
    147      2      O           0.22928478    -0.13614085     0.03868932
    148      2      O           0.10515743     0.16235599     0.06236091
    149      2      O           0.16712478    -0.02488806    -0.05705242
    150      2      O          -0.16275302    -0.10775949    -0.02214348
    151      2      O          -0.21670641    -0.12239307    -0.14516121
    152      2      O           0.10223099    -0.14045055    -0.12188268
    153      2      O          -0.04416668     0.04928708     0.01395502
    154      2      O           0.16886716     0.11909995     0.14094456
    155      2      O          -0.14137432     0.10997812     0.06481619
    156      2      O           0.03825783     0.16416612     0.12444798
    157      2      O           0.07181213    -0.02459737     0.03248340
    158      2      O          -0.14116405     0.17517177     0.10250126
    159      2      O           0.07063587    -0.17061324     0.01023942
    160      2      O          -0.02778961    -0.06405889    -0.09391870
    161      2      O          -0.16850561    -0.18567812    -0.08484178
    162      2      O           0.22058166     0.10056128    -0.12303971
    163      2      O          -0.20262239    -0.12840407    -0.04289231
    164      2      O           0.13500529     0.18497294    -0.03826130
    165      2      O           0.10040080     0.10992204    -0.08234977
    166      2      O          -0.05837867     0.06054371     0.02541848
    167      2      O           0.15731088    -0.02515570     0.08134785
    168      2      O           0.13229040     0.24276717     0.01460285
    169      2      O           0.15901099     0.09773668     0.08130898
    170      2      O          -0.06582507    -0.20926346    -0.04496726
    171      2      O           0.20539082    -0.18233168     0.01959857
    172      2      O          -0.08159653    -0.23492351     0.08211677
    173      2      O           0.01187054     0.00541031    -0.04023657
    174      2      O           0.11165894    -0.18620264    -0.10485812
    175      2      O          -0.03079564     0.23960666    -0.07764991
    176      2      O          -0.04019426    -0.07422318    -0.05171992
    177      2      O          -0.07242552     0.22749552     0.06373346
    178      2      O           0.19809660    -0.10022097     0.02024514
    179      2      O          -0.17288322    -0.18088424     0.07559282
    180      2      O          -0.09968228    -0.21212533     0.13978908
    181      2      O          -0.22038648    -0.06320888    -0.13371198
    182      2      O           0.06267109    -0.10937541    -0.02354251
    183      2      O          -0.05706765     0.00316033    -0.11605092
    184      2      O           0.11922900    -0.00880188     0.05623490
    185      2      O           0.15815978    -0.21687188     0.10523164
    186      2      O           0.16804636     0.20551379    -0.05396191
    187      2      O          -0.15859565    -0.11572952    -0.05047767
    188      2      O           0.13686922     0.21388342    -0.09509121
    189      2      O          -0.18232592    -0.10862307    -0.13259578
    190      2      O           0.12113498    -0.22894668     0.02633419
    191      2      O          -0.14906360     0.09476183    -0.01546784
    192      2      O          -0.18198801     0.08645352    -0.01595508
 SUM OF ATOMIC FORCES           0.58159148    -0.50106623    -1.20163700     1.42591988

 -------------------------------------------------------------------------------
 -                                                                             -
 -                                DBCSR STATISTICS                             -
 -                                                                             -
 -------------------------------------------------------------------------------
 COUNTER                                    TOTAL       BLAS       SMM       ACC
 flops     5 x     5 x   256           1424793600       0.0%    100.0%      0.0%
 flops     5 x    13 x   256           1780346880       0.0%    100.0%      0.0%
 flops    13 x     5 x   256           1783941120       0.0%    100.0%      0.0%
 flops    13 x    13 x   256           2579226624       0.0%    100.0%      0.0%
 flops inhomo. stacks                           0       0.0%      0.0%      0.0%
 flops total                         7.568308E+09       0.0%    100.0%      0.0%
 flops max/rank                      7.568308E+09       0.0%    100.0%      0.0%
 matmuls inhomo. stacks                         0       0.0%      0.0%      0.0%
 matmuls total                             248220       0.0%    100.0%      0.0%
 number of processed stacks                  1440       0.0%    100.0%      0.0%
 average stack size                                     0.0     172.4       0.0
 marketing flops                    39.938163E+09
 -------------------------------------------------------------------------------
 # multiplications                             36
 max memory usage/rank              19.129025E+09
 # max total images/rank                        1
 # max 3D layers                                1
 # MPI messages exchanged                       0
 MPI messages size (bytes):
  total size                         0.000000E+00
  min size                           0.000000E+00
  max size                           0.000000E+00
  average size                       0.000000E+00
 MPI breakdown and total messages size (bytes):
             size <=      128                   0                        0
       128 < size <=     8192                   0                        0
      8192 < size <=    32768                   0                        0
     32768 < size <=   131072                   0                        0
    131072 < size <=  4194304                   0                        0
   4194304 < size <= 16777216                   0                        0
  16777216 < size                               0                        0
 -------------------------------------------------------------------------------

 MEMORY| Estimated peak process memory [MiB]                               18253

 -------------------------------------------------------------------------------
 -                                                                             -
 -                           R E F E R E N C E S                               -
 -                                                                             -
 -------------------------------------------------------------------------------
 
 CP2K version 7.1, the CP2K developers group (2019).
 CP2K is freely available from https://www.cp2k.org/ .

 Schuett, Ole; Messmer, Peter; Hutter, Juerg; VandeVondele, Joost. 
 Electronic Structure Calculations on Graphics Processing Units, John
 Wiley & Sons, Ltd, 173-190 (2016). 
 GPU-Accelerated Sparse Matrix-Matrix Multiplication for
 Linear Scaling Density Functional Theory.
 https://dx.doi.org/10.1002/9781118670712.ch8

 Borstnik, U; VandeVondele, J; Weber, V; Hutter, J. 
 PARALLEL COMPUTING, 40 (5-6), 47-58 (2014). 
 Sparse matrix multiplication: The distributed block-compressed sparse
 row library.
 https://dx.doi.org/10.1016/j.parco.2014.03.012

 Hutter, J; Iannuzzi, M; Schiffmann, F; VandeVondele, J. 
 WIREs Comput Mol Sci., 4 (1), 15-25 (2014). 
 CP2K: atomistic simulations of condensed matter systems.
 https://dx.doi.org/10.1002/wcms.1159

 Krack, M. 
 THEORETICAL CHEMISTRY ACCOUNTS, 114 (1-3), 145-152 (2005). 
 Pseudopotentials for H to Kr optimized for gradient-corrected
 exchange-correlation functionals.
 https://dx.doi.org/10.1007/s00214-005-0655-y

 VandeVondele, J; Krack, M; Mohamed, F; Parrinello, M; Chassaing, T;
 Hutter, J. COMPUTER PHYSICS COMMUNICATIONS, 167 (2), 103-128 (2005). 
 QUICKSTEP: Fast and accurate density functional calculations using a
 mixed Gaussian and plane waves approach.
 https://dx.doi.org/10.1016/j.cpc.2004.12.014

 Frigo, M; Johnson, SG. 
 PROCEEDINGS OF THE IEEE, 93 (2), 216-231 (2005). 
 The design and implementation of FFTW3.
 https://dx.doi.org/10.1109/JPROC.2004.840301

 Hartwigsen, C; Goedecker, S; Hutter, J. 
 PHYSICAL REVIEW B, 58 (7), 3641-3662 (1998). 
 Relativistic separable dual-space Gaussian pseudopotentials from H to Rn.
 https://dx.doi.org/10.1103/PhysRevB.58.3641

 Lippert, G; Hutter, J; Parrinello, M. 
 MOLECULAR PHYSICS, 92 (3), 477-487 (1997). 
 A hybrid Gaussian and plane wave density functional scheme.
 https://dx.doi.org/10.1080/002689797170220

 Goedecker, S; Teter, M; Hutter, J. 
 PHYSICAL REVIEW B, 54 (3), 1703-1710 (1996). 
 Separable dual-space Gaussian pseudopotentials.
 https://dx.doi.org/10.1103/PhysRevB.54.1703


 -------------------------------------------------------------------------------
 -                                                                             -
 -                                T I M I N G                                  -
 -                                                                             -
 -------------------------------------------------------------------------------
 SUBROUTINE                       CALLS  ASD         SELF TIME        TOTAL TIME
                                MAXIMUM       AVERAGE  MAXIMUM  AVERAGE  MAXIMUM
 CP2K                                 1  1.0    0.553    0.553  838.503  838.503
 qs_forces                            1  2.0    0.000    0.000  828.509  828.509
 qs_energies                          1  3.0    0.000    0.000  824.112  824.112
 scf_env_do_scf                       1  4.0    0.000    0.000  813.255  813.255
 scf_env_do_scf_inner_loop           35  5.0    0.019    0.019  813.255  813.255
 gspace_mixing                       34  6.0    4.028    4.028  295.091  295.091
 broyden_mixing                      34  7.0  258.352  258.352  258.353  258.353
 qs_scf_new_mos                      35  6.0    0.001    0.001  247.118  247.118
 eigensolver                         35  7.0    0.005    0.005  238.773  238.773
 pw_transfer                        467  9.9    0.048    0.048  179.718  179.718
 fft_wrap_pw1pw2                    395 10.9    0.006    0.006  174.443  174.443
 rebuild_ks_matrix                   36  6.9    0.000    0.000  161.857  161.857
 qs_ks_build_kohn_sham_matrix        36  7.9    0.015    0.015  161.857  161.857
 fft_wrap_pw1pw2_70                 179 11.2   13.815   13.815  158.408  158.408
 qs_ks_update_qs_env                 35  6.0    0.000    0.000  157.743  157.743
 cp_fm_syevd                         35  8.0  154.179  154.179  154.369  154.369
 qs_rho_update_rho                   36  6.0    0.001    0.001  116.105  116.105
 calculate_rho_elec                  36  7.0   31.816   31.816  116.105  116.105
 fft3d_s                            396 12.9   88.052   88.052   88.078   88.078
 cp_fm_cholesky_restore             105  8.0   84.252   84.252   84.252   84.252
 density_rs2pw                       36  8.0    0.005    0.005   82.929   82.929
 sum_up_and_integrate                36  8.9    1.952    1.952   56.570   56.570
 integrate_v_rspace                  36  9.9    7.914    7.914   54.618   54.618
 pw_scatter_s                       214 13.1   48.551   48.551   48.551   48.551
 potential_pw2rs                     36 10.9    0.270    0.270   45.714   45.714
 pw_poisson_solve                    36  8.9   36.030   36.030   41.515   41.515
 qs_vxc_create                       36  8.9    0.001    0.001   23.082   23.082
 xc_vxc_pw_create                    36  9.9    4.255    4.255   23.081   23.081
 pw_gather_s                        181 12.6   22.280   22.280   22.280   22.280
 xc_rho_set_and_dset_create          36 10.9    0.050    0.050   18.826   18.826
 pw_copy                            288 11.3   17.403   17.403   17.403   17.403
 -------------------------------------------------------------------------------

 The number of warnings for this run is : 0
 
 -------------------------------------------------------------------------------
  **** **** ******  **  PROGRAM ENDED AT                 2020-05-06 03:00:56.864
 ***** ** ***  *** **   PROGRAM RAN ON                                   gnode19
 **    ****   ******    PROGRAM RAN BY                               mayank.modi
 ***** **    ** ** **   PROGRAM PROCESS ID                                 15122
  **** **  *******  **  PROGRAM STOPPED IN /home/mayank.modi/ab-initio-thermodyn
                                           amics-of-water/mayank/cp2k_energy_cal
                                           culations
