==========================================
SLURM_JOB_ID = 137519
SLURM_NODELIST = gnode44
SLURM_JOB_GPUS = 
==========================================
 DBCSR| CPU Multiplication driver                                           XSMM
 DBCSR| Multrec recursion limit                                              512
 DBCSR| Multiplication stack size                                           1000
 DBCSR| Maximum elements for images                                    UNLIMITED
 DBCSR| Multiplicative factor virtual images                                   1
 DBCSR| Use multiplication densification                                       T
 DBCSR| Multiplication size stacks                                             3


  **** **** ******  **  PROGRAM STARTED AT               2020-05-06 01:58:46.169
 ***** ** ***  *** **   PROGRAM STARTED ON                               gnode44
 **    ****   ******    PROGRAM STARTED BY                           mayank.modi
 ***** **    ** ** **   PROGRAM PROCESS ID                                 25576
  **** **  *******  **  PROGRAM STARTED IN /home/mayank.modi/ab-initio-thermodyn
                                           amics-of-water/mayank/cp2k_energy_cal
                                           culations

 CP2K| version string:                                          CP2K version 7.1
 CP2K| source code revision number:                                  git:e635599
 CP2K| cp2kflags: omp libint fftw3 libxc xsmm spglib                            
 CP2K| is freely available from                            https://www.cp2k.org/
 CP2K| Program compiled at                          Mon Dec 23 19:23:12 CET 2019
 CP2K| Program compiled on                                                pc9404
 CP2K| Program compiled for                                Linux-x86-64-gfortran
 CP2K| Data directory path                                        /opt/cp2k/data
 CP2K| Input file name                                                  input.in

 GLOBAL| Force Environment number                                              1
 GLOBAL| Basis set file name                                           BASIS_SET
 GLOBAL| Potential file name                                      GTH_POTENTIALS
 GLOBAL| MM Potential file name                                     MM_POTENTIAL
 GLOBAL| Coordinate file name                                      __STD_INPUT__
 GLOBAL| Method name                                                        CP2K
 GLOBAL| Project name                                                   H2O_bulk
 GLOBAL| Preferred FFT library                                             FFTW3
 GLOBAL| Preferred diagonalization lib.                                       SL
 GLOBAL| Run type                                                   ENERGY_FORCE
 GLOBAL| All-to-all communication in single precision                          F
 GLOBAL| FFTs using library dependent lengths                                  F
 GLOBAL| Global print level                                                  LOW
 GLOBAL| MPI I/O enabled                                                       T
 GLOBAL| Total number of message passing processes                             1
 GLOBAL| Number of threads for this process                                   10
 GLOBAL| This output is from process                                           0
 GLOBAL| CPU model name                Intel(R) Xeon(R) CPU E5-2640 v4 @ 2.40GHz
 GLOBAL| CPUID                                                              1002
 GLOBAL| Compiled for CPUID                                                    0
 HINT in environment.F:814 The compiler target flags (generic) used to build
   this binary cannot exploit all extensions of this CPU model (x86_avx2).
   Consider compiler target flags as part of FCFLAGS and CFLAGS (ARCH file).

 MEMORY| system memory details [Kb]
 MEMORY|                        rank 0           min           max       average
 MEMORY| MemTotal            131893056     131893056     131893056     131893056
 MEMORY| MemFree              60575240      60575240      60575240      60575240
 MEMORY| Buffers               3544284       3544284       3544284       3544284
 MEMORY| Cached               51004468      51004468      51004468      51004468
 MEMORY| Slab                  6651872       6651872       6651872       6651872
 MEMORY| SReclaimable          6052368       6052368       6052368       6052368
 MEMORY| MemLikelyFree       121176360     121176360     121176360     121176360


 GENERATE|  Preliminary Number of Bonds generated:                             0
 GENERATE|  Achieved consistency in connectivity generation.

 *******************************************************************************
 *******************************************************************************
 **                                                                           **
 **     #####                         ##              ##                      **
 **    ##   ##            ##          ##              ##                      **
 **   ##     ##                       ##            ######                    **
 **   ##     ##  ##   ##  ##   #####  ##  ##   ####   ##    #####    #####    **
 **   ##     ##  ##   ##  ##  ##      ## ##   ##      ##   ##   ##  ##   ##   **
 **   ##  ## ##  ##   ##  ##  ##      ####     ###    ##   ######   ######    **
 **    ##  ###   ##   ##  ##  ##      ## ##      ##   ##   ##       ##        **
 **     #######   #####   ##   #####  ##  ##  ####    ##    #####   ##        **
 **           ##                                                    ##        **
 **                                                                           **
 **                                                ... make the atoms dance   **
 **                                                                           **
 **            Copyright (C) by CP2K developers group (2000 - 2019)           **
 **                                                                           **
 *******************************************************************************


 TOTAL NUMBERS AND MAXIMUM NUMBERS

  Total number of            - Atomic kinds:                                   2
                             - Atoms:                                        192
                             - Shell sets:                                   384
                             - Shells:                                       704
                             - Primitive Cartesian functions:                960
                             - Cartesian basis functions:                   1536
                             - Spherical basis functions:                   1472

  Maximum angular momentum of- Orbital basis functions:                        2
                             - Local part of the GTH pseudopotential:          2
                             - Non-local part of the GTH pseudopotential:      0


 SCF PARAMETERS         Density guess:                                    ATOMIC
                        --------------------------------------------------------
                        max_scf:                                             300
                        max_scf_history:                                       0
                        max_diis:                                              4
                        --------------------------------------------------------
                        eps_scf:                                        1.00E-07
                        eps_scf_history:                                0.00E+00
                        eps_diis:                                       1.00E-01
                        eps_eigval:                                     1.00E-05
                        --------------------------------------------------------
                        level_shift [a.u.]:                                 0.00
                        --------------------------------------------------------
                        Mixing method:                            BROYDEN_MIXING
                                                charge density mixing in g-space
                        --------------------------------------------------------
                        No outer SCF

 Number of electrons:                                                        512
 Number of occupied orbitals:                                                256
 Number of molecular orbitals:                                               256

 Number of orbital functions:                                               1472
 Number of independent orbital functions:                                   1472

 Extrapolation method: initial_guess


 SCF WAVEFUNCTION OPTIMIZATION

  Step     Update method      Time    Convergence         Total energy    Change
  ------------------------------------------------------------------------------
     1 NoMix/Diag. 0.40E+00   12.4     0.99538218     -1089.3334843853 -1.09E+03
     2 Broy./Diag. 0.40E+00   16.9     0.30575340     -1015.2250679314  7.41E+01
     3 Broy./Diag. 0.40E+00   18.5     0.03529759     -1092.7896572177 -7.76E+01
     4 Broy./Diag. 0.40E+00   20.4     0.03285056     -1094.8974396589 -2.11E+00
     5 Broy./Diag. 0.40E+00   19.4     0.00496655     -1095.9051020146 -1.01E+00
     6 Broy./Diag. 0.40E+00   19.3     0.01174649     -1095.7809001931  1.24E-01
     7 Broy./Diag. 0.40E+00   18.7     0.00657903     -1095.9379518158 -1.57E-01
     8 Broy./Diag. 0.40E+00   20.1     0.00710833     -1096.0675648481 -1.30E-01
     9 Broy./Diag. 0.40E+00   20.7     0.00405748     -1096.0864485642 -1.89E-02
    10 Broy./Diag. 0.40E+00   21.7     0.00237707     -1096.0775249133  8.92E-03
    11 Broy./Diag. 0.40E+00   21.4     0.00178621     -1096.0487511311  2.88E-02
    12 Broy./Diag. 0.40E+00   21.0     0.00096178     -1096.0692112765 -2.05E-02
    13 Broy./Diag. 0.40E+00   22.1     0.00095516     -1096.0932839987 -2.41E-02
    14 Broy./Diag. 0.40E+00   22.1     0.00027295     -1096.0966424453 -3.36E-03
    15 Broy./Diag. 0.40E+00   21.4     0.00020801     -1096.0895024599  7.14E-03
    16 Broy./Diag. 0.40E+00   21.4     0.00012779     -1096.0876927910  1.81E-03
    17 Broy./Diag. 0.40E+00   21.8     0.00005618     -1096.0878640659 -1.71E-04
    18 Broy./Diag. 0.40E+00   21.8     0.00003960     -1096.0872028411  6.61E-04
    19 Broy./Diag. 0.40E+00   21.6     0.00002870     -1096.0877671755 -5.64E-04
    20 Broy./Diag. 0.40E+00   21.3     0.00002031     -1096.0879847316 -2.18E-04
    21 Broy./Diag. 0.40E+00   21.1     0.00002049     -1096.0882180038 -2.33E-04
    22 Broy./Diag. 0.40E+00   21.3     0.00000857     -1096.0882207227 -2.72E-06
    23 Broy./Diag. 0.40E+00   21.3     0.00000997     -1096.0881166918  1.04E-04
    24 Broy./Diag. 0.40E+00   20.9     0.00000642     -1096.0881140249  2.67E-06
    25 Broy./Diag. 0.40E+00   21.3     0.00000442     -1096.0881138590  1.66E-07
    26 Broy./Diag. 0.40E+00   20.6     0.00000361     -1096.0880667083  4.72E-05
    27 Broy./Diag. 0.40E+00   21.0     0.00000094     -1096.0880452556  2.15E-05
    28 Broy./Diag. 0.40E+00   20.9     0.00000104     -1096.0880508433 -5.59E-06
    29 Broy./Diag. 0.40E+00   21.0     0.00000057     -1096.0880526144 -1.77E-06
    30 Broy./Diag. 0.40E+00   21.6     0.00000043     -1096.0880498758  2.74E-06
    31 Broy./Diag. 0.40E+00   22.3     0.00000033     -1096.0880516576 -1.78E-06
    32 Broy./Diag. 0.40E+00   23.5     0.00000012     -1096.0880529676 -1.31E-06
    33 Broy./Diag. 0.40E+00   21.7     0.00000014     -1096.0880522229  7.45E-07
    34 Broy./Diag. 0.40E+00   21.9     0.00000009     -1096.0880523819 -1.59E-07

  *** SCF run converged in    34 steps ***


  Electronic density on regular grids:       -512.0007532866       -0.0007532866
  Core density on regular grids:              511.9970717857       -0.0029282143
  Total charge density on r-space grids:       -0.0036815009
  Total charge density g-space grids:          -0.0036815009

  Overlap energy of the core charge distribution:               0.00000495844747
  Self energy of the core charge distribution:              -2838.21791979120962
  Core Hamiltonian energy:                                    825.51340500148888
  Hartree energy:                                            1182.83848524492646
  Exchange-correlation energy:                               -266.22202779551054

  Total energy:                                             -1096.08805238185732

 ENERGY| Total FORCE_EVAL ( QS ) energy (a.u.):            -1096.088052296227488


 ATOMIC FORCES in [a.u.]

 # Atom   Kind   Element          X              Y              Z
      1      1      H          -0.05590009     0.01981705    -0.10938080
      2      1      H           0.14580991    -0.04253340     0.09625809
      3      1      H           0.02421551    -0.07575556    -0.11053953
      4      1      H          -0.07931572    -0.05724507    -0.10800775
      5      1      H           0.14168282    -0.03703852     0.11908301
      6      1      H          -0.08415878     0.02431398    -0.01374276
      7      1      H           0.03549908     0.08615766    -0.01284666
      8      1      H           0.10785173     0.10268112    -0.06175516
      9      1      H           0.16031406    -0.05380102     0.00985943
     10      1      H          -0.07950662    -0.10908127    -0.03798103
     11      1      H           0.14100063    -0.07707074     0.09709104
     12      1      H          -0.07457966     0.02539049     0.07513009
     13      1      H          -0.03403520     0.04832292    -0.08174682
     14      1      H           0.11992204    -0.03941704     0.01445083
     15      1      H          -0.11108002     0.00692830    -0.08132152
     16      1      H           0.14540922     0.03232247    -0.04520596
     17      1      H           0.11740620    -0.07910158    -0.02553578
     18      1      H          -0.04466066    -0.12009632     0.11437586
     19      1      H           0.01372676    -0.03494817    -0.11934606
     20      1      H          -0.08518638    -0.09874352    -0.07640463
     21      1      H          -0.00018215    -0.04557588    -0.08202864
     22      1      H           0.10813797    -0.08945011    -0.03129364
     23      1      H          -0.12997120     0.00963453     0.04234393
     24      1      H          -0.13537890     0.04934326    -0.08205583
     25      1      H           0.06241434     0.10321524    -0.13899436
     26      1      H           0.04650169     0.08996683     0.08619995
     27      1      H          -0.10473116     0.04660045    -0.09039469
     28      1      H          -0.10380508    -0.06560447    -0.10177436
     29      1      H           0.02557252    -0.10490728    -0.06236333
     30      1      H           0.09674343    -0.06637050    -0.10513446
     31      1      H           0.00283305     0.03611400     0.07488024
     32      1      H           0.07917999    -0.03720774     0.01353434
     33      1      H          -0.17545749    -0.07819620    -0.07521475
     34      1      H           0.10088842    -0.10227188    -0.15640306
     35      1      H           0.12281142     0.03256775     0.03900711
     36      1      H           0.14216189     0.03472817    -0.08047983
     37      1      H          -0.09826257     0.05500515     0.11981071
     38      1      H           0.03889795     0.07162977     0.05692049
     39      1      H           0.13005515     0.08932046     0.12264241
     40      1      H          -0.13222294     0.08429347    -0.00346014
     41      1      H          -0.08729684     0.01269581    -0.01190418
     42      1      H          -0.03484544    -0.05883243    -0.09047194
     43      1      H           0.08349911    -0.08672908    -0.12113649
     44      1      H          -0.06242745    -0.04176701    -0.11086402
     45      1      H           0.01943001    -0.05451130     0.11404107
     46      1      H           0.13763522    -0.11019721     0.10161595
     47      1      H          -0.11569751     0.03269520    -0.10820143
     48      1      H           0.11629091     0.08072693    -0.11580434
     49      1      H          -0.07574591    -0.03986702     0.12030119
     50      1      H           0.03084213     0.00420178     0.08476748
     51      1      H           0.09352848    -0.11575647    -0.07690206
     52      1      H           0.08113087    -0.05719399    -0.16366540
     53      1      H           0.10841492     0.04561475     0.06925738
     54      1      H          -0.05770669     0.05334266    -0.08468284
     55      1      H          -0.01032448    -0.10988010     0.10841412
     56      1      H           0.07922097    -0.06980404     0.07414568
     57      1      H           0.10234317     0.00731094     0.11820512
     58      1      H          -0.12380867     0.05104951     0.06006855
     59      1      H           0.13382264     0.05181982     0.12053289
     60      1      H          -0.13542892     0.10060509     0.00697545
     61      1      H          -0.06673653     0.13926684     0.03081168
     62      1      H           0.08313702     0.08078232    -0.01257824
     63      1      H           0.14572957     0.04807312     0.00445202
     64      1      H          -0.12190124    -0.01783883     0.07115607
     65      1      H           0.02641295    -0.02102258     0.05720318
     66      1      H           0.12028079    -0.06838803     0.16067605
     67      1      H           0.10083947     0.09207443     0.05865227
     68      1      H          -0.16924645     0.12074082     0.09108557
     69      1      H           0.15383865    -0.07711386     0.05967776
     70      1      H          -0.05305952     0.00370033     0.01379234
     71      1      H           0.13432118    -0.07146782    -0.15915412
     72      1      H          -0.09701150    -0.10670588    -0.11465437
     73      1      H           0.08312191    -0.06276366    -0.03818066
     74      1      H          -0.11924625    -0.09918512    -0.12546563
     75      1      H           0.08644240    -0.11666536     0.06694266
     76      1      H          -0.03569490    -0.09404184    -0.09147453
     77      1      H           0.12355706     0.08225398    -0.10208051
     78      1      H           0.07410626     0.15196393    -0.08157035
     79      1      H           0.05405366    -0.03610156    -0.06854378
     80      1      H           0.14052364     0.00313678     0.05513744
     81      1      H          -0.12125633    -0.12028294    -0.01971814
     82      1      H           0.07419261     0.00276991    -0.01960246
     83      1      H          -0.07475155    -0.03799414     0.05993508
     84      1      H           0.12856160    -0.07757738     0.16268874
     85      1      H           0.09870490     0.06428334    -0.08027383
     86      1      H           0.07547512     0.05702514    -0.08428713
     87      1      H           0.02399666    -0.05914849    -0.08253986
     88      1      H           0.07948505    -0.08253511    -0.10000124
     89      1      H           0.00879407    -0.02462111    -0.07847243
     90      1      H           0.07862796    -0.01255571     0.01300200
     91      1      H           0.14336182    -0.07033335     0.11888888
     92      1      H           0.05038149    -0.07101498     0.13250684
     93      1      H           0.07368733     0.03549214    -0.01079421
     94      1      H           0.02440778    -0.08172068     0.06172776
     95      1      H          -0.06606573    -0.05442959     0.07367272
     96      1      H          -0.03591721    -0.03462453    -0.02340887
     97      1      H           0.06762049    -0.09618730    -0.14566869
     98      1      H           0.14282303    -0.11389136     0.04011693
     99      1      H           0.04814593     0.06480848     0.02139565
    100      1      H           0.11191795    -0.03275729     0.05572632
    101      1      H           0.10569007     0.04852425    -0.02189004
    102      1      H          -0.02492887     0.06072418     0.09700918
    103      1      H           0.10655497     0.03723649     0.03504125
    104      1      H          -0.12893146    -0.03944797    -0.12265849
    105      1      H           0.18101365    -0.07217475     0.09948420
    106      1      H          -0.05806564     0.02602691    -0.03272320
    107      1      H           0.04218806    -0.02057943    -0.19904772
    108      1      H          -0.11043232    -0.04031130    -0.08846878
    109      1      H           0.13898902    -0.08274695    -0.05729607
    110      1      H           0.08502690    -0.08638193     0.09147091
    111      1      H           0.11062975     0.14475403     0.09936166
    112      1      H          -0.09543987     0.07768775     0.09131981
    113      1      H          -0.04045320     0.00187027     0.11857069
    114      1      H           0.09998419    -0.00145689     0.04461523
    115      1      H          -0.11852493    -0.14309843     0.12448778
    116      1      H           0.01480230    -0.05573825     0.06357304
    117      1      H          -0.00772910    -0.07639649     0.00727416
    118      1      H           0.12804632    -0.10577153    -0.08129223
    119      1      H           0.08814065    -0.12232525    -0.03973418
    120      1      H           0.07071930    -0.05105443    -0.04033452
    121      1      H           0.00886669    -0.01488232     0.09895352
    122      1      H           0.00292860    -0.00204499     0.06400233
    123      1      H          -0.13523222    -0.02116128     0.03355221
    124      1      H           0.09075220    -0.07950761     0.03122771
    125      1      H          -0.08207523     0.05565490     0.05854422
    126      1      H          -0.07987441     0.02271975     0.12014805
    127      1      H           0.08527025     0.03842114     0.12478803
    128      1      H           0.11920988    -0.07885467     0.06336317
    129      2      O          -0.40900429    -0.33332899     0.00892430
    130      2      O          -0.20868685    -0.05792467    -0.33250990
    131      2      O           0.20633066    -0.15301163     0.09744504
    132      2      O           0.16914197     0.16891424    -0.14237122
    133      2      O           0.36791329    -0.26412056     0.04186596
    134      2      O          -0.12458189     0.37932993     0.41881717
    135      2      O          -0.28368262    -0.22959523     0.27749034
    136      2      O          -0.19839872     0.24075799    -0.47919092
    137      2      O           0.33566935    -0.24363890    -0.38767894
    138      2      O          -0.19303755     0.28284505    -0.41249515
    139      2      O           0.13681472    -0.27069577     0.06493836
    140      2      O          -0.40561842     0.26743996    -0.25597535
    141      2      O           0.36794731     0.14813144    -0.41958056
    142      2      O          -0.29502360    -0.26594837    -0.23558091
    143      2      O          -0.35335347    -0.34007626    -0.06876129
    144      2      O          -0.27944947     0.21323274     0.47350221
    145      2      O           0.35051556    -0.05984965    -0.37649986
    146      2      O           0.17326632     0.32460591    -0.26157618
    147      2      O           0.31435325     0.25117434     0.02917789
    148      2      O           0.11812903     0.18910213     0.41754844
    149      2      O          -0.14529129     0.33050101    -0.24840398
    150      2      O           0.50790819     0.10090755    -0.22903821
    151      2      O           0.41561690     0.14213532     0.12444949
    152      2      O           0.09731469     0.22575183    -0.49543864
    153      2      O          -0.31893671     0.33526881     0.37881673
    154      2      O           0.22056473     0.29622403    -0.39665491
    155      2      O           0.18872964    -0.16211987     0.44230965
    156      2      O          -0.41804350    -0.08182474     0.32540681
    157      2      O           0.33992809     0.33146877     0.02328620
    158      2      O          -0.07764456     0.14728792     0.05993958
    159      2      O           0.46467363     0.22562150    -0.28525362
    160      2      O          -0.27185071     0.22023775     0.03824348
    161      2      O           0.25713500     0.21998787     0.39688692
    162      2      O           0.30556335    -0.21934661    -0.00812602
    163      2      O           0.35973677     0.07824635    -0.13765929
    164      2      O           0.11418619    -0.04751297    -0.32808315
    165      2      O          -0.24056769     0.24377759    -0.31989238
    166      2      O          -0.39680883    -0.03036999     0.12759169
    167      2      O           0.13223382     0.00019121    -0.00260866
    168      2      O           0.35876051    -0.32188650     0.04032563
    169      2      O           0.31295705     0.27532619    -0.41170896
    170      2      O          -0.31389660     0.11652671     0.32450847
    171      2      O           0.40038320     0.26696478    -0.45215851
    172      2      O          -0.41480440    -0.12011998    -0.17869644
    173      2      O           0.09186009    -0.28317199    -0.13371405
    174      2      O          -0.41740534     0.17420680     0.21760452
    175      2      O           0.29407074    -0.33051650     0.35014286
    176      2      O          -0.44959124     0.21211303     0.37597752
    177      2      O          -0.07474328    -0.28874513    -0.42016222
    178      2      O           0.13587798    -0.07826874     0.43573426
    179      2      O           0.09136606     0.35295664    -0.39223352
    180      2      O          -0.28185077     0.11076997     0.46146588
    181      2      O          -0.43630965    -0.39119451    -0.43337405
    182      2      O          -0.25895989     0.28010769    -0.36624552
    183      2      O           0.40106133     0.07032163     0.13598080
    184      2      O          -0.23532478     0.01767901     0.27762515
    185      2      O          -0.36984034     0.10331508     0.05934925
    186      2      O          -0.37671616    -0.02802934     0.25513637
    187      2      O          -0.43670358     0.24433560     0.24135616
    188      2      O           0.22702054     0.07339283    -0.33222361
    189      2      O           0.06962122     0.08066963     0.40430610
    190      2      O           0.31943376     0.02638088     0.38845130
    191      2      O          -0.28995130    -0.01532748     0.48738561
    192      2      O           0.31104374    -0.37896730    -0.10138295
 SUM OF ATOMIC FORCES           3.03731555     0.72716490    -0.80629985     3.22555018

 -------------------------------------------------------------------------------
 -                                                                             -
 -                                DBCSR STATISTICS                             -
 -                                                                             -
 -------------------------------------------------------------------------------
 COUNTER                                    TOTAL       BLAS       SMM       ACC
 flops     5 x     5 x   256           1385216000       0.0%    100.0%      0.0%
 flops     5 x    13 x   256           1730892800       0.0%    100.0%      0.0%
 flops    13 x     5 x   256           1734387200       0.0%    100.0%      0.0%
 flops    13 x    13 x   256           2507581440       0.0%    100.0%      0.0%
 flops inhomo. stacks                           0       0.0%      0.0%      0.0%
 flops total                         7.358077E+09       0.0%    100.0%      0.0%
 flops max/rank                      7.358077E+09       0.0%    100.0%      0.0%
 matmuls inhomo. stacks                         0       0.0%      0.0%      0.0%
 matmuls total                             241325       0.0%    100.0%      0.0%
 number of processed stacks                  1400       0.0%    100.0%      0.0%
 average stack size                                     0.0     172.4       0.0
 marketing flops                    38.828769E+09
 -------------------------------------------------------------------------------
 # multiplications                             35
 max memory usage/rank              15.504151E+09
 # max total images/rank                        1
 # max 3D layers                                1
 # MPI messages exchanged                       0
 MPI messages size (bytes):
  total size                         0.000000E+00
  min size                           0.000000E+00
  max size                           0.000000E+00
  average size                       0.000000E+00
 MPI breakdown and total messages size (bytes):
             size <=      128                   0                        0
       128 < size <=     8192                   0                        0
      8192 < size <=    32768                   0                        0
     32768 < size <=   131072                   0                        0
    131072 < size <=  4194304                   0                        0
   4194304 < size <= 16777216                   0                        0
  16777216 < size                               0                        0
 -------------------------------------------------------------------------------

 MEMORY| Estimated peak process memory [MiB]                               14788

 -------------------------------------------------------------------------------
 -                                                                             -
 -                           R E F E R E N C E S                               -
 -                                                                             -
 -------------------------------------------------------------------------------
 
 CP2K version 7.1, the CP2K developers group (2019).
 CP2K is freely available from https://www.cp2k.org/ .

 Schuett, Ole; Messmer, Peter; Hutter, Juerg; VandeVondele, Joost. 
 Electronic Structure Calculations on Graphics Processing Units, John
 Wiley & Sons, Ltd, 173-190 (2016). 
 GPU-Accelerated Sparse Matrix-Matrix Multiplication for
 Linear Scaling Density Functional Theory.
 https://dx.doi.org/10.1002/9781118670712.ch8

 Borstnik, U; VandeVondele, J; Weber, V; Hutter, J. 
 PARALLEL COMPUTING, 40 (5-6), 47-58 (2014). 
 Sparse matrix multiplication: The distributed block-compressed sparse
 row library.
 https://dx.doi.org/10.1016/j.parco.2014.03.012

 Hutter, J; Iannuzzi, M; Schiffmann, F; VandeVondele, J. 
 WIREs Comput Mol Sci., 4 (1), 15-25 (2014). 
 CP2K: atomistic simulations of condensed matter systems.
 https://dx.doi.org/10.1002/wcms.1159

 Krack, M. 
 THEORETICAL CHEMISTRY ACCOUNTS, 114 (1-3), 145-152 (2005). 
 Pseudopotentials for H to Kr optimized for gradient-corrected
 exchange-correlation functionals.
 https://dx.doi.org/10.1007/s00214-005-0655-y

 VandeVondele, J; Krack, M; Mohamed, F; Parrinello, M; Chassaing, T;
 Hutter, J. COMPUTER PHYSICS COMMUNICATIONS, 167 (2), 103-128 (2005). 
 QUICKSTEP: Fast and accurate density functional calculations using a
 mixed Gaussian and plane waves approach.
 https://dx.doi.org/10.1016/j.cpc.2004.12.014

 Frigo, M; Johnson, SG. 
 PROCEEDINGS OF THE IEEE, 93 (2), 216-231 (2005). 
 The design and implementation of FFTW3.
 https://dx.doi.org/10.1109/JPROC.2004.840301

 Hartwigsen, C; Goedecker, S; Hutter, J. 
 PHYSICAL REVIEW B, 58 (7), 3641-3662 (1998). 
 Relativistic separable dual-space Gaussian pseudopotentials from H to Rn.
 https://dx.doi.org/10.1103/PhysRevB.58.3641

 Lippert, G; Hutter, J; Parrinello, M. 
 MOLECULAR PHYSICS, 92 (3), 477-487 (1997). 
 A hybrid Gaussian and plane wave density functional scheme.
 https://dx.doi.org/10.1080/002689797170220

 Goedecker, S; Teter, M; Hutter, J. 
 PHYSICAL REVIEW B, 54 (3), 1703-1710 (1996). 
 Separable dual-space Gaussian pseudopotentials.
 https://dx.doi.org/10.1103/PhysRevB.54.1703


 -------------------------------------------------------------------------------
 -                                                                             -
 -                                T I M I N G                                  -
 -                                                                             -
 -------------------------------------------------------------------------------
 SUBROUTINE                       CALLS  ASD         SELF TIME        TOTAL TIME
                                MAXIMUM       AVERAGE  MAXIMUM  AVERAGE  MAXIMUM
 CP2K                                 1  1.0    0.331    0.331  727.878  727.878
 qs_forces                            1  2.0    0.000    0.000  719.642  719.642
 qs_energies                          1  3.0    0.000    0.000  716.220  716.220
 scf_env_do_scf                       1  4.0    0.000    0.000  706.616  706.616
 scf_env_do_scf_inner_loop           34  5.0    0.017    0.017  706.615  706.615
 qs_scf_new_mos                      34  6.0    0.001    0.001  298.870  298.870
 eigensolver                         34  7.0    0.004    0.004  294.582  294.582
 gspace_mixing                       33  6.0    3.519    3.519  211.327  211.327
 broyden_mixing                      33  7.0  183.758  183.758  183.759  183.759
 cp_fm_syevd                         34  8.0  181.346  181.346  181.509  181.509
 pw_transfer                        454  9.9    0.044    0.044  132.814  132.814
 fft_wrap_pw1pw2                    384 10.9    0.006    0.006  129.674  129.674
 fft_wrap_pw1pw2_60                 174 11.2    8.717    8.717  119.624  119.624
 rebuild_ks_matrix                   35  6.9    0.000    0.000  116.996  116.996
 qs_ks_build_kohn_sham_matrix        35  7.9    0.008    0.008  116.996  116.996
 qs_ks_update_qs_env                 34  6.0    0.000    0.000  113.813  113.813
 cp_fm_cholesky_restore             102  8.0  112.906  112.906  112.906  112.906
 qs_rho_update_rho                   35  6.0    0.000    0.000   85.008   85.008
 calculate_rho_elec                  35  7.0   24.531   24.531   85.008   85.008
 fft3d_s                            385 12.8   66.819   66.819   66.884   66.884
 density_rs2pw                       35  8.0    0.004    0.004   59.773   59.773
 sum_up_and_integrate                35  8.9    1.554    1.554   39.265   39.265
 pw_scatter_s                       208 13.1   38.614   38.614   38.614   38.614
 integrate_v_rspace                  35  9.9    5.366    5.366   37.712   37.712
 potential_pw2rs                     35 10.9    0.253    0.253   32.113   32.113
 pw_poisson_solve                    35  8.9   28.143   28.143   31.457   31.457
 qs_vxc_create                       35  8.9    0.001    0.001   15.572   15.572
 xc_vxc_pw_create                    35  9.9    3.731    3.731   15.572   15.572
 pw_gather_s                        176 12.6   14.647   14.647   14.647   14.647
 -------------------------------------------------------------------------------

 The number of warnings for this run is : 0
 
 -------------------------------------------------------------------------------
  **** **** ******  **  PROGRAM ENDED AT                 2020-05-06 02:10:54.266
 ***** ** ***  *** **   PROGRAM RAN ON                                   gnode44
 **    ****   ******    PROGRAM RAN BY                               mayank.modi
 ***** **    ** ** **   PROGRAM PROCESS ID                                 25576
  **** **  *******  **  PROGRAM STOPPED IN /home/mayank.modi/ab-initio-thermodyn
                                           amics-of-water/mayank/cp2k_energy_cal
                                           culations
