==========================================
SLURM_JOB_ID = 137521
SLURM_NODELIST = gnode19
SLURM_JOB_GPUS = 
==========================================
 DBCSR| CPU Multiplication driver                                           XSMM
 DBCSR| Multrec recursion limit                                              512
 DBCSR| Multiplication stack size                                           1000
 DBCSR| Maximum elements for images                                    UNLIMITED
 DBCSR| Multiplicative factor virtual images                                   1
 DBCSR| Use multiplication densification                                       T
 DBCSR| Multiplication size stacks                                             3


  **** **** ******  **  PROGRAM STARTED AT               2020-05-06 02:11:37.965
 ***** ** ***  *** **   PROGRAM STARTED ON                               gnode19
 **    ****   ******    PROGRAM STARTED BY                           mayank.modi
 ***** **    ** ** **   PROGRAM PROCESS ID                                 13733
  **** **  *******  **  PROGRAM STARTED IN /home/mayank.modi/ab-initio-thermodyn
                                           amics-of-water/mayank/cp2k_energy_cal
                                           culations

 CP2K| version string:                                          CP2K version 7.1
 CP2K| source code revision number:                                  git:e635599
 CP2K| cp2kflags: omp libint fftw3 libxc xsmm spglib                            
 CP2K| is freely available from                            https://www.cp2k.org/
 CP2K| Program compiled at                          Mon Dec 23 19:23:12 CET 2019
 CP2K| Program compiled on                                                pc9404
 CP2K| Program compiled for                                Linux-x86-64-gfortran
 CP2K| Data directory path                                        /opt/cp2k/data
 CP2K| Input file name                                                  input.in

 GLOBAL| Force Environment number                                              1
 GLOBAL| Basis set file name                                           BASIS_SET
 GLOBAL| Potential file name                                      GTH_POTENTIALS
 GLOBAL| MM Potential file name                                     MM_POTENTIAL
 GLOBAL| Coordinate file name                                      __STD_INPUT__
 GLOBAL| Method name                                                        CP2K
 GLOBAL| Project name                                                   H2O_bulk
 GLOBAL| Preferred FFT library                                             FFTW3
 GLOBAL| Preferred diagonalization lib.                                       SL
 GLOBAL| Run type                                                   ENERGY_FORCE
 GLOBAL| All-to-all communication in single precision                          F
 GLOBAL| FFTs using library dependent lengths                                  F
 GLOBAL| Global print level                                                  LOW
 GLOBAL| MPI I/O enabled                                                       T
 GLOBAL| Total number of message passing processes                             1
 GLOBAL| Number of threads for this process                                   10
 GLOBAL| This output is from process                                           0
 GLOBAL| CPU model name                Intel(R) Xeon(R) CPU E5-2640 v4 @ 2.40GHz
 GLOBAL| CPUID                                                              1002
 GLOBAL| Compiled for CPUID                                                    0
 HINT in environment.F:814 The compiler target flags (generic) used to build
   this binary cannot exploit all extensions of this CPU model (x86_avx2).
   Consider compiler target flags as part of FCFLAGS and CFLAGS (ARCH file).

 MEMORY| system memory details [Kb]
 MEMORY|                        rank 0           min           max       average
 MEMORY| MemTotal            131897988     131897988     131897988     131897988
 MEMORY| MemFree              79988536      79988536      79988536      79988536
 MEMORY| Buffers               5728284       5728284       5728284       5728284
 MEMORY| Cached                6335312       6335312       6335312       6335312
 MEMORY| Slab                 24104112      24104112      24104112      24104112
 MEMORY| SReclaimable         23754972      23754972      23754972      23754972
 MEMORY| MemLikelyFree       115807104     115807104     115807104     115807104


 GENERATE|  Preliminary Number of Bonds generated:                             0
 GENERATE|  Achieved consistency in connectivity generation.

 *******************************************************************************
 *******************************************************************************
 **                                                                           **
 **     #####                         ##              ##                      **
 **    ##   ##            ##          ##              ##                      **
 **   ##     ##                       ##            ######                    **
 **   ##     ##  ##   ##  ##   #####  ##  ##   ####   ##    #####    #####    **
 **   ##     ##  ##   ##  ##  ##      ## ##   ##      ##   ##   ##  ##   ##   **
 **   ##  ## ##  ##   ##  ##  ##      ####     ###    ##   ######   ######    **
 **    ##  ###   ##   ##  ##  ##      ## ##      ##   ##   ##       ##        **
 **     #######   #####   ##   #####  ##  ##  ####    ##    #####   ##        **
 **           ##                                                    ##        **
 **                                                                           **
 **                                                ... make the atoms dance   **
 **                                                                           **
 **            Copyright (C) by CP2K developers group (2000 - 2019)           **
 **                                                                           **
 *******************************************************************************


 TOTAL NUMBERS AND MAXIMUM NUMBERS

  Total number of            - Atomic kinds:                                   2
                             - Atoms:                                        192
                             - Shell sets:                                   384
                             - Shells:                                       704
                             - Primitive Cartesian functions:                960
                             - Cartesian basis functions:                   1536
                             - Spherical basis functions:                   1472

  Maximum angular momentum of- Orbital basis functions:                        2
                             - Local part of the GTH pseudopotential:          2
                             - Non-local part of the GTH pseudopotential:      0


 SCF PARAMETERS         Density guess:                                    ATOMIC
                        --------------------------------------------------------
                        max_scf:                                             300
                        max_scf_history:                                       0
                        max_diis:                                              4
                        --------------------------------------------------------
                        eps_scf:                                        1.00E-07
                        eps_scf_history:                                0.00E+00
                        eps_diis:                                       1.00E-01
                        eps_eigval:                                     1.00E-05
                        --------------------------------------------------------
                        level_shift [a.u.]:                                 0.00
                        --------------------------------------------------------
                        Mixing method:                            BROYDEN_MIXING
                                                charge density mixing in g-space
                        --------------------------------------------------------
                        No outer SCF

 Number of electrons:                                                        512
 Number of occupied orbitals:                                                256
 Number of molecular orbitals:                                               256

 Number of orbital functions:                                               1472
 Number of independent orbital functions:                                   1472

 Extrapolation method: initial_guess


 SCF WAVEFUNCTION OPTIMIZATION

  Step     Update method      Time    Convergence         Total energy    Change
  ------------------------------------------------------------------------------
     1 NoMix/Diag. 0.40E+00   10.6     0.99472107     -1089.6925327082 -1.09E+03
     2 Broy./Diag. 0.40E+00   16.0     0.30060049     -1015.2452481440  7.44E+01
     3 Broy./Diag. 0.40E+00   17.5     0.03431434     -1093.1665968334 -7.79E+01
     4 Broy./Diag. 0.40E+00   17.8     0.03098305     -1095.2343752080 -2.07E+00
     5 Broy./Diag. 0.40E+00   18.5     0.00496348     -1096.2427197667 -1.01E+00
     6 Broy./Diag. 0.40E+00   18.6     0.01166825     -1096.1197030071  1.23E-01
     7 Broy./Diag. 0.40E+00   19.6     0.00661444     -1096.2728890621 -1.53E-01
     8 Broy./Diag. 0.40E+00   20.6     0.00733791     -1096.4030971078 -1.30E-01
     9 Broy./Diag. 0.40E+00   21.1     0.00403153     -1096.4250754533 -2.20E-02
    10 Broy./Diag. 0.40E+00   22.0     0.00242935     -1096.4153559011  9.72E-03
    11 Broy./Diag. 0.40E+00   23.0     0.00180302     -1096.3868917657  2.85E-02
    12 Broy./Diag. 0.40E+00   22.3     0.00096140     -1096.4068930435 -2.00E-02
    13 Broy./Diag. 0.40E+00   22.7     0.00095445     -1096.4310543808 -2.42E-02
    14 Broy./Diag. 0.40E+00   20.7     0.00027021     -1096.4347561388 -3.70E-03
    15 Broy./Diag. 0.40E+00   21.5     0.00021141     -1096.4274784392  7.28E-03
    16 Broy./Diag. 0.40E+00   20.6     0.00012719     -1096.4256491824  1.83E-03
    17 Broy./Diag. 0.40E+00   19.2     0.00005871     -1096.4257905498 -1.41E-04
    18 Broy./Diag. 0.40E+00   18.7     0.00003883     -1096.4250557013  7.35E-04
    19 Broy./Diag. 0.40E+00   19.8     0.00003235     -1096.4256434748 -5.88E-04
    20 Broy./Diag. 0.40E+00   20.8     0.00002294     -1096.4259149197 -2.71E-04
    21 Broy./Diag. 0.40E+00   20.6     0.00002113     -1096.4261314072 -2.16E-04
    22 Broy./Diag. 0.40E+00   19.4     0.00000924     -1096.4261394267 -8.02E-06
    23 Broy./Diag. 0.40E+00   20.1     0.00001108     -1096.4260616719  7.78E-05
    24 Broy./Diag. 0.40E+00   22.1     0.00000716     -1096.4260560686  5.60E-06
    25 Broy./Diag. 0.40E+00   21.1     0.00000497     -1096.4260476927  8.38E-06
    26 Broy./Diag. 0.40E+00   21.4     0.00000384     -1096.4259907372  5.70E-05
    27 Broy./Diag. 0.40E+00   21.0     0.00000096     -1096.4259671335  2.36E-05
    28 Broy./Diag. 0.40E+00   20.7     0.00000108     -1096.4259747776 -7.64E-06
    29 Broy./Diag. 0.40E+00   22.2     0.00000060     -1096.4259773379 -2.56E-06
    30 Broy./Diag. 0.40E+00   23.0     0.00000046     -1096.4259734555  3.88E-06
    31 Broy./Diag. 0.40E+00   22.2     0.00000032     -1096.4259742721 -8.17E-07
    32 Broy./Diag. 0.40E+00   20.7     0.00000013     -1096.4259762209 -1.95E-06
    33 Broy./Diag. 0.40E+00   20.5     0.00000014     -1096.4259762636 -4.27E-08
    34 Broy./Diag. 0.40E+00   21.5     0.00000010     -1096.4259767054 -4.42E-07

  *** SCF run converged in    34 steps ***


  Electronic density on regular grids:       -512.0022741874       -0.0022741874
  Core density on regular grids:              511.9917583736       -0.0082416264
  Total charge density on r-space grids:       -0.0105158138
  Total charge density g-space grids:          -0.0105158138

  Overlap energy of the core charge distribution:               0.00000495844747
  Self energy of the core charge distribution:              -2838.21791979120962
  Core Hamiltonian energy:                                    825.67911474452546
  Hartree energy:                                            1182.34966211976871
  Exchange-correlation energy:                               -266.23683873694102

  Total energy:                                             -1096.42597670540908

 ENERGY| Total FORCE_EVAL ( QS ) energy (a.u.):            -1096.425976566880081


 ATOMIC FORCES in [a.u.]

 # Atom   Kind   Element          X              Y              Z
      1      1      H           0.03211080     0.01981167    -0.03664402
      2      1      H           0.05944707    -0.04208976     0.03553142
      3      1      H          -0.05905470    -0.07479531     0.04966624
      4      1      H          -0.04304795    -0.05783114     0.04938810
      5      1      H           0.04879416    -0.03683040     0.07040915
      6      1      H          -0.03837286     0.02464243    -0.00031112
      7      1      H           0.00939289     0.08745797     0.13324409
      8      1      H          -0.03554509     0.10233275     0.03539905
      9      1      H           0.00209745    -0.05158557    -0.00850662
     10      1      H          -0.05505548    -0.10857412     0.02458507
     11      1      H          -0.02668454    -0.07658571    -0.06312696
     12      1      H          -0.07011684     0.02493361    -0.09330379
     13      1      H          -0.07334621     0.04770333     0.07136508
     14      1      H          -0.02445489    -0.04004882     0.01922754
     15      1      H          -0.02575153     0.00834748     0.05125685
     16      1      H          -0.02112374     0.03309271     0.12088990
     17      1      H           0.03458308    -0.08085950     0.02600514
     18      1      H           0.04627444    -0.12188952     0.04901620
     19      1      H           0.07791907    -0.03579046     0.04431501
     20      1      H           0.05714800    -0.09948810    -0.00352686
     21      1      H           0.04344245    -0.04432470     0.07181579
     22      1      H           0.05441721    -0.09003980     0.01943557
     23      1      H          -0.07588184     0.00914545     0.04241441
     24      1      H          -0.06628243     0.04915618     0.11066527
     25      1      H          -0.07370923     0.10131414    -0.04337104
     26      1      H          -0.08787849     0.09033766     0.02353396
     27      1      H           0.00396374     0.04591116     0.06977202
     28      1      H           0.01979102    -0.06563066    -0.03783909
     29      1      H           0.00626061    -0.10623863    -0.00297140
     30      1      H          -0.06554684    -0.06635281    -0.00331942
     31      1      H           0.06055324     0.03503611     0.07590849
     32      1      H           0.09113606    -0.03693528     0.01218802
     33      1      H          -0.00230720    -0.07772698    -0.00314871
     34      1      H           0.08206751    -0.10119114    -0.06037827
     35      1      H          -0.01313384     0.03227123     0.03913821
     36      1      H           0.01310975     0.03519938     0.11662708
     37      1      H          -0.01151407     0.05522593     0.07157463
     38      1      H          -0.01533194     0.07050994     0.09328573
     39      1      H           0.03036425     0.09092370     0.03816701
     40      1      H          -0.03720625     0.08408142    -0.00644434
     41      1      H           0.02726186     0.01270708     0.02539941
     42      1      H           0.04007246    -0.05709025     0.06297298
     43      1      H          -0.04213755    -0.08671856     0.01854369
     44      1      H           0.03663683    -0.03972237     0.07204881
     45      1      H           0.01423020    -0.05483311    -0.00395317
     46      1      H           0.00659156    -0.10952747     0.03666132
     47      1      H          -0.11020250     0.03467886     0.07164308
     48      1      H          -0.05048471     0.08143381     0.07041760
     49      1      H          -0.00515116    -0.04023276     0.07006744
     50      1      H          -0.00963983     0.00372119     0.02464744
     51      1      H           0.05757366    -0.11658167    -0.00381257
     52      1      H           0.02050701    -0.05719374     0.00180201
     53      1      H          -0.03423597     0.04463896     0.07002687
     54      1      H           0.02918115     0.05237618     0.06771149
     55      1      H           0.02009435    -0.10841192    -0.05863333
     56      1      H           0.12101506    -0.07213858    -0.07611316
     57      1      H           0.01834554     0.00717643     0.06910563
     58      1      H          -0.04873385     0.05097598     0.09568216
     59      1      H          -0.00287212     0.05104626     0.06882720
     60      1      H          -0.07445567     0.10062403     0.03252574
     61      1      H           0.01239328     0.13832509     0.05704364
     62      1      H           0.04189516     0.08021547     0.10567036
     63      1      H           0.07990585     0.04667118     0.12268546
     64      1      H           0.01382915    -0.01732226     0.07071769
     65      1      H          -0.05414932    -0.02238760     0.07087489
     66      1      H          -0.03619078    -0.06816232     0.10201537
     67      1      H           0.06733763     0.09135549    -0.00603851
     68      1      H          -0.01824197     0.11766694     0.02699980
     69      1      H           0.06568607    -0.07797101     0.07234956
     70      1      H           0.00346329     0.00246184     0.05481156
     71      1      H           0.05947541    -0.07074260     0.00043698
     72      1      H          -0.02291803    -0.10792541     0.07138506
     73      1      H           0.01380872    -0.06252165     0.02389064
     74      1      H           0.00109230    -0.09890916     0.07730406
     75      1      H          -0.07895950    -0.11682446     0.12100096
     76      1      H          -0.03086203    -0.09722842     0.05121297
     77      1      H           0.06695443     0.08263933     0.10081695
     78      1      H           0.05545754     0.15325791     0.06981945
     79      1      H           0.00563852    -0.03599227     0.04637034
     80      1      H           0.07001214     0.00242105    -0.03324645
     81      1      H           0.01162999    -0.11960017     0.02801439
     82      1      H           0.01108164     0.00360665     0.02833750
     83      1      H          -0.10244504    -0.03873512     0.07286285
     84      1      H          -0.02942538    -0.07747057     0.12414786
     85      1      H          -0.01319007     0.06387940     0.07098257
     86      1      H          -0.03507359     0.05922764     0.11553070
     87      1      H          -0.01168578    -0.05889701     0.06699273
     88      1      H          -0.07412163    -0.08324681     0.10248823
     89      1      H          -0.01060360    -0.02283432    -0.00509273
     90      1      H          -0.05601417    -0.01214717     0.05388891
     91      1      H           0.12263599    -0.07082532     0.05171188
     92      1      H           0.03895450    -0.06894878     0.01241508
     93      1      H           0.01030248     0.03370760     0.10642036
     94      1      H           0.01748609    -0.08185357     0.02700730
     95      1      H           0.06667703    -0.05350121     0.07534446
     96      1      H           0.09481023    -0.03458627     0.00378310
     97      1      H          -0.03868522    -0.09467924    -0.04994494
     98      1      H           0.00805398    -0.11518222    -0.00241343
     99      1      H           0.01801419     0.06414588     0.04883685
    100      1      H          -0.01173979    -0.03297758     0.05765937
    101      1      H          -0.05659278     0.04989606     0.06010976
    102      1      H           0.00351199     0.06244235     0.07962035
    103      1      H          -0.02976611     0.03802295     0.00793808
    104      1      H          -0.10422740    -0.03961644     0.07997866
    105      1      H           0.01623528    -0.07220519    -0.06040039
    106      1      H          -0.05956734     0.02681955    -0.03440374
    107      1      H          -0.01809001    -0.02038782    -0.07804484
    108      1      H          -0.05566573    -0.04132422     0.05386840
    109      1      H          -0.00418408    -0.08209453     0.13586832
    110      1      H          -0.05358167    -0.08665923     0.06799049
    111      1      H           0.03654804     0.14292146    -0.06020226
    112      1      H           0.06987621     0.07795532    -0.07844441
    113      1      H           0.00711866     0.00223097     0.05096454
    114      1      H           0.06774767    -0.00216499     0.04029522
    115      1      H           0.05324734    -0.14460810     0.05350938
    116      1      H           0.08305942    -0.05842332    -0.04961989
    117      1      H          -0.03647144    -0.07640654     0.03748679
    118      1      H           0.00409668    -0.10583783     0.07017939
    119      1      H           0.01344795    -0.12176030     0.07851692
    120      1      H           0.01141763    -0.04859174     0.07907367
    121      1      H           0.06035229    -0.01376414     0.08127303
    122      1      H           0.04870841    -0.00129070     0.07624502
    123      1      H           0.02713820    -0.02114381     0.03033052
    124      1      H           0.07170652    -0.07863877     0.05708910
    125      1      H          -0.04362531     0.05480257     0.02281637
    126      1      H           0.03679223     0.02295826     0.07096751
    127      1      H          -0.01719702     0.03709431     0.07458273
    128      1      H          -0.01734753    -0.07815310     0.06550633
    129      2      O           0.11422652    -0.33454448     0.13503345
    130      2      O           0.19614993    -0.05909757     0.25937543
    131      2      O           0.14635348    -0.15602581     0.23985053
    132      2      O          -0.21005518     0.16726934     0.05636285
    133      2      O           0.08511906    -0.26143820    -0.03474908
    134      2      O          -0.13998774     0.38292844    -0.16091185
    135      2      O           0.11984509    -0.22833035     0.23486246
    136      2      O          -0.23997242     0.24168659     0.16937886
    137      2      O          -0.10169905    -0.24434009    -0.23015336
    138      2      O           0.13109287     0.28410166    -0.18543854
    139      2      O          -0.13863369    -0.26893908     0.25131489
    140      2      O          -0.09390532     0.26531040     0.19843544
    141      2      O          -0.02152121     0.14722550    -0.20337958
    142      2      O           0.15205357    -0.26864142    -0.22591388
    143      2      O          -0.19090871    -0.33974855    -0.14275144
    144      2      O          -0.02312188     0.21295967     0.33704207
    145      2      O           0.20262145    -0.05979814    -0.21693176
    146      2      O          -0.17271546     0.32511534     0.20030581
    147      2      O           0.22550939     0.25230150    -0.20059304
    148      2      O           0.10442865     0.18939673    -0.27956631
    149      2      O           0.16734059     0.32859788     0.16744394
    150      2      O          -0.16658159     0.10064875     0.22551961
    151      2      O          -0.22070329     0.14162882     0.15030071
    152      2      O           0.10321528     0.22478317     0.29690536
    153      2      O          -0.04460383     0.33829659     0.09902609
    154      2      O           0.16821707     0.29731091    -0.16611661
    155      2      O          -0.14140306    -0.15995636    -0.11137307
    156      2      O           0.03832807    -0.08179926    -0.28255145
    157      2      O           0.07049001     0.33115731    -0.20185875
    158      2      O          -0.14084001     0.14959943    -0.11721067
    159      2      O           0.06929352     0.22649551    -0.06300158
    160      2      O          -0.02734676     0.22022588     0.12906521
    161      2      O          -0.16816814     0.22181285     0.11908528
    162      2      O           0.22057190    -0.21920645     0.24026597
    163      2      O          -0.20591334     0.07897294     0.11159196
    164      2      O           0.13649047    -0.04725826     0.30362096
    165      2      O           0.10152080     0.24321639     0.21422081
    166      2      O          -0.05805967    -0.03093343    -0.19518894
    167      2      O           0.15736265    -0.00036164    -0.28625474
    168      2      O           0.13377186    -0.31945389    -0.01751765
    169      2      O           0.15712560     0.27473715    -0.13947188
    170      2      O          -0.06534060     0.11609955     0.01598649
    171      2      O           0.20179642     0.26758597    -0.09724279
    172      2      O          -0.08211952    -0.12007927    -0.25120092
    173      2      O           0.01286524    -0.28173972     0.11748752
    174      2      O           0.11149537     0.17335650     0.21226855
    175      2      O          -0.02960378    -0.32986236     0.24377551
    176      2      O          -0.03953940     0.21072199     0.26786365
    177      2      O          -0.07329248    -0.28707339    -0.20188743
    178      2      O           0.20021999    -0.07832582    -0.01155196
    179      2      O          -0.17405040     0.35072699    -0.11731840
    180      2      O          -0.09948006     0.11078425    -0.23025244
    181      2      O          -0.22273462    -0.39101370     0.21098348
    182      2      O           0.06313873     0.27758369     0.32318478
    183      2      O          -0.05670977     0.07000103     0.12420485
    184      2      O           0.11429329     0.01503650    -0.09249108
    185      2      O           0.15736379     0.10403141    -0.11637208
    186      2      O           0.16961430    -0.02769167     0.28849206
    187      2      O          -0.15787709     0.24492594     0.20171593
    188      2      O           0.13302598     0.07257238     0.26908701
    189      2      O          -0.18201295     0.07998846     0.29866549
    190      2      O           0.12169291     0.02688071     0.10945483
    191      2      O          -0.15001874    -0.01524223     0.21812121
    192      2      O          -0.17958617    -0.37997776     0.06502106
 SUM OF ATOMIC FORCES           0.58022887     0.72493138     7.65176172     7.70789520

 -------------------------------------------------------------------------------
 -                                                                             -
 -                                DBCSR STATISTICS                             -
 -                                                                             -
 -------------------------------------------------------------------------------
 COUNTER                                    TOTAL       BLAS       SMM       ACC
 flops     5 x     5 x   256           1385216000       0.0%    100.0%      0.0%
 flops     5 x    13 x   256           1730892800       0.0%    100.0%      0.0%
 flops    13 x     5 x   256           1734387200       0.0%    100.0%      0.0%
 flops    13 x    13 x   256           2507581440       0.0%    100.0%      0.0%
 flops inhomo. stacks                           0       0.0%      0.0%      0.0%
 flops total                         7.358077E+09       0.0%    100.0%      0.0%
 flops max/rank                      7.358077E+09       0.0%    100.0%      0.0%
 matmuls inhomo. stacks                         0       0.0%      0.0%      0.0%
 matmuls total                             241325       0.0%    100.0%      0.0%
 number of processed stacks                  1400       0.0%    100.0%      0.0%
 average stack size                                     0.0     172.4       0.0
 marketing flops                    38.828769E+09
 -------------------------------------------------------------------------------
 # multiplications                             35
 max memory usage/rank              17.253630E+09
 # max total images/rank                        1
 # max 3D layers                                1
 # MPI messages exchanged                       0
 MPI messages size (bytes):
  total size                         0.000000E+00
  min size                           0.000000E+00
  max size                           0.000000E+00
  average size                       0.000000E+00
 MPI breakdown and total messages size (bytes):
             size <=      128                   0                        0
       128 < size <=     8192                   0                        0
      8192 < size <=    32768                   0                        0
     32768 < size <=   131072                   0                        0
    131072 < size <=  4194304                   0                        0
   4194304 < size <= 16777216                   0                        0
  16777216 < size                               0                        0
 -------------------------------------------------------------------------------

 MEMORY| Estimated peak process memory [MiB]                               16465

 -------------------------------------------------------------------------------
 -                                                                             -
 -                           R E F E R E N C E S                               -
 -                                                                             -
 -------------------------------------------------------------------------------
 
 CP2K version 7.1, the CP2K developers group (2019).
 CP2K is freely available from https://www.cp2k.org/ .

 Schuett, Ole; Messmer, Peter; Hutter, Juerg; VandeVondele, Joost. 
 Electronic Structure Calculations on Graphics Processing Units, John
 Wiley & Sons, Ltd, 173-190 (2016). 
 GPU-Accelerated Sparse Matrix-Matrix Multiplication for
 Linear Scaling Density Functional Theory.
 https://dx.doi.org/10.1002/9781118670712.ch8

 Borstnik, U; VandeVondele, J; Weber, V; Hutter, J. 
 PARALLEL COMPUTING, 40 (5-6), 47-58 (2014). 
 Sparse matrix multiplication: The distributed block-compressed sparse
 row library.
 https://dx.doi.org/10.1016/j.parco.2014.03.012

 Hutter, J; Iannuzzi, M; Schiffmann, F; VandeVondele, J. 
 WIREs Comput Mol Sci., 4 (1), 15-25 (2014). 
 CP2K: atomistic simulations of condensed matter systems.
 https://dx.doi.org/10.1002/wcms.1159

 Krack, M. 
 THEORETICAL CHEMISTRY ACCOUNTS, 114 (1-3), 145-152 (2005). 
 Pseudopotentials for H to Kr optimized for gradient-corrected
 exchange-correlation functionals.
 https://dx.doi.org/10.1007/s00214-005-0655-y

 VandeVondele, J; Krack, M; Mohamed, F; Parrinello, M; Chassaing, T;
 Hutter, J. COMPUTER PHYSICS COMMUNICATIONS, 167 (2), 103-128 (2005). 
 QUICKSTEP: Fast and accurate density functional calculations using a
 mixed Gaussian and plane waves approach.
 https://dx.doi.org/10.1016/j.cpc.2004.12.014

 Frigo, M; Johnson, SG. 
 PROCEEDINGS OF THE IEEE, 93 (2), 216-231 (2005). 
 The design and implementation of FFTW3.
 https://dx.doi.org/10.1109/JPROC.2004.840301

 Hartwigsen, C; Goedecker, S; Hutter, J. 
 PHYSICAL REVIEW B, 58 (7), 3641-3662 (1998). 
 Relativistic separable dual-space Gaussian pseudopotentials from H to Rn.
 https://dx.doi.org/10.1103/PhysRevB.58.3641

 Lippert, G; Hutter, J; Parrinello, M. 
 MOLECULAR PHYSICS, 92 (3), 477-487 (1997). 
 A hybrid Gaussian and plane wave density functional scheme.
 https://dx.doi.org/10.1080/002689797170220

 Goedecker, S; Teter, M; Hutter, J. 
 PHYSICAL REVIEW B, 54 (3), 1703-1710 (1996). 
 Separable dual-space Gaussian pseudopotentials.
 https://dx.doi.org/10.1103/PhysRevB.54.1703


 -------------------------------------------------------------------------------
 -                                                                             -
 -                                T I M I N G                                  -
 -                                                                             -
 -------------------------------------------------------------------------------
 SUBROUTINE                       CALLS  ASD         SELF TIME        TOTAL TIME
                                MAXIMUM       AVERAGE  MAXIMUM  AVERAGE  MAXIMUM
 CP2K                                 1  1.0    0.411    0.411  712.093  712.093
 qs_forces                            1  2.0    0.000    0.000  703.404  703.404
 qs_energies                          1  3.0    0.000    0.000  699.763  699.763
 scf_env_do_scf                       1  4.0    0.000    0.000  690.517  690.517
 scf_env_do_scf_inner_loop           34  5.0    0.047    0.047  690.517  690.517
 gspace_mixing                       33  6.0    3.490    3.490  237.825  237.825
 qs_scf_new_mos                      34  6.0    0.001    0.001  233.601  233.601
 eigensolver                         34  7.0    0.004    0.004  227.260  227.260
 broyden_mixing                      33  7.0  207.734  207.734  207.735  207.735
 cp_fm_syevd                         34  8.0  147.563  147.563  147.739  147.739
 pw_transfer                        454  9.9    0.091    0.091  147.240  147.240
 fft_wrap_pw1pw2                    384 10.9    0.014    0.014  143.399  143.399
 rebuild_ks_matrix                   35  6.9    0.000    0.000  132.345  132.345
 qs_ks_build_kohn_sham_matrix        35  7.9    0.040    0.040  132.345  132.345
 fft_wrap_pw1pw2_60                 174 11.2   11.166   11.166  130.280  130.280
 qs_ks_update_qs_env                 34  6.0    0.001    0.001  128.965  128.965
 qs_rho_update_rho                   35  6.0    0.000    0.000   92.329   92.329
 calculate_rho_elec                  35  7.0   23.875   23.875   92.329   92.329
 cp_fm_cholesky_restore             102  8.0   79.398   79.398   79.398   79.398
 fft3d_s                            385 12.8   72.278   72.278   72.300   72.300
 density_rs2pw                       35  8.0    0.003    0.003   67.635   67.635
 sum_up_and_integrate                35  8.9    1.653    1.653   46.119   46.119
 integrate_v_rspace                  35  9.9    6.149    6.149   44.465   44.465
 pw_scatter_s                       208 13.1   41.110   41.110   41.110   41.110
 potential_pw2rs                     35 10.9    0.314    0.314   37.237   37.237
 pw_poisson_solve                    35  8.9   30.697   30.697   34.677   34.677
 qs_vxc_create                       35  8.9    0.001    0.001   18.245   18.245
 xc_vxc_pw_create                    35  9.9    3.691    3.691   18.244   18.244
 pw_gather_s                        176 12.6   17.324   17.324   17.324   17.324
 xc_rho_set_and_dset_create          35 10.9    0.001    0.001   14.553   14.553
 -------------------------------------------------------------------------------

 The number of warnings for this run is : 0
 
 -------------------------------------------------------------------------------
  **** **** ******  **  PROGRAM ENDED AT                 2020-05-06 02:23:30.132
 ***** ** ***  *** **   PROGRAM RAN ON                                   gnode19
 **    ****   ******    PROGRAM RAN BY                               mayank.modi
 ***** **    ** ** **   PROGRAM PROCESS ID                                 13733
  **** **  *******  **  PROGRAM STOPPED IN /home/mayank.modi/ab-initio-thermodyn
                                           amics-of-water/mayank/cp2k_energy_cal
                                           culations
