 DBCSR| CPU Multiplication driver                                           XSMM
 DBCSR| Multrec recursion limit                                              512
 DBCSR| Multiplication stack size                                           1000
 DBCSR| Maximum elements for images                                    UNLIMITED
 DBCSR| Multiplicative factor virtual images                                   1
 DBCSR| Use multiplication densification                                       T
 DBCSR| Multiplication size stacks                                             3


  **** **** ******  **  PROGRAM STARTED AT               2020-05-24 19:21:12.067
 ***** ** ***  *** **   PROGRAM STARTED ON                               gnode20
 **    ****   ******    PROGRAM STARTED BY                           mayank.modi
 ***** **    ** ** **   PROGRAM PROCESS ID                                  8548
  **** **  *******  **  PROGRAM STARTED IN /home/mayank.modi/ab-initio-thermodyn
                                           amics-of-water/mayank/cp2k_energy_cal
                                           culations

 CP2K| version string:                                          CP2K version 7.1
 CP2K| source code revision number:                                  git:e635599
 CP2K| cp2kflags: omp libint fftw3 libxc xsmm spglib                            
 CP2K| is freely available from                            https://www.cp2k.org/
 CP2K| Program compiled at                          Mon Dec 23 19:23:12 CET 2019
 CP2K| Program compiled on                                                pc9404
 CP2K| Program compiled for                                Linux-x86-64-gfortran
 CP2K| Data directory path                                        /opt/cp2k/data
 CP2K| Input file name                                  input_training/input1.in

 GLOBAL| Force Environment number                                              1
 GLOBAL| Basis set file name                                           BASIS_SET
 GLOBAL| Potential file name                                      GTH_POTENTIALS
 GLOBAL| MM Potential file name                                     MM_POTENTIAL
 GLOBAL| Coordinate file name                                      __STD_INPUT__
 GLOBAL| Method name                                                        CP2K
 GLOBAL| Project name                                                   H2O_bulk
 GLOBAL| Preferred FFT library                                             FFTW3
 GLOBAL| Preferred diagonalization lib.                                       SL
 GLOBAL| Run type                                                   ENERGY_FORCE
 GLOBAL| All-to-all communication in single precision                          F
 GLOBAL| FFTs using library dependent lengths                                  F
 GLOBAL| Global print level                                                  LOW
 GLOBAL| MPI I/O enabled                                                       T
 GLOBAL| Total number of message passing processes                             1
 GLOBAL| Number of threads for this process                                   20
 GLOBAL| This output is from process                                           0
 GLOBAL| CPU model name                Intel(R) Xeon(R) CPU E5-2640 v4 @ 2.40GHz
 GLOBAL| CPUID                                                              1002
 GLOBAL| Compiled for CPUID                                                    0
 HINT in environment.F:814 The compiler target flags (generic) used to build
   this binary cannot exploit all extensions of this CPU model (x86_avx2).
   Consider compiler target flags as part of FCFLAGS and CFLAGS (ARCH file).

 MEMORY| system memory details [Kb]
 MEMORY|                        rank 0           min           max       average
 MEMORY| MemTotal            131897668     131897668     131897668     131897668
 MEMORY| MemFree              81382676      81382676      81382676      81382676
 MEMORY| Buffers               3316652       3316652       3316652       3316652
 MEMORY| Cached               27286856      27286856      27286856      27286856
 MEMORY| Slab                 14893868      14893868      14893868      14893868
 MEMORY| SReclaimable         14447544      14447544      14447544      14447544
 MEMORY| MemLikelyFree       126433728     126433728     126433728     126433728


 GENERATE| WARNING:: No connections detected for Hydrogen - Atom Nr:        21 !
 GENERATE| WARNING:: No connections detected for Hydrogen - Atom Nr:        42 !
 GENERATE| WARNING:: No connections detected for Hydrogen - Atom Nr:        51 !
 GENERATE| WARNING:: No connections detected for Hydrogen - Atom Nr:        77 !
 GENERATE| WARNING:: No connections detected for Hydrogen - Atom Nr:       101 !
 GENERATE| WARNING:: No connections detected for Hydrogen - Atom Nr:       143 !
 GENERATE| WARNING:: No connections detected for Hydrogen - Atom Nr:       153 !
 GENERATE| WARNING:: No connections detected for Hydrogen - Atom Nr:       176 !
 GENERATE| WARNING:: No connections detected for Hydrogen - Atom Nr:       179 !
 GENERATE| WARNING:: No connections detected for Hydrogen - Atom Nr:       191 !
 GENERATE|  Preliminary Number of Bonds generated:                             0
 GENERATE|  Achieved consistency in connectivity generation.

 *******************************************************************************
 *******************************************************************************
 **                                                                           **
 **     #####                         ##              ##                      **
 **    ##   ##            ##          ##              ##                      **
 **   ##     ##                       ##            ######                    **
 **   ##     ##  ##   ##  ##   #####  ##  ##   ####   ##    #####    #####    **
 **   ##     ##  ##   ##  ##  ##      ## ##   ##      ##   ##   ##  ##   ##   **
 **   ##  ## ##  ##   ##  ##  ##      ####     ###    ##   ######   ######    **
 **    ##  ###   ##   ##  ##  ##      ## ##      ##   ##   ##       ##        **
 **     #######   #####   ##   #####  ##  ##  ####    ##    #####   ##        **
 **           ##                                                    ##        **
 **                                                                           **
 **                                                ... make the atoms dance   **
 **                                                                           **
 **            Copyright (C) by CP2K developers group (2000 - 2019)           **
 **                                                                           **
 *******************************************************************************


 TOTAL NUMBERS AND MAXIMUM NUMBERS

  Total number of            - Atomic kinds:                                   2
                             - Atoms:                                        192
                             - Shell sets:                                   384
                             - Shells:                                       704
                             - Primitive Cartesian functions:                960
                             - Cartesian basis functions:                   1536
                             - Spherical basis functions:                   1472

  Maximum angular momentum of- Orbital basis functions:                        2
                             - Local part of the GTH pseudopotential:          2
                             - Non-local part of the GTH pseudopotential:      0


 SCF PARAMETERS         Density guess:                                    ATOMIC
                        --------------------------------------------------------
                        max_scf:                                             300
                        max_scf_history:                                       0
                        max_diis:                                              4
                        --------------------------------------------------------
                        eps_scf:                                        1.00E-07
                        eps_scf_history:                                0.00E+00
                        eps_diis:                                       1.00E-01
                        eps_eigval:                                     1.00E-05
                        --------------------------------------------------------
                        level_shift [a.u.]:                                 0.00
                        --------------------------------------------------------
                        Mixing method:                            BROYDEN_MIXING
                                                charge density mixing in g-space
                        --------------------------------------------------------
                        No outer SCF

 Number of electrons:                                                        512
 Number of occupied orbitals:                                                256
 Number of molecular orbitals:                                               256

 Number of orbital functions:                                               1472
 Number of independent orbital functions:                                   1472

 Extrapolation method: initial_guess


 SCF WAVEFUNCTION OPTIMIZATION

  Step     Update method      Time    Convergence         Total energy    Change
  ------------------------------------------------------------------------------
     1 NoMix/Diag. 0.40E+00    9.5     0.68793960     -1063.4978071808 -1.06E+03
     2 Broy./Diag. 0.40E+00   13.2     1.95668529      -985.6799428049  7.78E+01
     3 Broy./Diag. 0.40E+00   14.5     1.92529455     -1290.8617473248 -3.05E+02
     4 Broy./Diag. 0.40E+00   14.9     1.86802244     -1153.3513130851  1.38E+02
     5 Broy./Diag. 0.40E+00   15.5     1.96548905     -1113.2379509135  4.01E+01
     6 Broy./Diag. 0.40E+00   15.9     2.02699000     -1086.6293580987  2.66E+01
     7 Broy./Diag. 0.40E+00   17.7     1.86720663     -1107.6853449604 -2.11E+01
     8 Broy./Diag. 0.40E+00   17.3     1.98681668     -1089.4930134565  1.82E+01
     9 Broy./Diag. 0.40E+00   19.0     1.84448420     -1078.6365171889  1.09E+01
    10 Broy./Diag. 0.40E+00   20.0     1.84321056     -1082.1135756004 -3.48E+00
    11 Broy./Diag. 0.40E+00   19.1     1.83611555     -1082.1569056969 -4.33E-02
    12 Broy./Diag. 0.40E+00   20.8     1.90369251     -1079.9407772332  2.22E+00
    13 Broy./Diag. 0.40E+00   19.1     1.86654879     -1058.7175923505  2.12E+01
    14 Broy./Diag. 0.40E+00   19.7     1.88850206     -1078.9602493797 -2.02E+01
    15 Broy./Diag. 0.40E+00   20.2     1.90190495     -1079.4510747718 -4.91E-01
    16 Broy./Diag. 0.40E+00   18.9     1.86203327     -1082.2686721271 -2.82E+00
    17 Broy./Diag. 0.40E+00   19.8     1.88434024     -1069.0499580024  1.32E+01
    18 Broy./Diag. 0.40E+00   19.9     1.95768851     -1078.5747029179 -9.52E+00
    19 Broy./Diag. 0.40E+00   19.1     1.87150938     -1078.7612503982 -1.87E-01
    20 Broy./Diag. 0.40E+00   20.0     1.88266615     -1082.3518058799 -3.59E+00
    21 Broy./Diag. 0.40E+00   19.8     1.92674007     -1068.7327759580  1.36E+01
    22 Broy./Diag. 0.40E+00   19.2     1.84679636     -1084.0603347793 -1.53E+01
    23 Broy./Diag. 0.40E+00   20.0     1.86014739     -1081.2065483916  2.85E+00
    24 Broy./Diag. 0.40E+00   19.8     1.93414870     -1064.3672161602  1.68E+01
    25 Broy./Diag. 0.40E+00   19.0     1.92265693     -1084.3009871826 -1.99E+01
    26 Broy./Diag. 0.40E+00   19.7     1.90850387     -1071.2424422924  1.31E+01
    27 Broy./Diag. 0.40E+00   20.1     1.86637902     -1074.0571920166 -2.81E+00
    28 Broy./Diag. 0.40E+00   18.9     1.82738579     -1072.4086104692  1.65E+00
    29 Broy./Diag. 0.40E+00   19.6     1.90120896     -1075.3847455223 -2.98E+00
    30 Broy./Diag. 0.40E+00   20.3     1.93274231     -1084.3909312141 -9.01E+00
    31 Broy./Diag. 0.40E+00   18.9     1.93274715     -1066.4572716608  1.79E+01
    32 Broy./Diag. 0.40E+00   19.4     1.93206655     -1076.1426789466 -9.69E+00
    33 Broy./Diag. 0.40E+00   20.5     1.88327182     -1077.7533493196 -1.61E+00
    34 Broy./Diag. 0.40E+00   18.9     1.92544717     -1067.8255495230  9.93E+00
    35 Broy./Diag. 0.40E+00   19.2     1.90601195     -1081.4078666966 -1.36E+01
    36 Broy./Diag. 0.40E+00   20.3     1.88560944     -1078.6216697368  2.79E+00
    37 Broy./Diag. 0.40E+00   19.2     1.94288105     -1069.8649047918  8.76E+00
    38 Broy./Diag. 0.40E+00   19.1     1.83140060     -1074.5416918052 -4.68E+00
    39 Broy./Diag. 0.40E+00   20.3     1.89438843     -1069.4846729563  5.06E+00
    40 Broy./Diag. 0.40E+00   19.4     1.95409181     -1070.8975358419 -1.41E+00
    41 Broy./Diag. 0.40E+00   19.2     1.86823954     -1080.0113117818 -9.11E+00
    42 Broy./Diag. 0.40E+00   20.0     1.89486246     -1077.8760312689  2.14E+00
    43 Broy./Diag. 0.40E+00   19.7     1.93874760     -1069.4258778766  8.45E+00
    44 Broy./Diag. 0.40E+00   19.2     1.86892804     -1076.5986761148 -7.17E+00
    45 Broy./Diag. 0.40E+00   20.0     1.88689544     -1063.6764284314  1.29E+01
    46 Broy./Diag. 0.40E+00   19.9     1.93132575     -1090.8087223656 -2.71E+01
    47 Broy./Diag. 0.40E+00   18.9     1.88941233     -1073.9563290382  1.69E+01
    48 Broy./Diag. 0.40E+00   19.8     1.95471845     -1063.7101247590  1.02E+01
    49 Broy./Diag. 0.40E+00   20.0     1.85471953     -1083.7387905505 -2.00E+01
    50 Broy./Diag. 0.40E+00   19.0     1.89161605     -1082.2980758187  1.44E+00
    51 Broy./Diag. 0.40E+00   19.8     1.93094637     -1065.6157896096  1.67E+01
    52 Broy./Diag. 0.40E+00   20.1     1.96063179     -1084.2943399482 -1.87E+01
    53 Broy./Diag. 0.40E+00   18.9     1.60737014     -1070.3204831037  1.40E+01
    54 Broy./Diag. 0.40E+00   19.8     1.83769107     -1075.4763099022 -5.16E+00
    55 Broy./Diag. 0.40E+00   20.2     1.94057853     -1058.2076948614  1.73E+01
    56 Broy./Diag. 0.40E+00   18.9     1.88260851     -1084.5244792410 -2.63E+01
    57 Broy./Diag. 0.40E+00   19.6     1.93060294     -1088.4429768960 -3.92E+00
    58 Broy./Diag. 0.40E+00   20.3     1.93060703     -1075.0424080686  1.34E+01
    59 Broy./Diag. 0.40E+00   18.9     1.94532639     -1076.0215449614 -9.79E-01
    60 Broy./Diag. 0.40E+00   19.5     1.92111314     -1073.0042659776  3.02E+00
    61 Broy./Diag. 0.40E+00   20.3     1.88985319     -1076.8905604208 -3.89E+00
    62 Broy./Diag. 0.40E+00   18.9     1.95122780     -1062.9473724263  1.39E+01
    63 Broy./Diag. 0.40E+00   19.2     1.93126365     -1087.0017788732 -2.41E+01
    64 Broy./Diag. 0.40E+00   20.3     1.83943576     -1070.3959010951  1.66E+01
    65 Broy./Diag. 0.40E+00   19.2     1.87463841     -1081.5588858147 -1.12E+01
    66 Broy./Diag. 0.40E+00   19.1     1.85327287     -1075.9744225422  5.58E+00
    67 Broy./Diag. 0.40E+00   20.3     1.92385490     -1075.0278802027  9.47E-01
    68 Broy./Diag. 0.40E+00   19.3     1.91046511     -1065.0598699349  9.97E+00
    69 Broy./Diag. 0.40E+00   19.1     1.90353908     -1066.6714019110 -1.61E+00
    70 Broy./Diag. 0.40E+00   20.2     1.88717334     -1082.2575663544 -1.56E+01
    71 Broy./Diag. 0.40E+00   19.5     1.87856267     -1080.4595282766  1.80E+00
    72 Broy./Diag. 0.40E+00   19.2     1.87415734     -1067.6674630585  1.28E+01
    73 Broy./Diag. 0.40E+00   20.0     1.88848467     -1073.8210640895 -6.15E+00
    74 Broy./Diag. 0.40E+00   19.7     1.98708116     -1071.4778546257  2.34E+00
    75 Broy./Diag. 0.40E+00   19.1     1.84064556     -1073.1986142120 -1.72E+00
    76 Broy./Diag. 0.40E+00   20.0     1.89783698     -1074.5514089767 -1.35E+00
    77 Broy./Diag. 0.40E+00   19.8     1.92726997     -1067.1180744186  7.43E+00
    78 Broy./Diag. 0.40E+00   19.0     1.89639414     -1084.5939467292 -1.75E+01
    79 Broy./Diag. 0.40E+00   19.9     1.89753781     -1071.4194331930  1.32E+01
    80 Broy./Diag. 0.40E+00   20.0     1.95043149     -1087.0325602150 -1.56E+01
    81 Broy./Diag. 0.40E+00   18.9     1.94192550     -1073.4341623051  1.36E+01
    82 Broy./Diag. 0.40E+00   19.7     1.90476103     -1069.0673326193  4.37E+00
    83 Broy./Diag. 0.40E+00   20.2     1.96756953     -1066.3650505889  2.70E+00
    84 Broy./Diag. 0.40E+00   18.9     1.84681023     -1063.7357702599  2.63E+00
    85 Broy./Diag. 0.40E+00   19.6     1.91336650     -1081.1792272474 -1.74E+01
    86 Broy./Diag. 0.40E+00   20.3     1.93117011     -1087.0872758936 -5.91E+00
    87 Broy./Diag. 0.40E+00   18.9     1.92850032     -1075.2857009628  1.18E+01
    88 Broy./Diag. 0.40E+00   19.6     1.92283819     -1060.3306235249  1.50E+01
    89 Broy./Diag. 0.40E+00   20.3     1.82330417     -1066.5074196020 -6.18E+00
    90 Broy./Diag. 0.40E+00   18.9     1.93015873     -1066.6871938451 -1.80E-01
    91 Broy./Diag. 0.40E+00   19.6     1.89111184     -1079.5867010045 -1.29E+01
    92 Broy./Diag. 0.40E+00   20.3     1.90650808     -1079.7449526265 -1.58E-01
    93 Broy./Diag. 0.40E+00   18.9     1.86116560     -1071.9973409250  7.75E+00
    94 Broy./Diag. 0.40E+00   19.3     1.89480574     -1084.2055371518 -1.22E+01
    95 Broy./Diag. 0.40E+00   20.5     1.92925806     -1070.1543121710  1.41E+01
    96 Broy./Diag. 0.40E+00   18.9     1.91751783     -1074.9547643805 -4.80E+00
    97 Broy./Diag. 0.40E+00   19.1     1.91124468     -1074.1853788134  7.69E-01
    98 Broy./Diag. 0.40E+00   20.3     1.94988250     -1082.6474136060 -8.46E+00
    99 Broy./Diag. 0.40E+00   19.2     1.94190145     -1076.9468298951  5.70E+00
   100 Broy./Diag. 0.40E+00   19.1     1.85193195     -1063.4124360906  1.35E+01
   101 Broy./Diag. 0.40E+00   20.1     1.86638776     -1064.2162050985 -8.04E-01
   102 Broy./Diag. 0.40E+00   19.6     1.92539718     -1072.5748774150 -8.36E+00
   103 Broy./Diag. 0.40E+00   19.1     1.87767738     -1076.2483714393 -3.67E+00
   104 Broy./Diag. 0.40E+00   19.9     1.87027337     -1069.6510631866  6.60E+00
   105 Broy./Diag. 0.40E+00   19.9     1.95908048     -1086.6768447741 -1.70E+01
   106 Broy./Diag. 0.40E+00   18.9     1.88762876     -1072.7223118873  1.40E+01
   107 Broy./Diag. 0.40E+00   19.8     1.90604292     -1071.7122311074  1.01E+00
   108 Broy./Diag. 0.40E+00   20.1     1.92360527     -1074.5849099025 -2.87E+00
   109 Broy./Diag. 0.40E+00   19.0     1.74742984     -1079.3838170478 -4.80E+00
   110 Broy./Diag. 0.40E+00   19.7     1.93099805     -1073.0448841969  6.34E+00
   111 Broy./Diag. 0.40E+00   20.2     1.90129198     -1067.1093786885  5.94E+00
   112 Broy./Diag. 0.40E+00   18.9     1.89103241     -1085.4574795974 -1.83E+01
   113 Broy./Diag. 0.40E+00   19.5     1.86232586     -1077.4965154122  7.96E+00
   114 Broy./Diag. 0.40E+00   20.4     1.90619624     -1069.1157225683  8.38E+00
   115 Broy./Diag. 0.40E+00   18.9     1.85122609     -1072.2367494840 -3.12E+00
   116 Broy./Diag. 0.40E+00   19.2     1.94511576     -1082.8467180258 -1.06E+01
   117 Broy./Diag. 0.40E+00   20.2     1.90315757     -1071.6317342827  1.12E+01
   118 Broy./Diag. 0.40E+00   19.2     1.87062808     -1068.2407008397  3.39E+00
   119 Broy./Diag. 0.40E+00   19.1     1.88750964     -1085.1689403884 -1.69E+01
   120 Broy./Diag. 0.40E+00   20.1     1.91752812     -1072.7901112554  1.24E+01
   121 Broy./Diag. 0.40E+00   19.6     1.91753207     -1070.7664140180  2.02E+00
   122 Broy./Diag. 0.40E+00   19.2     1.95234273     -1081.6089301227 -1.08E+01
   123 Broy./Diag. 0.40E+00   20.0     1.84307784     -1072.3380290750  9.27E+00
   124 Broy./Diag. 0.40E+00   19.8     1.90740457     -1075.0331925739 -2.70E+00
   125 Broy./Diag. 0.40E+00   19.1     1.87322566     -1074.1376277523  8.96E-01
   126 Broy./Diag. 0.40E+00   19.9     1.92357063     -1077.8745022487 -3.74E+00
   127 Broy./Diag. 0.40E+00   19.9     1.87653337     -1070.9817378444  6.89E+00
   128 Broy./Diag. 0.40E+00   18.9     1.90652101     -1066.2116650434  4.77E+00
   129 Broy./Diag. 0.40E+00   19.8     1.93831976     -1082.1214772170 -1.59E+01
   130 Broy./Diag. 0.40E+00   20.0     1.81384019     -1074.7429915273  7.38E+00
   131 Broy./Diag. 0.40E+00   18.9     1.89588890     -1073.4093118709  1.33E+00
   132 Broy./Diag. 0.40E+00   19.7     1.91558699     -1079.5089712308 -6.10E+00
   133 Broy./Diag. 0.40E+00   20.2     1.91559912     -1067.5490065838  1.20E+01
   134 Broy./Diag. 0.40E+00   18.9     1.94206945     -1083.6469849331 -1.61E+01
   135 Broy./Diag. 0.40E+00   19.4     1.87436030     -1068.8404094309  1.48E+01
   136 Broy./Diag. 0.40E+00   20.3     1.88106824     -1075.3222322387 -6.48E+00
   137 Broy./Diag. 0.40E+00   19.1     1.89107058     -1069.6863605489  5.64E+00
   138 Broy./Diag. 0.40E+00   19.1     1.97325277     -1072.8177262366 -3.13E+00
   139 Broy./Diag. 0.40E+00   20.3     1.87810083     -1074.8598695341 -2.04E+00
   140 Broy./Diag. 0.40E+00   19.3     1.90247771     -1084.9140268580 -1.01E+01
   141 Broy./Diag. 0.40E+00   19.1     1.78099406     -1069.0035986875  1.59E+01
   142 Broy./Diag. 0.40E+00   20.2     1.79532941     -1068.1207521021  8.83E-01
   143 Broy./Diag. 0.40E+00   19.5     1.87001884     -1067.8233170973  2.97E-01
   144 Broy./Diag. 0.40E+00   19.2     1.91320758     -1075.3312922746 -7.51E+00
   145 Broy./Diag. 0.40E+00   19.9     1.91256283     -1073.8377492031  1.49E+00
   146 Broy./Diag. 0.40E+00   19.8     1.99579157     -1070.0413559691  3.80E+00
   147 Broy./Diag. 0.40E+00   19.1     1.93173982     -1077.0795954550 -7.04E+00
   148 Broy./Diag. 0.40E+00   19.9     1.90547443     -1069.5358473955  7.54E+00
   149 Broy./Diag. 0.40E+00   20.0     1.91141613     -1085.3414258656 -1.58E+01
   150 Broy./Diag. 0.40E+00   18.9     1.87028308     -1070.1558722432  1.52E+01
   151 Broy./Diag. 0.40E+00   19.8     1.98084867     -1061.3346574712  8.82E+00
   152 Broy./Diag. 0.40E+00   20.1     1.88120828     -1081.5326713761 -2.02E+01
   153 Broy./Diag. 0.40E+00   19.0     1.88406716     -1073.6390461719  7.89E+00
   154 Broy./Diag. 0.40E+00   19.7     1.86915342     -1079.4662937758 -5.83E+00
   155 Broy./Diag. 0.40E+00   20.2     1.85792032     -1075.1441877569  4.32E+00
   156 Broy./Diag. 0.40E+00   18.9     1.87056343     -1076.6088663815 -1.46E+00
   157 Broy./Diag. 0.40E+00   19.7     1.95738832     -1081.3353155841 -4.73E+00
   158 Broy./Diag. 0.40E+00   20.3     1.91121173     -1063.5263237303  1.78E+01
   159 Broy./Diag. 0.40E+00   18.9     1.86285101     -1063.6476586898 -1.21E-01
   160 Broy./Diag. 0.40E+00   19.5     1.93633474     -1080.2338549265 -1.66E+01
   161 Broy./Diag. 0.40E+00   20.4     1.93401721     -1080.1138571257  1.20E-01
   162 Broy./Diag. 0.40E+00   18.9     1.91282548     -1074.5711965697  5.54E+00
   163 Broy./Diag. 0.40E+00   19.2     1.95109147     -1083.6098501555 -9.04E+00
   164 Broy./Diag. 0.40E+00   20.3     1.89100822     -1064.5057201206  1.91E+01
   165 Broy./Diag. 0.40E+00   19.1     1.91719727     -1070.9658848593 -6.46E+00
   166 Broy./Diag. 0.40E+00   19.0     1.94100213     -1073.2821085380 -2.32E+00
   167 Broy./Diag. 0.40E+00   20.2     1.85850886     -1083.2310921206 -9.95E+00
   168 Broy./Diag. 0.40E+00   19.5     1.89881972     -1081.7950477115  1.44E+00
   169 Broy./Diag. 0.40E+00   19.2     1.88607812     -1069.4760195521  1.23E+01
   170 Broy./Diag. 0.40E+00   19.9     1.93110304     -1078.8992726169 -9.42E+00
   171 Broy./Diag. 0.40E+00   19.8     1.87824786     -1060.8259540067  1.81E+01
   172 Broy./Diag. 0.40E+00   19.0     1.85731701     -1074.2272098711 -1.34E+01
   173 Broy./Diag. 0.40E+00   19.8     1.89457971     -1068.9143664105  5.31E+00
   174 Broy./Diag. 0.40E+00   20.0     1.92107711     -1090.8449000854 -2.19E+01
   175 Broy./Diag. 0.40E+00   19.0     1.97586410     -1076.9508574325  1.39E+01
   176 Broy./Diag. 0.40E+00   19.7     1.91646531     -1067.0163849004  9.93E+00
   177 Broy./Diag. 0.40E+00   20.1     1.89159814     -1076.0144836709 -9.00E+00
   178 Broy./Diag. 0.40E+00   18.9     1.90476722     -1081.7464249388 -5.73E+00
   179 Broy./Diag. 0.40E+00   19.7     1.93797693     -1075.3119939869  6.43E+00
   180 Broy./Diag. 0.40E+00   20.3     1.88680001     -1069.6405567438  5.67E+00
   181 Broy./Diag. 0.40E+00   18.9     1.91340215     -1068.8872123965  7.53E-01
   182 Broy./Diag. 0.40E+00   19.3     1.90122845     -1064.7746037394  4.11E+00
   183 Broy./Diag. 0.40E+00   20.4     1.92606222     -1090.8871410986 -2.61E+01
   184 Broy./Diag. 0.40E+00   19.0     1.88964610     -1071.2788885250  1.96E+01
   185 Broy./Diag. 0.40E+00   19.1     1.94120955     -1070.8321777206  4.47E-01
   186 Broy./Diag. 0.40E+00   20.3     1.83875255     -1069.5764163098  1.26E+00
   187 Broy./Diag. 0.40E+00   19.3     1.88513701     -1071.2509466584 -1.67E+00
   188 Broy./Diag. 0.40E+00   19.2     1.91834316     -1075.7135729478 -4.46E+00
   189 Broy./Diag. 0.40E+00   20.0     1.90830616     -1074.5431658350  1.17E+00
   190 Broy./Diag. 0.40E+00   19.7     1.90057786     -1072.9381422506  1.61E+00
   191 Broy./Diag. 0.40E+00   19.2     1.93133639     -1074.4461126819 -1.51E+00
   192 Broy./Diag. 0.40E+00   19.9     1.82090357     -1075.3003182502 -8.54E-01
   193 Broy./Diag. 0.40E+00   19.8     1.87816460     -1069.1992338319  6.10E+00
   194 Broy./Diag. 0.40E+00   19.0     1.92123400     -1089.9757967836 -2.08E+01
   195 Broy./Diag. 0.40E+00   19.8     2.00012182     -1067.0139968193  2.30E+01
   196 Broy./Diag. 0.40E+00   20.1     1.85049003     -1059.0388726020  7.98E+00
   197 Broy./Diag. 0.40E+00   19.0     1.91496392     -1085.9490158829 -2.69E+01
   198 Broy./Diag. 0.40E+00   19.7     1.84191920     -1073.6325548451  1.23E+01
   199 Broy./Diag. 0.40E+00   20.2     1.90963438     -1065.4396712750  8.19E+00
   200 Broy./Diag. 0.40E+00   18.9     1.91014730     -1082.6563148333 -1.72E+01
   201 Broy./Diag. 0.40E+00   19.6     1.86138933     -1080.7736507609  1.88E+00
   202 Broy./Diag. 0.40E+00   20.3     1.89914142     -1068.6998469803  1.21E+01
   203 Broy./Diag. 0.40E+00   18.9     1.87152300     -1066.5078440331  2.19E+00
   204 Broy./Diag. 0.40E+00   19.5     1.94740391     -1064.8849286176  1.62E+00
   205 Broy./Diag. 0.40E+00   20.4     1.88874901     -1073.3385982411 -8.45E+00
   206 Broy./Diag. 0.40E+00   18.9     1.91825303     -1080.4923488269 -7.15E+00
   207 Broy./Diag. 0.40E+00   19.2     1.88217293     -1085.7457248240 -5.25E+00
   208 Broy./Diag. 0.40E+00   20.3     1.89018808     -1062.1631260545  2.36E+01
   209 Broy./Diag. 0.40E+00   19.1     1.86392291     -1072.7312638507 -1.06E+01
   210 Broy./Diag. 0.40E+00   19.1     1.88320755     -1075.0811439521 -2.35E+00
   211 Broy./Diag. 0.40E+00   20.3     1.90120449     -1079.6521960122 -4.57E+00
   212 Broy./Diag. 0.40E+00   19.4     1.88141680     -1065.2121149877  1.44E+01
   213 Broy./Diag. 0.40E+00   19.2     1.90928213     -1083.1760429312 -1.80E+01
   214 Broy./Diag. 0.40E+00   20.0     1.91269501     -1084.5277783542 -1.35E+00
   215 Broy./Diag. 0.40E+00   19.7     1.93110601     -1072.6958524294  1.18E+01
   216 Broy./Diag. 0.40E+00   19.2     1.87288959     -1068.3228272083  4.37E+00
   217 Broy./Diag. 0.40E+00   19.9     1.93038070     -1078.5986390710 -1.03E+01
   218 Broy./Diag. 0.40E+00   19.9     1.86958856     -1075.9469074833  2.65E+00
   219 Broy./Diag. 0.40E+00   18.9     1.97344996     -1075.9436903493  3.22E-03
   220 Broy./Diag. 0.40E+00   19.8     1.87949227     -1067.3864374538  8.56E+00
   221 Broy./Diag. 0.40E+00   20.0     1.93250204     -1073.1241913565 -5.74E+00
   222 Broy./Diag. 0.40E+00   19.0     1.82512340     -1076.1883874027 -3.06E+00
   223 Broy./Diag. 0.40E+00   19.7     1.90981798     -1062.1470081089  1.40E+01
   224 Broy./Diag. 0.40E+00   20.1     1.87250890     -1091.4072053139 -2.93E+01
   225 Broy./Diag. 0.40E+00   18.9     1.88962310     -1077.5748374062  1.38E+01
   226 Broy./Diag. 0.40E+00   19.7     1.89029410     -1068.8063308169  8.77E+00
   227 Broy./Diag. 0.40E+00   20.2     1.92914855     -1071.1569672670 -2.35E+00
   228 Broy./Diag. 0.40E+00   18.9     1.92915044     -1071.6730544334 -5.16E-01
   229 Broy./Diag. 0.40E+00   19.5     1.94906995     -1080.0371752942 -8.36E+00
   230 Broy./Diag. 0.40E+00   20.4     1.93116151     -1073.0017937463  7.04E+00
   231 Broy./Diag. 0.40E+00   18.9     1.80641730     -1077.3490236917 -4.35E+00
   232 Broy./Diag. 0.40E+00   19.2     1.84296626     -1075.8306489262  1.52E+00
   233 Broy./Diag. 0.40E+00   20.2     1.89124154     -1066.2534744412  9.58E+00
   234 Broy./Diag. 0.40E+00   19.2     1.93256315     -1072.5795410726 -6.33E+00
   235 Broy./Diag. 0.40E+00   19.1     1.89587740     -1079.1956933206 -6.62E+00
   236 Broy./Diag. 0.40E+00   20.1     1.90768770     -1072.9521081336  6.24E+00
   237 Broy./Diag. 0.40E+00   19.5     1.90767444     -1069.8723202663  3.08E+00
   238 Broy./Diag. 0.40E+00   19.1     1.95368544     -1077.1476410291 -7.28E+00
   239 Broy./Diag. 0.40E+00   19.9     1.88717834     -1072.0097626348  5.14E+00
   240 Broy./Diag. 0.40E+00   19.8     1.86571385     -1086.3968075860 -1.44E+01
   241 Broy./Diag. 0.40E+00   19.1     1.82730226     -1071.1666765208  1.52E+01
   242 Broy./Diag. 0.40E+00   19.8     1.91188377     -1058.2638727328  1.29E+01
   243 Broy./Diag. 0.40E+00   19.9     1.89205680     -1089.2002023473 -3.09E+01
   244 Broy./Diag. 0.40E+00   19.0     1.92503952     -1073.3053724808  1.59E+01
   245 Broy./Diag. 0.40E+00   19.7     1.96195048     -1083.4629638805 -1.02E+01
   246 Broy./Diag. 0.40E+00   20.1     1.76840491     -1073.9011239839  9.56E+00
   247 Broy./Diag. 0.40E+00   18.8     1.88753596     -1072.9483824992  9.53E-01
   248 Broy./Diag. 0.40E+00   19.6     1.97355288     -1072.5097529846  4.39E-01
   249 Broy./Diag. 0.40E+00   20.3     1.96638430     -1059.9873928842  1.25E+01
   250 Broy./Diag. 0.40E+00   18.9     1.85560298     -1083.7956623725 -2.38E+01
   251 Broy./Diag. 0.40E+00   19.6     1.89112911     -1081.1083859558  2.69E+00
   252 Broy./Diag. 0.40E+00   20.3     1.95717603     -1074.5203788299  6.59E+00
   253 Broy./Diag. 0.40E+00   18.9     1.91262885     -1065.9691325371  8.55E+00
   254 Broy./Diag. 0.40E+00   19.3     1.87400997     -1068.4778895526 -2.51E+00
   255 Broy./Diag. 0.40E+00   20.4     1.78411697     -1072.8486594978 -4.37E+00
   256 Broy./Diag. 0.40E+00   19.0     1.86458475     -1078.1049392481 -5.26E+00
   257 Broy./Diag. 0.40E+00   19.1     1.95715118     -1080.0430336976 -1.94E+00
   258 Broy./Diag. 0.40E+00   20.2     1.84131419     -1075.3511850593  4.69E+00
   259 Broy./Diag. 0.40E+00   19.3     1.96586811     -1067.5603913708  7.79E+00
   260 Broy./Diag. 0.40E+00   19.0     1.91867836     -1072.4516206201 -4.89E+00
   261 Broy./Diag. 0.40E+00   20.2     1.90536747     -1067.1162040966  5.34E+00
   262 Broy./Diag. 0.40E+00   19.5     1.96732689     -1082.0498083459 -1.49E+01
   263 Broy./Diag. 0.40E+00   19.2     1.94211586     -1070.9685785886  1.11E+01
   264 Broy./Diag. 0.40E+00   20.0     1.91158509     -1073.2841908493 -2.32E+00
   265 Broy./Diag. 0.40E+00   19.8     1.84889443     -1077.5303240886 -4.25E+00
   266 Broy./Diag. 0.40E+00   19.0     1.93544746     -1066.2368436002  1.13E+01
   267 Broy./Diag. 0.40E+00   19.8     1.99814647     -1082.0581013707 -1.58E+01
   268 Broy./Diag. 0.40E+00   20.0     1.99814144     -1075.4535805290  6.60E+00
   269 Broy./Diag. 0.40E+00   19.0     1.96331091     -1079.0968563906 -3.64E+00
   270 Broy./Diag. 0.40E+00   19.7     1.89070757     -1076.4494168576  2.65E+00
   271 Broy./Diag. 0.40E+00   20.1     1.89157060     -1072.4928421691  3.96E+00
   272 Broy./Diag. 0.40E+00   18.9     1.89936462     -1072.5130036331 -2.02E-02
   273 Broy./Diag. 0.40E+00   19.6     1.91404511     -1073.5656932598 -1.05E+00
   274 Broy./Diag. 0.40E+00   20.2     1.88939412     -1081.0542733991 -7.49E+00
   275 Broy./Diag. 0.40E+00   18.8     1.88860578     -1067.3340028045  1.37E+01
   276 Broy./Diag. 0.40E+00   19.5     1.96372769     -1081.2235535843 -1.39E+01
   277 Broy./Diag. 0.40E+00   20.4     1.84649938     -1062.6881359754  1.85E+01
   278 Broy./Diag. 0.40E+00   18.9     1.89643341     -1084.5158870043 -2.18E+01
   279 Broy./Diag. 0.40E+00   19.3     1.99373794     -1070.9845652505  1.35E+01
   280 Broy./Diag. 0.40E+00   20.3     1.93716605     -1077.2780569709 -6.29E+00
   281 Broy./Diag. 0.40E+00   19.1     1.85745946     -1082.0065453962 -4.73E+00
   282 Broy./Diag. 0.40E+00   19.0     1.87912933     -1063.2613568777  1.87E+01
   283 Broy./Diag. 0.40E+00   20.3     1.95465560     -1083.4005067527 -2.01E+01
   284 Broy./Diag. 0.40E+00   19.3     1.94280317     -1073.6838121011  9.72E+00
   285 Broy./Diag. 0.40E+00   19.1     1.83624018     -1066.8833566025  6.80E+00
   286 Broy./Diag. 0.40E+00   20.1     1.89093682     -1074.8676860720 -7.98E+00
   287 Broy./Diag. 0.40E+00   19.6     1.92144430     -1083.5057352394 -8.64E+00
   288 Broy./Diag. 0.40E+00   19.1     1.88928271     -1067.7537286029  1.58E+01
   289 Broy./Diag. 0.40E+00   19.9     1.90110049     -1084.7997061574 -1.70E+01
   290 Broy./Diag. 0.40E+00   19.8     1.90546530     -1075.3930703344  9.41E+00
   291 Broy./Diag. 0.40E+00   18.9     1.90658887     -1083.9200399071 -8.53E+00
   292 Broy./Diag. 0.40E+00   19.9     2.01225573     -1069.8079698852  1.41E+01
   293 Broy./Diag. 0.40E+00   20.0     1.88184583     -1073.0487601344 -3.24E+00
   294 Broy./Diag. 0.40E+00   18.9     1.89577898     -1075.1096773553 -2.06E+00
   295 Broy./Diag. 0.40E+00   19.7     1.91827159     -1072.5573659852  2.55E+00
   296 Broy./Diag. 0.40E+00   20.2     1.85040872     -1073.5550376447 -9.98E-01
   297 Broy./Diag. 0.40E+00   18.9     1.87195596     -1068.6389289056  4.92E+00
   298 Broy./Diag. 0.40E+00   19.6     1.87508325     -1081.1815278273 -1.25E+01
   299 Broy./Diag. 0.40E+00   20.3     1.91217735     -1072.5389305754  8.64E+00
   300 Broy./Diag. 0.40E+00   18.8     1.91217215     -1068.9075260585  3.63E+00

  Leaving inner SCF loop after reaching   300 steps.


  Electronic density on regular grids:       -512.0006518796       -0.0006518796
  Core density on regular grids:              512.0000436261        0.0000436261
  Total charge density on r-space grids:       -0.0006082534
  Total charge density g-space grids:          -0.0006082534

  Overlap energy of the core charge distribution:               0.00000000000000
  Self energy of the core charge distribution:              -2838.21791979120962
  Core Hamiltonian energy:                                    767.71324407419650
  Hartree energy:                                            1239.43633694286677
  Exchange-correlation energy:                               -237.83918728436961

  Total energy:                                             -1068.90752605851594

 *** WARNING in qs_scf.F:542 :: SCF run NOT converged ***


 ENERGY| Total FORCE_EVAL ( QS ) energy (a.u.):            -1056.517955728882725


 ATOMIC FORCES in [a.u.]

 # Atom   Kind   Element          X              Y              Z
      1      1      O          -0.02371211     0.00764172     0.04206271
      2      2      H          -0.03277510    -0.04769915     0.04264759
      3      2      H           0.06540861     0.00330349    -0.00975470
      4      1      O          -0.04749940    -0.03111434     0.05745397
      5      2      H          -0.00202568     0.01165844    -0.01363494
      6      2      H           0.01840713    -0.04950853     0.08220779
      7      1      O          -0.00196468    -0.01562436     0.12707021
      8      2      H           0.01503633     0.06295548    -0.07238900
      9      2      H          -0.00191361    -0.08330017    -0.01520274
     10      1      O          -0.02873640     0.13494400    -0.14395654
     11      2      H          -0.03328562    -0.03017372     0.02621737
     12      2      H           0.04314377    -0.01848431     0.02968801
     13      1      O          -0.08175219    -0.05101629    -0.07840015
     14      2      H           0.04795506    -0.07063308    -0.00293857
     15      2      H           0.03073836     0.03770078    -0.03878291
     16      1      O           0.04461816     0.05348130    -0.00462408
     17      2      H          -0.00550168    -0.01181286    -0.02590681
     18      2      H          -0.02923449    -0.01296808     0.00614238
     19      1      O           0.00972810    -0.03686729     0.02816463
     20      2      H          -0.02163249    -0.01425408     0.01253972
     21      2      H           0.01049097    -0.02457118     0.02591086
     22      1      O          -0.00192004     0.10916471    -0.09476969
     23      2      H           0.04446427    -0.04694302     0.05064921
     24      2      H          -0.04811470     0.00319983     0.12004866
     25      1      O          -0.03074883    -0.05347746    -0.14122080
     26      2      H           0.08427107     0.00063601     0.01995506
     27      2      H          -0.06139532    -0.00102391     0.01702418
     28      1      O           0.06296717    -0.11302904    -0.04825607
     29      2      H          -0.00863388    -0.00521862     0.05309043
     30      2      H          -0.06772151     0.02879536    -0.06143025
     31      1      O          -0.00907035     0.08204308     0.04034560
     32      2      H          -0.01387406     0.00545512     0.05289157
     33      2      H          -0.01433389    -0.04483793    -0.01409353
     34      1      O           0.02722403     0.03007802    -0.09021092
     35      2      H           0.05268461    -0.07224440     0.01255087
     36      2      H          -0.06584800     0.00692786     0.04549883
     37      1      O           0.03052337    -0.00179118     0.02217077
     38      2      H           0.03293372     0.01468975     0.03959170
     39      2      H          -0.03500762     0.02920394     0.01063022
     40      1      O           0.09860770    -0.19988491    -0.13259742
     41      2      H          -0.10496693     0.18171466     0.15508160
     42      2      H          -0.00173231     0.02019528    -0.01633194
     43      1      O          -0.02620466    -0.14789268    -0.05142358
     44      2      H           0.01504848     0.00365630    -0.10036631
     45      2      H           0.03613544     0.04583292     0.03928560
     46      1      O           0.03976064    -0.01247792    -0.15595546
     47      2      H          -0.05875150     0.01707597     0.07794308
     48      2      H          -0.00083250    -0.07336387     0.02572364
     49      1      O          -0.01300589    -0.01171634    -0.10448921
     50      2      H           0.01414286    -0.02677264     0.03009585
     51      2      H          -0.00794565     0.01942752    -0.01617866
     52      1      O           0.02948902     0.03659011    -0.05560876
     53      2      H           0.02134424    -0.01771760     0.08993186
     54      2      H          -0.04866472     0.02078882     0.02505171
     55      1      O          -0.03452241     0.01195238    -0.20202920
     56      2      H          -0.03326984     0.02418066     0.04541505
     57      2      H           0.00965183     0.06847300     0.16932799
     58      1      O          -0.07738975    -0.02364366    -0.03420065
     59      2      H           0.01229326     0.05338562     0.02476828
     60      2      H           0.07590329    -0.03263678     0.00230456
     61      1      O          -0.00264961    -0.01201643     0.09695243
     62      2      H           0.01589762     0.07364814    -0.06596298
     63      2      H           0.01940206     0.04755738     0.02415231
     64      1      O          -0.03506062     0.00939196     0.12236608
     65      2      H           0.06971357    -0.04267466     0.03302467
     66      2      H          -0.02431006     0.01528448    -0.07378276
     67      1      O          -0.00714661    -0.00051459    -0.01766067
     68      2      H          -0.04204228    -0.03852657    -0.06700527
     69      2      H           0.03827493    -0.06167333     0.03279523
     70      1      O           0.02674543     0.11421202    -0.15872399
     71      2      H          -0.01457812    -0.00354266     0.03386916
     72      2      H           0.02596932    -0.04913704    -0.01741697
     73      1      O           0.02705957    -0.09623083     0.02379094
     74      2      H          -0.07187504    -0.00357916    -0.03939591
     75      2      H           0.05638810     0.02403862     0.03567511
     76      1      O           0.11527124     0.23619173    -0.09545129
     77      2      H           0.00786430     0.02498015    -0.01536853
     78      2      H          -0.12788269    -0.22657824     0.10185786
     79      1      O           0.00286974     0.02912601    -0.00563679
     80      2      H          -0.01796130    -0.09359617    -0.02660477
     81      2      H          -0.00585415     0.09815653    -0.01675234
     82      1      O           0.05997323    -0.07029460     0.07464970
     83      2      H           0.03100763     0.01262542    -0.13835329
     84      2      H          -0.08345649     0.00983135     0.00798752
     85      1      O          -0.00345676    -0.01738132    -0.06760580
     86      2      H          -0.03542447     0.02917966    -0.09796328
     87      2      H           0.03021827     0.01857230     0.04570444
     88      1      O           0.05003352     0.05752424    -0.09731214
     89      2      H          -0.00524860    -0.08445101     0.06176804
     90      2      H          -0.02796582     0.03959388    -0.00349516
     91      1      O           0.06740118    -0.11450516    -0.03127211
     92      2      H          -0.01234568     0.07444485    -0.02484169
     93      2      H          -0.03011935    -0.03087594     0.01900705
     94      1      O          -0.05828567    -0.01585473    -0.02809651
     95      2      H          -0.00221084     0.01134128    -0.01113652
     96      2      H           0.03491956     0.02251248     0.02315616
     97      1      O          -0.07132134    -0.08244275     0.07885769
     98      2      H           0.05957581    -0.02439040    -0.01988131
     99      2      H          -0.00788010     0.08706139     0.03751911
    100      1      O          -0.02706909    -0.06499038     0.10805610
    101      2      H          -0.00016023    -0.01766072     0.01835110
    102      2      H           0.00683420     0.01310643    -0.01654891
    103      1      O          -0.00522659    -0.05472066     0.08039400
    104      2      H           0.03587502     0.07520096    -0.01891216
    105      2      H          -0.04503319     0.03550157    -0.02600973
    106      1      O          -0.05354351     0.02709722    -0.01648542
    107      2      H           0.05068687     0.01698538    -0.04274118
    108      2      H          -0.01485474    -0.03479334     0.05326583
    109      1      O           0.09262318     0.10562302     0.09242907
    110      2      H           0.01315573    -0.00666185    -0.02621939
    111      2      H          -0.08280778     0.00693968     0.00452739
    112      1      O          -0.03942792     0.04017696     0.01124072
    113      2      H           0.02347308    -0.02616987     0.00504224
    114      2      H           0.02201872     0.02649494    -0.00993424
    115      1      O          -0.04610132    -0.07771324    -0.04996540
    116      2      H           0.00399486     0.03957813     0.03544688
    117      2      H           0.02352209    -0.02666248    -0.04770427
    118      1      O          -0.04492049     0.01266102    -0.06683500
    119      2      H           0.06622163     0.04769576     0.02133541
    120      2      H          -0.01771234     0.00511404     0.06476298
    121      1      O           0.02155420     0.02454887    -0.10247120
    122      2      H          -0.02907724     0.03655170     0.01236412
    123      2      H          -0.02904437    -0.05170300     0.07274152
    124      1      O          -0.03466630     0.00590216    -0.02839920
    125      2      H           0.02031094     0.01899375    -0.02872506
    126      2      H           0.00209008    -0.00892470     0.08621081
    127      1      O          -0.02271937    -0.03561934     0.05756516
    128      2      H          -0.01729563     0.02223333     0.04073371
    129      2      H           0.00237643    -0.04311186    -0.02479901
    130      1      O          -0.04249825     0.05531901    -0.08977041
    131      2      H           0.00615802     0.05589079     0.02842483
    132      2      H           0.06721498    -0.00764878     0.02073903
    133      1      O          -0.02422637     0.13975633    -0.01254830
    134      2      H          -0.01825650    -0.08934863    -0.03715558
    135      2      H           0.03476387    -0.01651123    -0.04326024
    136      1      O          -0.00923241    -0.05430282     0.14881188
    137      2      H          -0.00239833    -0.05795139    -0.01588928
    138      2      H           0.04753051     0.08659835    -0.02074529
    139      1      O           0.00967949     0.13678872    -0.03124248
    140      2      H          -0.03526019    -0.03119124    -0.00696596
    141      2      H           0.05750475    -0.04709375     0.03902677
    142      1      O           0.05109562     0.03613467     0.10778863
    143      2      H           0.00268785    -0.02705597    -0.00621428
    144      2      H          -0.03981201    -0.02982890     0.04348417
    145      1      O           0.08719925     0.03493719     0.08477504
    146      2      H          -0.09239765     0.00291530    -0.00537259
    147      2      H          -0.00278397    -0.00763226    -0.12576043
    148      1      O           0.05262095    -0.07903216    -0.00700015
    149      2      H           0.00522257    -0.02590423    -0.03937564
    150      2      H          -0.07443615     0.03609697     0.01193353
    151      1      O           0.04602274     0.05497488     0.07133524
    152      2      H          -0.00309773     0.01052124    -0.00599256
    153      2      H           0.00192999    -0.00041888    -0.00313106
    154      1      O           0.07062099    -0.02040720    -0.06487978
    155      2      H          -0.04046970    -0.00800952    -0.02330441
    156      2      H          -0.03158150     0.08291946     0.06914684
    157      1      O          -0.00420564    -0.06620325     0.06313095
    158      2      H          -0.01568921     0.02249146     0.05785764
    159      2      H           0.05883849     0.03331389     0.01585147
    160      1      O          -0.01031814     0.10958841    -0.04057312
    161      2      H          -0.00970170     0.02265461    -0.02471673
    162      2      H          -0.01536840    -0.05174529     0.05595414
    163      1      O           0.06927617    -0.12984499    -0.07475291
    164      2      H           0.00119883     0.03109939     0.07857750
    165      2      H          -0.05422588     0.03785238    -0.00364376
    166      1      O           0.00857069    -0.01094999     0.08061890
    167      2      H          -0.03071598     0.02254604     0.00698268
    168      2      H           0.03516417     0.05971904    -0.03569954
    169      1      O          -0.02071854     0.03978153     0.05396761
    170      2      H          -0.04375246    -0.05779425    -0.00690339
    171      2      H           0.02828185     0.00144147     0.05874178
    172      1      O          -0.01200861    -0.02797754     0.04545115
    173      2      H           0.03892573     0.00836281    -0.10326198
    174      2      H          -0.01712528    -0.03439837     0.00705655
    175      1      O           0.03757400    -0.05252562     0.11680347
    176      2      H           0.00537021    -0.01257514     0.03623551
    177      2      H          -0.01692484    -0.01132068     0.03295946
    178      1      O          -0.03624017    -0.03162601     0.00879288
    179      2      H          -0.00037548    -0.01907804    -0.02497135
    180      2      H           0.04465832    -0.02144374     0.00371968
    181      1      O          -0.08975942     0.09398487     0.11824802
    182      2      H           0.07988103     0.00465538    -0.03331506
    183      2      H          -0.00401609    -0.09064550    -0.01712614
    184      1      O           0.00634568     0.00147642     0.16067414
    185      2      H          -0.00153016     0.07551272    -0.06429562
    186      2      H           0.04338995    -0.06925023    -0.02321811
    187      1      O          -0.00901972     0.02967900    -0.03051025
    188      2      H           0.02700292     0.01772103     0.05071679
    189      2      H          -0.01800027    -0.01312584     0.05254612
    190      1      O           0.01939051     0.04986216    -0.02265002
    191      2      H           0.00802230     0.02105643    -0.03700105
    192      2      H          -0.00977361     0.02297202    -0.02994385
 SUM OF ATOMIC FORCES           0.04179206     0.05691700     0.53602000     0.54065106

 -------------------------------------------------------------------------------
 -                                                                             -
 -                                DBCSR STATISTICS                             -
 -                                                                             -
 -------------------------------------------------------------------------------
 COUNTER                                    TOTAL       BLAS       SMM       ACC
 flops     5 x     5 x   256           2357913600       0.0%    100.0%      0.0%
 flops     5 x    13 x   256           2504320000       0.0%    100.0%      0.0%
 flops    13 x     5 x   256           2564423680       0.0%    100.0%      0.0%
 flops    13 x    13 x   256           3880694272       0.0%    100.0%      0.0%
 flops inhomo. stacks                           0       0.0%      0.0%      0.0%
 flops total                        11.307352E+09       0.0%    100.0%      0.0%
 flops max/rank                     11.307352E+09       0.0%    100.0%      0.0%
 matmuls inhomo. stacks                         0       0.0%      0.0%      0.0%
 matmuls total                             381367       0.0%    100.0%      0.0%
 number of processed stacks                 23478       0.0%    100.0%      0.0%
 average stack size                                     0.0      16.2       0.0
 marketing flops                   333.927416E+09
 -------------------------------------------------------------------------------
 # multiplications                            301
 max memory usage/rank              25.826116E+09
 # max total images/rank                        1
 # max 3D layers                                1
 # MPI messages exchanged                       0
 MPI messages size (bytes):
  total size                         0.000000E+00
  min size                           0.000000E+00
  max size                           0.000000E+00
  average size                       0.000000E+00
 MPI breakdown and total messages size (bytes):
             size <=      128                   0                        0
       128 < size <=     8192                   0                        0
      8192 < size <=    32768                   0                        0
     32768 < size <=   131072                   0                        0
    131072 < size <=  4194304                   0                        0
   4194304 < size <= 16777216                   0                        0
  16777216 < size                               0                        0
 -------------------------------------------------------------------------------

 MEMORY| Estimated peak process memory [MiB]                               24633

 -------------------------------------------------------------------------------
 -                                                                             -
 -                           R E F E R E N C E S                               -
 -                                                                             -
 -------------------------------------------------------------------------------
 
 CP2K version 7.1, the CP2K developers group (2019).
 CP2K is freely available from https://www.cp2k.org/ .

 Schuett, Ole; Messmer, Peter; Hutter, Juerg; VandeVondele, Joost. 
 Electronic Structure Calculations on Graphics Processing Units, John
 Wiley & Sons, Ltd, 173-190 (2016). 
 GPU-Accelerated Sparse Matrix-Matrix Multiplication for
 Linear Scaling Density Functional Theory.
 https://dx.doi.org/10.1002/9781118670712.ch8

 Borstnik, U; VandeVondele, J; Weber, V; Hutter, J. 
 PARALLEL COMPUTING, 40 (5-6), 47-58 (2014). 
 Sparse matrix multiplication: The distributed block-compressed sparse
 row library.
 https://dx.doi.org/10.1016/j.parco.2014.03.012

 Hutter, J; Iannuzzi, M; Schiffmann, F; VandeVondele, J. 
 WIREs Comput Mol Sci., 4 (1), 15-25 (2014). 
 CP2K: atomistic simulations of condensed matter systems.
 https://dx.doi.org/10.1002/wcms.1159

 Krack, M. 
 THEORETICAL CHEMISTRY ACCOUNTS, 114 (1-3), 145-152 (2005). 
 Pseudopotentials for H to Kr optimized for gradient-corrected
 exchange-correlation functionals.
 https://dx.doi.org/10.1007/s00214-005-0655-y

 VandeVondele, J; Krack, M; Mohamed, F; Parrinello, M; Chassaing, T;
 Hutter, J. COMPUTER PHYSICS COMMUNICATIONS, 167 (2), 103-128 (2005). 
 QUICKSTEP: Fast and accurate density functional calculations using a
 mixed Gaussian and plane waves approach.
 https://dx.doi.org/10.1016/j.cpc.2004.12.014

 Frigo, M; Johnson, SG. 
 PROCEEDINGS OF THE IEEE, 93 (2), 216-231 (2005). 
 The design and implementation of FFTW3.
 https://dx.doi.org/10.1109/JPROC.2004.840301

 Hartwigsen, C; Goedecker, S; Hutter, J. 
 PHYSICAL REVIEW B, 58 (7), 3641-3662 (1998). 
 Relativistic separable dual-space Gaussian pseudopotentials from H to Rn.
 https://dx.doi.org/10.1103/PhysRevB.58.3641

 Lippert, G; Hutter, J; Parrinello, M. 
 MOLECULAR PHYSICS, 92 (3), 477-487 (1997). 
 A hybrid Gaussian and plane wave density functional scheme.
 https://dx.doi.org/10.1080/002689797170220

 Goedecker, S; Teter, M; Hutter, J. 
 PHYSICAL REVIEW B, 54 (3), 1703-1710 (1996). 
 Separable dual-space Gaussian pseudopotentials.
 https://dx.doi.org/10.1103/PhysRevB.54.1703


 -------------------------------------------------------------------------------
 -                                                                             -
 -                                T I M I N G                                  -
 -                                                                             -
 -------------------------------------------------------------------------------
 SUBROUTINE                       CALLS  ASD         SELF TIME        TOTAL TIME
                                MAXIMUM       AVERAGE  MAXIMUM  AVERAGE  MAXIMUM
 CP2K                                 1  1.0    0.508    0.508 5860.174 5860.174
 qs_forces                            1  2.0    0.000    0.000 5849.395 5849.395
 qs_energies                          1  3.0    0.000    0.000 5846.030 5846.030
 scf_env_do_scf                       1  4.0    0.001    0.001 5835.104 5835.104
 scf_env_do_scf_inner_loop          300  5.0    0.154    0.154 5835.103 5835.103
 gspace_mixing                      299  6.0   41.323   41.323 2380.188 2380.188
 broyden_mixing                     299  7.0 2124.617 2124.617 2124.619 2124.619
 qs_scf_new_mos                     300  6.0    0.006    0.006 1764.761 1764.761
 eigensolver                        300  7.0    0.028    0.028 1751.218 1751.218
 cp_fm_syevd                        300  8.0 1213.225 1213.225 1214.187 1214.187
 pw_transfer                       3912  9.9    0.342    0.342 1054.786 1054.786
 fft_wrap_pw1pw2                   3310 10.9    0.032    0.032 1034.545 1034.545
 rebuild_ks_matrix                  301  7.0    0.001    0.001  965.644  965.644
 qs_ks_build_kohn_sham_matrix       301  8.0    0.043    0.043  965.643  965.643
 qs_ks_update_qs_env                300  6.0    0.003    0.003  962.421  962.421
 fft_wrap_pw1pw2_70                1504 11.2   64.543   64.543  961.253  961.253
 qs_rho_update_rho                  301  6.0    0.002    0.002  729.548  729.548
 calculate_rho_elec                 301  7.0  261.155  261.155  729.545  729.545
 cp_fm_cholesky_restore             900  8.0  535.950  535.950  535.950  535.950
 fft3d_s                           3311 12.9  516.699  516.699  516.713  516.713
 density_rs2pw                      301  8.0    0.016    0.016  464.115  464.115
 pw_scatter_s                      1804 13.2  368.902  368.902  368.902  368.902
 pw_poisson_solve                   301  9.0  293.072  293.072  313.319  313.319
 sum_up_and_integrate               301  9.0   15.225   15.225  268.970  268.970
 integrate_v_rspace                 301 10.0    8.602    8.602  253.745  253.745
 potential_pw2rs                    301 11.0    2.161    2.161  244.978  244.978
 qs_vxc_create                      301  9.0    0.005    0.005  137.723  137.723
 xc_vxc_pw_create                   301 10.0   41.574   41.574  137.718  137.718
 -------------------------------------------------------------------------------

 The number of warnings for this run is : 1
 
 -------------------------------------------------------------------------------
  **** **** ******  **  PROGRAM ENDED AT                 2020-05-24 20:58:52.726
 ***** ** ***  *** **   PROGRAM RAN ON                                   gnode20
 **    ****   ******    PROGRAM RAN BY                               mayank.modi
 ***** **    ** ** **   PROGRAM PROCESS ID                                  8548
  **** **  *******  **  PROGRAM STOPPED IN /home/mayank.modi/ab-initio-thermodyn
                                           amics-of-water/mayank/cp2k_energy_cal
                                           culations
