==========================================
SLURM_JOB_ID = 134615
SLURM_NODELIST = gnode57
SLURM_JOB_GPUS = 
==========================================
 DBCSR| CPU Multiplication driver                                           XSMM
 DBCSR| Multrec recursion limit                                              512
 DBCSR| Multiplication stack size                                           1000
 DBCSR| Maximum elements for images                                    UNLIMITED
 DBCSR| Multiplicative factor virtual images                                   1
 DBCSR| Use multiplication densification                                       T
 DBCSR| Multiplication size stacks                                             3


  **** **** ******  **  PROGRAM STARTED AT               2020-04-30 14:21:05.051
 ***** ** ***  *** **   PROGRAM STARTED ON                               gnode57
 **    ****   ******    PROGRAM STARTED BY                           mayank.modi
 ***** **    ** ** **   PROGRAM PROCESS ID                                 30511
  **** **  *******  **  PROGRAM STARTED IN /home/mayank.modi/ab-initio-thermodyn
                                           amics-of-water/mayank/cp2k_energy_cal
                                           culations

 CP2K| version string:                                          CP2K version 7.1
 CP2K| source code revision number:                                  git:e635599
 CP2K| cp2kflags: omp libint fftw3 libxc xsmm spglib                            
 CP2K| is freely available from                            https://www.cp2k.org/
 CP2K| Program compiled at                          Mon Dec 23 19:23:12 CET 2019
 CP2K| Program compiled on                                                pc9404
 CP2K| Program compiled for                                Linux-x86-64-gfortran
 CP2K| Data directory path                                        /opt/cp2k/data
 CP2K| Input file name                                                  input.in

 GLOBAL| Force Environment number                                              1
 GLOBAL| Basis set file name                                           BASIS_SET
 GLOBAL| Potential file name                                      GTH_POTENTIALS
 GLOBAL| MM Potential file name                                     MM_POTENTIAL
 GLOBAL| Coordinate file name                                      __STD_INPUT__
 GLOBAL| Method name                                                        CP2K
 GLOBAL| Project name                                                   H2O_bulk
 GLOBAL| Preferred FFT library                                             FFTW3
 GLOBAL| Preferred diagonalization lib.                                       SL
 GLOBAL| Run type                                                   ENERGY_FORCE
 GLOBAL| All-to-all communication in single precision                          F
 GLOBAL| FFTs using library dependent lengths                                  F
 GLOBAL| Global print level                                                  LOW
 GLOBAL| MPI I/O enabled                                                       T
 GLOBAL| Total number of message passing processes                             1
 GLOBAL| Number of threads for this process                                   10
 GLOBAL| This output is from process                                           0
 GLOBAL| CPU model name                Intel(R) Xeon(R) CPU E5-2640 v4 @ 2.40GHz
 GLOBAL| CPUID                                                              1002
 GLOBAL| Compiled for CPUID                                                    0
 HINT in environment.F:814 The compiler target flags (generic) used to build
   this binary cannot exploit all extensions of this CPU model (x86_avx2).
   Consider compiler target flags as part of FCFLAGS and CFLAGS (ARCH file).

 MEMORY| system memory details [Kb]
 MEMORY|                        rank 0           min           max       average
 MEMORY| MemTotal            131893216     131893216     131893216     131893216
 MEMORY| MemFree              61204892      61204892      61204892      61204892
 MEMORY| Buffers               1790812       1790812       1790812       1790812
 MEMORY| Cached               52872680      52872680      52872680      52872680
 MEMORY| Slab                  2731800       2731800       2731800       2731800
 MEMORY| SReclaimable          2120840       2120840       2120840       2120840
 MEMORY| MemLikelyFree       117989224     117989224     117989224     117989224


 GENERATE|  Preliminary Number of Bonds generated:                             0
 GENERATE|  Achieved consistency in connectivity generation.

 *******************************************************************************
 *******************************************************************************
 **                                                                           **
 **     #####                         ##              ##                      **
 **    ##   ##            ##          ##              ##                      **
 **   ##     ##                       ##            ######                    **
 **   ##     ##  ##   ##  ##   #####  ##  ##   ####   ##    #####    #####    **
 **   ##     ##  ##   ##  ##  ##      ## ##   ##      ##   ##   ##  ##   ##   **
 **   ##  ## ##  ##   ##  ##  ##      ####     ###    ##   ######   ######    **
 **    ##  ###   ##   ##  ##  ##      ## ##      ##   ##   ##       ##        **
 **     #######   #####   ##   #####  ##  ##  ####    ##    #####   ##        **
 **           ##                                                    ##        **
 **                                                                           **
 **                                                ... make the atoms dance   **
 **                                                                           **
 **            Copyright (C) by CP2K developers group (2000 - 2019)           **
 **                                                                           **
 *******************************************************************************


 TOTAL NUMBERS AND MAXIMUM NUMBERS

  Total number of            - Atomic kinds:                                   2
                             - Atoms:                                        192
                             - Shell sets:                                   384
                             - Shells:                                       704
                             - Primitive Cartesian functions:                960
                             - Cartesian basis functions:                   1536
                             - Spherical basis functions:                   1472

  Maximum angular momentum of- Orbital basis functions:                        2
                             - Local part of the GTH pseudopotential:          2
                             - Non-local part of the GTH pseudopotential:      0


 SCF PARAMETERS         Density guess:                                    ATOMIC
                        --------------------------------------------------------
                        max_scf:                                             300
                        max_scf_history:                                       0
                        max_diis:                                              4
                        --------------------------------------------------------
                        eps_scf:                                        1.00E-07
                        eps_scf_history:                                0.00E+00
                        eps_diis:                                       1.00E-01
                        eps_eigval:                                     1.00E-05
                        --------------------------------------------------------
                        level_shift [a.u.]:                                 0.00
                        --------------------------------------------------------
                        Mixing method:                            BROYDEN_MIXING
                                                charge density mixing in g-space
                        --------------------------------------------------------
                        No outer SCF

 Number of electrons:                                                        512
 Number of occupied orbitals:                                                256
 Number of molecular orbitals:                                               256

 Number of orbital functions:                                               1472
 Number of independent orbital functions:                                   1472

 Extrapolation method: initial_guess


 SCF WAVEFUNCTION OPTIMIZATION

  Step     Update method      Time    Convergence         Total energy    Change
  ------------------------------------------------------------------------------
     1 NoMix/Diag. 0.40E+00    7.5     2.28809693     -1047.9160888062 -1.05E+03
     2 Broy./Diag. 0.40E+00    8.5     0.49450528      -966.1907805858  8.17E+01
     3 Broy./Diag. 0.40E+00    8.9     0.11952603     -1052.1577539757 -8.60E+01
     4 Broy./Diag. 0.40E+00    8.9     0.08999285     -1066.0624309098 -1.39E+01
     5 Broy./Diag. 0.40E+00    9.0     0.00885949     -1066.0767395531 -1.43E-02
     6 Broy./Diag. 0.40E+00    9.1     0.01059710     -1065.7287225653  3.48E-01
     7 Broy./Diag. 0.40E+00    9.2     0.00932604     -1065.6871508650  4.16E-02
     8 Broy./Diag. 0.40E+00    9.5     0.80289693     -1065.8174799612 -1.30E-01
     9 Broy./Diag. 0.40E+00    9.7     0.03589673     -1066.8982020711 -1.08E+00
    10 Broy./Diag. 0.40E+00   10.0     0.03805924     -1066.8878680978  1.03E-02
    11 Broy./Diag. 0.40E+00    9.8     0.01162854     -1066.8672533552  2.06E-02
    12 Broy./Diag. 0.40E+00    9.7     0.80080776     -1066.8273363718  3.99E-02
    13 Broy./Diag. 0.40E+00    9.6     0.00967263     -1065.8207061887  1.01E+00
    14 Broy./Diag. 0.40E+00    9.8     0.00660392     -1065.9562946200 -1.36E-01
    15 Broy./Diag. 0.40E+00    9.8     0.80184847     -1066.0134245783 -5.71E-02
    16 Broy./Diag. 0.40E+00    9.6     0.23906486     -1067.0340289293 -1.02E+00
    17 Broy./Diag. 0.40E+00    9.7     0.82100855     -1067.0089164523  2.51E-02
    18 Broy./Diag. 0.40E+00    9.8     0.01441350     -1065.9580901955  1.05E+00
    19 Broy./Diag. 0.40E+00    9.8     0.02270085     -1066.0608864569 -1.03E-01
    20 Broy./Diag. 0.40E+00    9.6     0.77641991     -1066.0856518546 -2.48E-02
    21 Broy./Diag. 0.40E+00    9.6     0.79175218     -1067.0525130350 -9.67E-01
    22 Broy./Diag. 0.40E+00    9.6     0.01737008     -1065.9847573410  1.07E+00
    23 Broy./Diag. 0.40E+00    9.6     0.80690768     -1066.0750031567 -9.02E-02
    24 Broy./Diag. 0.40E+00    9.7     0.81111113     -1067.0919991408 -1.02E+00
    25 Broy./Diag. 0.40E+00    9.9     0.57124240     -1066.0718552651  1.02E+00
    26 Broy./Diag. 0.40E+00    9.6     0.57363102     -1066.8116642856 -7.40E-01
    27 Broy./Diag. 0.40E+00    9.6     0.00607308     -1066.0489280554  7.63E-01
    28 Broy./Diag. 0.40E+00    9.6     0.00586452     -1066.0850545742 -3.61E-02
    29 Broy./Diag. 0.40E+00    9.8     0.77799960     -1066.0958527648 -1.08E-02
    30 Broy./Diag. 0.40E+00    9.7     0.33637911     -1067.0569654796 -9.61E-01
    31 Broy./Diag. 0.40E+00    9.7     0.40063246     -1067.0823419199 -2.54E-02
    32 Broy./Diag. 0.40E+00    9.6     0.15329452     -1067.1367527566 -5.44E-02
    33 Broy./Diag. 0.40E+00    9.6     0.77212532     -1067.0794568715  5.73E-02
    34 Broy./Diag. 0.40E+00    9.6     0.01075173     -1066.0302563747  1.05E+00
    35 Broy./Diag. 0.40E+00    9.7     0.01190682     -1066.0887441299 -5.85E-02
    36 Broy./Diag. 0.40E+00    9.7     0.07427046     -1066.1077164582 -1.90E-02
    37 Broy./Diag. 0.40E+00    9.8     0.02953765     -1066.2044651355 -9.67E-02
    38 Broy./Diag. 0.40E+00    9.6     0.11184426     -1066.1644633415  4.00E-02
    39 Broy./Diag. 0.40E+00    9.6     0.41976606     -1066.3019975123 -1.38E-01
    40 Broy./Diag. 0.40E+00    9.6     0.23691970     -1066.8090594610 -5.07E-01
    41 Broy./Diag. 0.40E+00    9.6     0.05578301     -1067.1170588094 -3.08E-01
    42 Broy./Diag. 0.40E+00    9.7     0.81803539     -1067.1271404619 -1.01E-02
    43 Broy./Diag. 0.40E+00    9.7     0.00703325     -1066.0775214442  1.05E+00
    44 Broy./Diag. 0.40E+00    9.6     0.00451868     -1066.0902294091 -1.27E-02
    45 Broy./Diag. 0.40E+00    9.6     0.00445708     -1066.0972449502 -7.02E-03
    46 Broy./Diag. 0.40E+00    9.6     0.00418750     -1066.1041816118 -6.94E-03
    47 Broy./Diag. 0.40E+00    9.6     0.75614627     -1066.1091146943 -4.93E-03
    48 Broy./Diag. 0.40E+00    9.7     0.38454508     -1067.0463644346 -9.37E-01
    49 Broy./Diag. 0.40E+00    9.7     0.82052854     -1067.0058763184  4.05E-02
    50 Broy./Diag. 0.40E+00    9.7     0.01029572     -1065.9951721975  1.01E+00
    51 Broy./Diag. 0.40E+00    9.6     0.04146035     -1066.0560532684 -6.09E-02
    52 Broy./Diag. 0.40E+00    9.6     0.04061014     -1066.1617438467 -1.06E-01
    53 Broy./Diag. 0.40E+00    9.6     0.00573904     -1066.0847000757  7.70E-02
    54 Broy./Diag. 0.40E+00    9.6     0.03937943     -1066.1032703300 -1.86E-02
    55 Broy./Diag. 0.40E+00    9.7     0.04287326     -1066.1593407689 -5.61E-02
    56 Broy./Diag. 0.40E+00    9.7     0.00095993     -1066.0955304557  6.38E-02
    57 Broy./Diag. 0.40E+00    9.7     0.00448636     -1066.0924970861  3.03E-03
    58 Broy./Diag. 0.40E+00    9.6     0.06287543     -1066.0951070543 -2.61E-03
    59 Broy./Diag. 0.40E+00    9.6     0.75134890     -1066.1803766323 -8.53E-02
    60 Broy./Diag. 0.40E+00    9.6     0.37180034     -1067.1260433783 -9.46E-01
    61 Broy./Diag. 0.40E+00    9.7     0.42844281     -1067.0136488311  1.12E-01
    62 Broy./Diag. 0.40E+00    9.7     0.82948121     -1067.2043045302 -1.91E-01
    63 Broy./Diag. 0.40E+00    9.7     0.01067903     -1066.0491862386  1.16E+00
    64 Broy./Diag. 0.40E+00    9.6     0.00851964     -1066.0901436395 -4.10E-02
    65 Broy./Diag. 0.40E+00    9.6     0.00669814     -1066.1057077673 -1.56E-02
    66 Broy./Diag. 0.40E+00    9.6     0.28925279     -1066.1158787543 -1.02E-02
    67 Broy./Diag. 0.40E+00    9.6     0.28533502     -1066.4728214633 -3.57E-01
    68 Broy./Diag. 0.40E+00    9.7     0.01123877     -1066.1203648063  3.52E-01
    69 Broy./Diag. 0.40E+00    9.7     0.00126881     -1066.1035942176  1.68E-02
    70 Broy./Diag. 0.40E+00    9.6     0.00448351     -1066.1059523675 -2.36E-03
    71 Broy./Diag. 0.40E+00    9.6     0.00275567     -1066.0970183933  8.93E-03
    72 Broy./Diag. 0.40E+00    9.6     0.00818608     -1066.0999845507 -2.97E-03
    73 Broy./Diag. 0.40E+00    9.6     0.04715533     -1066.1086496219 -8.67E-03
    74 Broy./Diag. 0.40E+00    9.7     0.18707911     -1066.1685504421 -5.99E-02
    75 Broy./Diag. 0.40E+00    9.7     0.23098316     -1066.4056977228 -2.37E-01
    76 Broy./Diag. 0.40E+00    9.7     0.01186045     -1066.1106084374  2.95E-01
    77 Broy./Diag. 0.40E+00    9.6     0.03359573     -1066.1041836087  6.42E-03
    78 Broy./Diag. 0.40E+00    9.6     0.16598739     -1066.1488795841 -4.47E-02
    79 Broy./Diag. 0.40E+00    9.6     0.18277958     -1066.3556212002 -2.07E-01
    80 Broy./Diag. 0.40E+00    9.7     0.01933310     -1066.1298300240  2.26E-01
    81 Broy./Diag. 0.40E+00    9.7     0.00779685     -1066.1034403472  2.64E-02
    82 Broy./Diag. 0.40E+00    9.7     0.02685879     -1066.1155018588 -1.21E-02
    83 Broy./Diag. 0.40E+00    9.6     0.62745645     -1066.1492516188 -3.37E-02
    84 Broy./Diag. 0.40E+00    9.6     0.65752169     -1066.9301585210 -7.81E-01
    85 Broy./Diag. 0.40E+00    9.6     0.02510229     -1066.1095825876  8.21E-01
    86 Broy./Diag. 0.40E+00    9.6     0.00258781     -1066.0903303353  1.93E-02
    87 Broy./Diag. 0.40E+00    9.7     0.00221626     -1066.0919553018 -1.62E-03
    88 Broy./Diag. 0.40E+00    9.7     0.00618952     -1066.0963109476 -4.36E-03
    89 Broy./Diag. 0.40E+00    9.7     0.00612412     -1066.1040415063 -7.73E-03
    90 Broy./Diag. 0.40E+00    9.6     0.09331749     -1066.1117682212 -7.73E-03
    91 Broy./Diag. 0.40E+00    9.7     0.10060402     -1066.2308657703 -1.19E-01
    92 Broy./Diag. 0.40E+00    9.6     0.68119036     -1066.0967685307  1.34E-01
    93 Broy./Diag. 0.40E+00    9.6     0.67727947     -1066.9573396333 -8.61E-01
    94 Broy./Diag. 0.40E+00    9.7     0.02784649     -1066.0999812765  8.57E-01
    95 Broy./Diag. 0.40E+00    9.7     0.00386983     -1066.0710076028  2.90E-02
    96 Broy./Diag. 0.40E+00    9.7     0.00374086     -1066.0626981062  8.31E-03
    97 Broy./Diag. 0.40E+00    9.6     0.00236198     -1066.0699264733 -7.23E-03
    98 Broy./Diag. 0.40E+00    9.6     0.00547740     -1066.0755304036 -5.60E-03
    99 Broy./Diag. 0.40E+00    9.6     0.00656692     -1066.0868386561 -1.13E-02
   100 Broy./Diag. 0.40E+00    9.7     0.02780731     -1066.0970845836 -1.02E-02
   101 Broy./Diag. 0.40E+00    9.7     0.76899213     -1066.1389985315 -4.19E-02
   102 Broy./Diag. 0.40E+00    9.7     0.80217438     -1067.1458638279 -1.01E+00
   103 Broy./Diag. 0.40E+00    9.6     0.02635033     -1065.9451284700  1.20E+00
   104 Broy./Diag. 0.40E+00    9.6     0.00884130     -1066.0377444250 -9.26E-02
   105 Broy./Diag. 0.40E+00    9.6     0.00529175     -1066.0844198519 -4.67E-02
   106 Broy./Diag. 0.40E+00    9.6     0.00531104     -1066.0966917866 -1.23E-02
   107 Broy./Diag. 0.40E+00    9.7     0.78682570     -1066.1031646523 -6.47E-03
   108 Broy./Diag. 0.40E+00    9.7     0.24423779     -1067.0606410529 -9.57E-01
   109 Broy./Diag. 0.40E+00    9.7     0.82734011     -1067.1295085761 -6.89E-02
   110 Broy./Diag. 0.40E+00    9.6     0.00414330     -1066.0435651146  1.09E+00
   111 Broy./Diag. 0.40E+00    9.6     0.00444361     -1066.0611768221 -1.76E-02
   112 Broy./Diag. 0.40E+00    9.6     0.01836135     -1066.0744124881 -1.32E-02
   113 Broy./Diag. 0.40E+00    9.6     0.81086720     -1066.1064693102 -3.21E-02
   114 Broy./Diag. 0.40E+00    9.7     0.81911025     -1067.1559774124 -1.05E+00
   115 Broy./Diag. 0.40E+00    9.7     0.02936636     -1066.0573526538  1.10E+00
   116 Broy./Diag. 0.40E+00    9.6     0.01904596     -1065.8957197730  1.62E-01
   117 Broy./Diag. 0.40E+00    9.6     0.01661138     -1065.9614583207 -6.57E-02
   118 Broy./Diag. 0.40E+00    9.6     0.00169627     -1066.0601622825 -9.87E-02
   119 Broy./Diag. 0.40E+00    9.6     0.00995772     -1066.0619113662 -1.75E-03
   120 Broy./Diag. 0.40E+00    9.7     0.02456684     -1066.0941566843 -3.22E-02
   121 Broy./Diag. 0.40E+00    9.7     0.80009122     -1066.1197655435 -2.56E-02
   122 Broy./Diag. 0.40E+00    9.7     0.81077003     -1067.1202230083 -1.00E+00
   123 Broy./Diag. 0.40E+00    9.6     0.01330184     -1066.0483712278  1.07E+00
   124 Broy./Diag. 0.40E+00    9.6     0.81277618     -1066.1039341230 -5.56E-02
   125 Broy./Diag. 0.40E+00    9.6     0.82994783     -1067.2142414195 -1.11E+00
   126 Broy./Diag. 0.40E+00    9.7     0.04069224     -1065.7033808519  1.51E+00
   127 Broy./Diag. 0.40E+00    9.7     0.02705318     -1065.8378821499 -1.35E-01
   128 Broy./Diag. 0.40E+00    9.8     0.01260505     -1065.9883724412 -1.50E-01
   129 Broy./Diag. 0.40E+00    9.6     0.00276131     -1066.0621283257 -7.38E-02
   130 Broy./Diag. 0.40E+00    9.6     0.00649736     -1066.0567524953  5.38E-03
   131 Broy./Diag. 0.40E+00    9.6     0.83581250     -1066.0624798995 -5.73E-03
   132 Broy./Diag. 0.40E+00    9.7     0.84917528     -1067.2461085951 -1.18E+00
   133 Broy./Diag. 0.40E+00    9.7     0.06593412     -1065.7166009073  1.53E+00
   134 Broy./Diag. 0.40E+00    9.7     0.73584829     -1066.0605028299 -3.44E-01
   135 Broy./Diag. 0.40E+00    9.7     0.73736844     -1067.0329891770 -9.72E-01
   136 Broy./Diag. 0.40E+00    9.7     0.01222855     -1066.0353197221  9.98E-01
   137 Broy./Diag. 0.40E+00    9.6     0.01568762     -1066.1012698905 -6.60E-02
   138 Broy./Diag. 0.40E+00    9.6     0.02786202     -1066.1200122414 -1.87E-02
   139 Broy./Diag. 0.40E+00    9.7     0.18726478     -1066.1595192153 -3.95E-02
   140 Broy./Diag. 0.40E+00    9.7     0.21830711     -1066.3929576826 -2.33E-01
   141 Broy./Diag. 0.40E+00    9.7     0.83255608     -1066.0806240438  3.12E-01
   142 Broy./Diag. 0.40E+00    9.6     0.84664433     -1067.2270944203 -1.15E+00
   143 Broy./Diag. 0.40E+00    9.7     0.02858861     -1065.8141739146  1.41E+00
   144 Broy./Diag. 0.40E+00    9.6     0.01497142     -1065.9348845832 -1.21E-01
   145 Broy./Diag. 0.40E+00    9.6     0.01119258     -1066.0114256301 -7.65E-02
   146 Broy./Diag. 0.40E+00    9.7     0.00555147     -1066.0654577685 -5.40E-02
   147 Broy./Diag. 0.40E+00    9.6     0.00189014     -1066.0918449358 -2.64E-02
   148 Broy./Diag. 0.40E+00    9.6     0.01026602     -1066.0923794666 -5.35E-04
   149 Broy./Diag. 0.40E+00    9.5     0.84020614     -1066.0792037171  1.32E-02
   150 Broy./Diag. 0.40E+00    9.6     0.33757498     -1067.1093268794 -1.03E+00
   151 Broy./Diag. 0.40E+00    9.5     2.36427359     -1067.2437489436 -1.34E-01
   152 Broy./Diag. 0.40E+00    9.6     0.11790565     -1067.1489351745  9.48E-02
   153 Broy./Diag. 0.40E+00    9.7     1.36936039     -1067.2077067265 -5.88E-02
   154 Broy./Diag. 0.40E+00    9.7     1.26598062     -1066.7256992038  4.82E-01
   155 Broy./Diag. 0.40E+00    9.6     1.14118658     -1066.3215704647  4.04E-01
   156 Broy./Diag. 0.40E+00    9.5     0.02987950     -1065.7210040628  6.01E-01
   157 Broy./Diag. 0.40E+00    9.6     0.00632034     -1065.8252233603 -1.04E-01
   158 Broy./Diag. 0.40E+00    9.6     0.03677438     -1065.8908065793 -6.56E-02
   159 Broy./Diag. 0.40E+00    9.6     0.87522651     -1066.0350557508 -1.44E-01
   160 Broy./Diag. 0.40E+00    9.7     0.88531207     -1067.2402433781 -1.21E+00
   161 Broy./Diag. 0.40E+00    9.7     0.04276667     -1065.7421868374  1.50E+00
   162 Broy./Diag. 0.40E+00    9.5     0.01978627     -1065.9399789683 -1.98E-01
   163 Broy./Diag. 0.40E+00    9.5     0.00631398     -1066.0264379757 -8.65E-02
   164 Broy./Diag. 0.40E+00    9.5     0.00976359     -1066.0446420258 -1.82E-02
   165 Broy./Diag. 0.40E+00    9.6     0.03633780     -1066.0981656105 -5.35E-02
   166 Broy./Diag. 0.40E+00    9.6     0.01125346     -1066.1331962971 -3.50E-02
   167 Broy./Diag. 0.40E+00    9.6     0.80165069     -1066.1174933552  1.57E-02
   168 Broy./Diag. 0.40E+00    9.6     0.14513323     -1067.0981019141 -9.81E-01
   169 Broy./Diag. 0.40E+00    9.5     0.82252382     -1067.1574464956 -5.93E-02
   170 Broy./Diag. 0.40E+00    9.5     0.02084723     -1065.9104725074  1.25E+00
   171 Broy./Diag. 0.40E+00    9.5     0.00823221     -1066.0055325481 -9.51E-02
   172 Broy./Diag. 0.40E+00    9.6     0.00738557     -1066.0395574558 -3.40E-02
   173 Broy./Diag. 0.40E+00    9.6     0.01512255     -1066.0606018547 -2.10E-02
   174 Broy./Diag. 0.40E+00    9.7     0.82298338     -1066.0909989676 -3.04E-02
   175 Broy./Diag. 0.40E+00    9.5     0.83843974     -1067.1780446167 -1.09E+00
   176 Broy./Diag. 0.40E+00    9.6     0.04672742     -1065.7975767731  1.38E+00
   177 Broy./Diag. 0.40E+00    9.5     0.01166167     -1065.9593573107 -1.62E-01
   178 Broy./Diag. 0.40E+00    9.6     0.82806947     -1066.0011390637 -4.18E-02
   179 Broy./Diag. 0.40E+00    9.6     0.82978263     -1067.1450363220 -1.14E+00
   180 Broy./Diag. 0.40E+00    9.6     0.01436557     -1065.9739251262  1.17E+00
   181 Broy./Diag. 0.40E+00    9.6     0.00531885     -1066.0423796063 -6.85E-02
   182 Broy./Diag. 0.40E+00    9.5     0.00425105     -1066.0692984548 -2.69E-02
   183 Broy./Diag. 0.40E+00    9.5     0.81720896     -1066.0770882265 -7.79E-03
   184 Broy./Diag. 0.40E+00    9.5     1.57311729     -1067.1699342785 -1.09E+00
   185 Broy./Diag. 0.40E+00    9.6     0.09249422     -1066.4607851012  7.09E-01
   186 Broy./Diag. 0.40E+00    9.6     1.48397543     -1066.4589684184  1.82E-03
   187 Broy./Diag. 0.40E+00    9.7     0.04101096     -1065.6631922151  7.96E-01
   188 Broy./Diag. 0.40E+00    9.6     0.02325931     -1065.8511488318 -1.88E-01
   189 Broy./Diag. 0.40E+00    9.5     0.00979997     -1066.0022110353 -1.51E-01
   190 Broy./Diag. 0.40E+00    9.5     0.80964668     -1066.0546099885 -5.24E-02
   191 Broy./Diag. 0.40E+00    9.6     0.81427903     -1067.1207039358 -1.07E+00
   192 Broy./Diag. 0.40E+00    9.7     0.01035814     -1065.9600419945  1.16E+00
   193 Broy./Diag. 0.40E+00    9.6     0.00874294     -1066.0234551983 -6.34E-02
   194 Broy./Diag. 0.40E+00    9.6     0.02266060     -1066.0631556534 -3.97E-02
   195 Broy./Diag. 0.40E+00    9.5     0.80102610     -1066.0929298950 -2.98E-02
   196 Broy./Diag. 0.40E+00    9.5     0.81912723     -1067.1654671646 -1.07E+00
   197 Broy./Diag. 0.40E+00    9.5     0.03004838     -1065.7807451305  1.38E+00
   198 Broy./Diag. 0.40E+00    9.6     0.02204870     -1065.9199341688 -1.39E-01
   199 Broy./Diag. 0.40E+00    9.6     0.10769008     -1066.0480849641 -1.28E-01
   200 Broy./Diag. 0.40E+00    9.6     0.10614610     -1066.2470116918 -1.99E-01
   201 Broy./Diag. 0.40E+00    9.6     0.80870444     -1066.0726757571  1.74E-01
   202 Broy./Diag. 0.40E+00    9.5     0.24457181     -1067.0589579280 -9.86E-01
   203 Broy./Diag. 0.40E+00    9.6     0.83904607     -1067.1812891747 -1.22E-01
   204 Broy./Diag. 0.40E+00    9.6     0.00904294     -1065.9770014441  1.20E+00
   205 Broy./Diag. 0.40E+00    9.7     0.01387832     -1065.9877948322 -1.08E-02
   206 Broy./Diag. 0.40E+00    9.6     0.02796924     -1066.0512141159 -6.34E-02
   207 Broy./Diag. 0.40E+00    9.6     0.08511931     -1066.1034085035 -5.22E-02
   208 Broy./Diag. 0.40E+00    9.5     0.73278190     -1066.1944875861 -9.11E-02
   209 Broy./Diag. 0.40E+00    9.5     0.81681689     -1067.1453090011 -9.51E-01
   210 Broy./Diag. 0.40E+00    9.5     0.02544180     -1065.9305382274  1.21E+00
   211 Broy./Diag. 0.40E+00    9.6     0.82849702     -1066.0352937845 -1.05E-01
   212 Broy./Diag. 0.40E+00    9.7     1.51967938     -1067.2045920770 -1.17E+00
   213 Broy./Diag. 0.40E+00    9.6     0.22809659     -1066.4843631592  7.20E-01
   214 Broy./Diag. 0.40E+00    9.6     0.25814069     -1066.4769490777  7.41E-03
   215 Broy./Diag. 0.40E+00    9.5     1.50273133     -1066.4465536442  3.04E-02
   216 Broy./Diag. 0.40E+00    9.5     0.05565216     -1065.6011061934  8.45E-01
   217 Broy./Diag. 0.40E+00    9.6     0.80250306     -1065.8761743988 -2.75E-01
   218 Broy./Diag. 0.40E+00    9.7     0.29408998     -1067.0502416081 -1.17E+00
   219 Broy./Diag. 0.40E+00    9.6     0.83772423     -1067.1286380567 -7.84E-02
   220 Broy./Diag. 0.40E+00    9.6     0.01921892     -1065.8024017987  1.33E+00
   221 Broy./Diag. 0.40E+00    9.5     0.02099934     -1065.9030593831 -1.01E-01
   222 Broy./Diag. 0.40E+00    9.5     0.01061786     -1066.0080832498 -1.05E-01
   223 Broy./Diag. 0.40E+00    9.5     0.80869848     -1066.0457522217 -3.77E-02
   224 Broy./Diag. 0.40E+00   10.0     0.81401414     -1067.1297624497 -1.08E+00
   225 Broy./Diag. 0.40E+00    9.7     0.00708406     -1065.9717607052  1.16E+00
   226 Broy./Diag. 0.40E+00   10.7     0.01754447     -1065.9982013577 -2.64E-02
   227 Broy./Diag. 0.40E+00   10.1     0.05799697     -1066.0896838756 -9.15E-02
   228 Broy./Diag. 0.40E+00    9.7     0.79237211     -1066.1295807406 -3.99E-02
   229 Broy./Diag. 0.40E+00    9.6     0.83871407     -1067.2100536879 -1.08E+00
   230 Broy./Diag. 0.40E+00    9.7     0.04418277     -1065.7023116581  1.51E+00
   231 Broy./Diag. 0.40E+00    9.7     0.02155186     -1065.8759031604 -1.74E-01
   232 Broy./Diag. 0.40E+00    9.7     0.01496866     -1065.9899068676 -1.14E-01
   233 Broy./Diag. 0.40E+00    9.7     0.82720200     -1066.0471997870 -5.73E-02
   234 Broy./Diag. 0.40E+00    9.6     0.83785646     -1067.1763364326 -1.13E+00
   235 Broy./Diag. 0.40E+00    9.7     0.03134667     -1065.8185599663  1.36E+00
   236 Broy./Diag. 0.40E+00    9.6     0.02420103     -1065.9501201036 -1.32E-01
   237 Broy./Diag. 0.40E+00    9.7     0.82271328     -1066.0706016741 -1.20E-01
   238 Broy./Diag. 0.40E+00    9.7     2.50204011     -1067.1643770436 -1.09E+00
   239 Broy./Diag. 0.40E+00    9.7     0.03567107     -1067.2262407385 -6.19E-02
   240 Broy./Diag. 0.40E+00    9.7     0.06233828     -1067.1873378010  3.89E-02
   241 Broy./Diag. 0.40E+00    9.6     1.42434522     -1067.1996294874 -1.23E-02
   242 Broy./Diag. 0.40E+00    9.6     1.41355016     -1066.1026856625  1.10E+00
   243 Broy./Diag. 0.40E+00    9.7     1.70406883     -1066.5633465056 -4.61E-01
   244 Broy./Diag. 0.40E+00    9.8     0.04109583     -1065.4735570281  1.09E+00
   245 Broy./Diag. 0.40E+00    9.7     0.01052079     -1065.6731639099 -2.00E-01
   246 Broy./Diag. 0.40E+00    9.7     0.05066279     -1065.7911989526 -1.18E-01
   247 Broy./Diag. 0.40E+00    9.6     0.87789115     -1066.0591983199 -2.68E-01
   248 Broy./Diag. 0.40E+00    9.6     0.88515205     -1067.2356660455 -1.18E+00
   249 Broy./Diag. 0.40E+00    9.6     0.02690468     -1065.8405623923  1.40E+00
   250 Broy./Diag. 0.40E+00    9.7     0.01780040     -1065.9678979705 -1.27E-01
   251 Broy./Diag. 0.40E+00    9.7     0.79483649     -1066.0347495471 -6.69E-02
   252 Broy./Diag. 0.40E+00    9.7     0.78834652     -1067.0808503806 -1.05E+00
   253 Broy./Diag. 0.40E+00    9.6     0.72113484     -1066.1084516415  9.72E-01
   254 Broy./Diag. 0.40E+00    9.6     0.72422216     -1066.9938792784 -8.85E-01
   255 Broy./Diag. 0.40E+00    9.6     0.02737044     -1066.0676272379  9.26E-01
   256 Broy./Diag. 0.40E+00    9.7     0.78723506     -1066.1256839857 -5.81E-02
   257 Broy./Diag. 0.40E+00    9.7     0.80227351     -1067.1085840722 -9.83E-01
   258 Broy./Diag. 0.40E+00    9.7     0.81820202     -1066.0514755270  1.06E+00
   259 Broy./Diag. 0.40E+00    9.6     0.81875666     -1067.1439764519 -1.09E+00
   260 Broy./Diag. 0.40E+00    9.6     0.00588696     -1066.0615318799  1.08E+00
   261 Broy./Diag. 0.40E+00    9.6     0.01138178     -1066.0786844671 -1.72E-02
   262 Broy./Diag. 0.40E+00    9.6     0.03695994     -1066.0948926821 -1.62E-02
   263 Broy./Diag. 0.40E+00    9.7     0.11818927     -1066.1266843730 -3.18E-02
   264 Broy./Diag. 0.40E+00    9.7     0.19223865     -1066.2716767894 -1.45E-01
   265 Broy./Diag. 0.40E+00    9.7     0.33764669     -1066.4989549368 -2.27E-01
   266 Broy./Diag. 0.40E+00    9.6     0.31727067     -1066.8746450585 -3.76E-01
   267 Broy./Diag. 0.40E+00    9.7     0.83896433     -1067.1710591557 -2.96E-01
   268 Broy./Diag. 0.40E+00    9.6     0.01883741     -1065.9655613931  1.21E+00
   269 Broy./Diag. 0.40E+00    9.7     0.01001950     -1066.0191164440 -5.36E-02
   270 Broy./Diag. 0.40E+00    9.7     0.00938228     -1066.0536404954 -3.45E-02
   271 Broy./Diag. 0.40E+00    9.7     0.05359229     -1066.0806089706 -2.70E-02
   272 Broy./Diag. 0.40E+00    9.6     0.01891630     -1066.1323362391 -5.17E-02
   273 Broy./Diag. 0.40E+00    9.6     0.80002924     -1066.1116475823  2.07E-02
   274 Broy./Diag. 0.40E+00    9.6     0.81356502     -1067.0881313535 -9.76E-01
   275 Broy./Diag. 0.40E+00    9.6     0.82326383     -1066.0274103816  1.06E+00
   276 Broy./Diag. 0.40E+00    9.7     0.82908816     -1067.1559105621 -1.13E+00
   277 Broy./Diag. 0.40E+00    9.7     0.82789058     -1065.8852788042  1.27E+00
   278 Broy./Diag. 0.40E+00    9.7     0.82606267     -1067.1283052110 -1.24E+00
   279 Broy./Diag. 0.40E+00    9.6     0.02313045     -1065.9566403862  1.17E+00
   280 Broy./Diag. 0.40E+00    9.7     0.81015804     -1066.0304664669 -7.38E-02
   281 Broy./Diag. 0.40E+00    9.6     0.80601148     -1067.0633654088 -1.03E+00
   282 Broy./Diag. 0.40E+00    9.6     0.82290466     -1066.0781427945  9.85E-01
   283 Broy./Diag. 0.40E+00    9.7     0.83683570     -1067.1676273513 -1.09E+00
   284 Broy./Diag. 0.40E+00    9.6     0.05317761     -1065.8164534921  1.35E+00
   285 Broy./Diag. 0.40E+00    9.6     0.02632247     -1065.9854253261 -1.69E-01
   286 Broy./Diag. 0.40E+00    9.5     0.11962142     -1066.0932177310 -1.08E-01
   287 Broy./Diag. 0.40E+00    9.6     0.70391927     -1066.2479991729 -1.55E-01
   288 Broy./Diag. 0.40E+00    9.5     0.83954351     -1067.1694244585 -9.21E-01
   289 Broy./Diag. 0.40E+00    9.6     0.07311232     -1065.7362817976  1.43E+00
   290 Broy./Diag. 0.40E+00    9.7     0.01859883     -1065.9872770984 -2.51E-01
   291 Broy./Diag. 0.40E+00    9.7     0.00470570     -1066.0667973516 -7.95E-02
   292 Broy./Diag. 0.40E+00    9.6     0.00674640     -1066.0808209644 -1.40E-02
   293 Broy./Diag. 0.40E+00    9.6     0.02328848     -1066.0941411087 -1.33E-02
   294 Broy./Diag. 0.40E+00    9.7     0.79855822     -1066.1287257936 -3.46E-02
   295 Broy./Diag. 0.40E+00    9.7     0.83293571     -1067.1663537802 -1.04E+00
   296 Broy./Diag. 0.40E+00    9.7     0.03943205     -1065.8678950686  1.30E+00
   297 Broy./Diag. 0.40E+00    9.7     0.02000404     -1065.9920797467 -1.24E-01
   298 Broy./Diag. 0.40E+00    9.8     0.01121530     -1066.0727728268 -8.07E-02
   299 Broy./Diag. 0.40E+00    9.6     0.81625493     -1066.0944203751 -2.16E-02
   300 Broy./Diag. 0.40E+00    9.7     0.83100319     -1067.1665037327 -1.07E+00

  Leaving inner SCF loop after reaching   300 steps.


  Electronic density on regular grids:       -513.1255199340       -1.1255199340
  Core density on regular grids:              513.1631954035        1.1631954035
  Total charge density on r-space grids:        0.0376754695
  Total charge density g-space grids:           0.0376754695

  Overlap energy of the core charge distribution:               0.00000495844747
  Self energy of the core charge distribution:              -2838.21791979120962
  Core Hamiltonian energy:                                    840.26175715800503
  Hartree energy:                                            1198.44540193965554
  Exchange-correlation energy:                               -267.65574799762231

  Total energy:                                             -1067.16650373272410

 *** WARNING in qs_scf.F:542 :: SCF run NOT converged ***


 ENERGY| Total FORCE_EVAL ( QS ) energy (a.u.):            -1066.153971963505910


 ATOMIC FORCES in [a.u.]

 # Atom   Kind   Element          X              Y              Z
      1      1      H          -0.63559405     2.64979450     0.68364129
      2      1      H          -0.41848931     1.17339691     1.09095584
      3      1      H          -2.44624278     1.71628750    -2.11445773
      4      1      H           1.05940218    -1.54021826    -1.44428508
      5      1      H          -0.37862201     1.25321510    -1.36369660
      6      1      H          -0.57493574     1.98388647     0.89312860
      7      1      H           2.33546236    -0.80408469     1.86607634
      8      1      H           2.12432786    -1.11015775    -0.23339491
      9      1      H          -2.79737393     1.36037731     0.14222522
     10      1      H           1.28387839    -2.78828793    -0.48337063
     11      1      H          -1.43883082    -1.28511478     1.02531246
     12      1      H           1.99900687    -1.91857910    -1.74338002
     13      1      H          -1.97794679     1.95771162    -1.69097913
     14      1      H           1.72428884     1.32776991     0.25442569
     15      1      H           0.67674762    -1.85525116    -0.73171070
     16      1      H           2.12543581     2.12373031     1.97495187
     17      1      H          -0.54751284     1.37339323    -1.03096984
     18      1      H          -2.38236854    -2.12484130    -0.79670863
     19      1      H          -1.60477534     1.59438351    -0.62556633
     20      1      H          -2.92697890    -1.05005184     0.07884328
     21      1      H           2.20379055    -1.42334718    -1.85243136
     22      1      H          -0.44340359     0.42862037     0.87714515
     23      1      H           2.11951432     0.03628873     0.53951751
     24      1      H           2.33772077    -0.59754365     2.24207915
     25      1      H           1.06857943    -1.57760471    -2.21963874
     26      1      H           1.03317040    -1.04796424     1.81505623
     27      1      H          -1.71491616    -0.66273073     1.04810919
     28      1      H          -1.86580048    -1.76870215    -1.21765173
     29      1      H          -1.48347397     0.44620647    -1.22737084
     30      1      H           1.56480396     1.41054501    -0.30715877
     31      1      H          -0.01349857    -2.34196033    -2.02708459
     32      1      H          -1.18145729    -1.29472357    -0.25018559
     33      1      H           1.71964030     1.51565404     0.05289907
     34      1      H          -1.71533317     0.62974632    -1.47367182
     35      1      H           0.84840794    -0.21406312     0.36803133
     36      1      H           0.35172258    -0.27136912     1.43079017
     37      1      H           2.10399400    -1.57061375    -1.70521282
     38      1      H           1.57534088     1.84290648     0.66883990
     39      1      H          -0.39921646    -1.25574232     0.24022848
     40      1      H          -0.90443122    -0.91268710    -2.11630829
     41      1      H          -1.40392651     0.04878317    -0.70419502
     42      1      H          -1.97543633     0.94204960     1.85357929
     43      1      H          -1.51047306     0.98120102     0.24423559
     44      1      H          -1.76220263    -1.97215679    -1.22083125
     45      1      H          -2.15414420    -1.82830701     0.02259509
     46      1      H           0.66404718     0.47467992     0.98142306
     47      1      H          -2.45326889     2.16085209    -1.25740762
     48      1      H          -0.25062166    -1.11930576    -1.33574925
     49      1      H           1.32094260     0.13914241    -1.75476033
     50      1      H          -0.07711811     1.88085281     0.79216251
     51      1      H          -1.70924575    -1.25771538     0.09069186
     52      1      H          -0.60295485     2.12271989    -1.34753044
     53      1      H          -1.36648995     1.89672824     0.43351052
     54      1      H           0.23528816     1.67379574    -1.53843041
     55      1      H          -2.09513095    -1.95263848     0.90795963
     56      1      H           2.44580632     1.95728778     1.43607400
     57      1      H          -2.40484683     0.07037980    -1.97681106
     58      1      H           1.69389175    -0.61143597     0.99645051
     59      1      H          -2.68422544    -0.56072720    -1.49233735
     60      1      H           1.89820768    -1.29438408    -0.87146264
     61      1      H           1.93072158    -0.52240848    -1.57969508
     62      1      H          -1.08287885     1.72829643     1.40904320
     63      1      H          -2.17615225    -2.43355686     1.72862159
     64      1      H           1.99795552    -1.78198808    -1.66469837
     65      1      H           2.34047785    -2.02442026    -1.28683501
     66      1      H           1.93266577     1.22658828     1.65779461
     67      1      H          -2.23253254    -1.20123140     1.59086880
     68      1      H           2.60093055    -1.99489201    -0.53245565
     69      1      H           1.96556544     1.34426465    -1.28419302
     70      1      H           1.76327756    -1.98581748    -0.85308203
     71      1      H          -1.35097707     1.67646972     0.99748379
     72      1      H           1.37311790    -2.39712291    -2.10514242
     73      1      H          -1.96958121     2.17001878    -0.38578870
     74      1      H          -2.57300702    -1.22820810    -1.96764978
     75      1      H           1.63283357    -0.06747728     1.14074227
     76      1      H          -1.73305585     0.51243775    -1.51959892
     77      1      H          -2.52476537     1.81067195     1.72775894
     78      1      H          -0.88746971     0.15970934    -1.85213377
     79      1      H          -0.28990180     1.75808206     1.78384724
     80      1      H          -1.56995925     1.89208998    -1.57000043
     81      1      H          -0.33138629    -1.04980657    -1.59975939
     82      1      H          -1.57709815     1.96012485    -1.85456273
     83      1      H          -2.34270580     0.79895720    -1.41553171
     84      1      H           2.57744466     1.77706538     2.01587737
     85      1      H           1.32565506    -1.80436780    -1.95967720
     86      1      H           2.43478879     2.26632442     1.54563167
     87      1      H          -2.18441353     1.02158894    -1.88261468
     88      1      H           1.58480086     1.92654068     1.86424946
     89      1      H          -0.64508138     0.80686525     0.09662855
     90      1      H           2.40929649    -1.91607132    -0.87299442
     91      1      H           2.83380267     2.15015748    -0.95148276
     92      1      H          -2.29930732     0.97883338     1.81334937
     93      1      H          -2.32081342     2.16220942     1.53839582
     94      1      H          -1.64240333     0.85664368     0.21827628
     95      1      H          -0.86112608    -1.61987901     1.93537712
     96      1      H          -0.72647835    -1.77088385    -0.79481233
     97      1      H           1.20642438     0.56742599    -1.29159233
     98      1      H           0.36546822     0.10166465     0.72173682
     99      1      H           0.57206006    -0.93397341     1.24466283
    100      1      H           2.36540149    -1.78073763    -0.98521585
    101      1      H           1.95561447     0.76499302     0.46964857
    102      1      H          -2.53882722     1.38150998    -1.90587614
    103      1      H           2.27777568    -0.29879592    -1.36411323
    104      1      H          -1.47973648     0.74280125    -1.63265864
    105      1      H          -1.75435409     2.34505090     1.33146432
    106      1      H           1.66503549     1.34678283     0.80832643
    107      1      H           0.82211378     1.39167816     1.12534311
    108      1      H           1.67017315    -2.41738639    -2.14506677
    109      1      H           1.53043076     1.44869344     1.78341953
    110      1      H           1.70730195     0.61818363    -0.06473501
    111      1      H           1.55394814    -0.56150192     1.10053098
    112      1      H          -1.78715429     1.76191832    -2.33882254
    113      1      H           0.09125361     0.28928921    -1.18409977
    114      1      H          -1.14143409     0.15511290    -0.29711846
    115      1      H          -2.19255199    -2.02507128    -2.05382183
    116      1      H          -2.08889570     1.09672887     1.60783218
    117      1      H           1.42987329    -0.86367407     0.68336968
    118      1      H          -0.92146271     0.63206893    -1.84528039
    119      1      H          -1.38709641    -1.33710981    -2.20054349
    120      1      H          -2.30985865     2.16273378    -1.66804577
    121      1      H          -1.90812856    -1.25049946    -1.37803506
    122      1      H           2.59478175     0.04697646    -1.51804714
    123      1      H          -2.08905336     0.51039088    -0.35735049
    124      1      H           1.20024617     1.76142771    -1.67238881
    125      1      H          -0.56434836     2.00866446     0.28001091
    126      1      H          -2.35736111    -1.90281911    -1.19117732
    127      1      H          -1.46588499    -0.72523448    -1.21463219
    128      1      H           0.42214471    -0.75857011     1.32479944
    129      2      O         -16.88985398   -16.95208969    -8.07682748
    130      2      O         -11.82947673    -1.98182481   -13.36983105
    131      2      O         -13.75123602   -15.77686352    -5.26597816
    132      2      O          18.03058643    10.55719356    -2.32597000
    133      2      O         -15.64858268   -16.16024905     1.07577940
    134      2      O           3.84836602    14.88100074    18.08192906
    135      2      O         -11.35058805   -15.36503389    -5.57028886
    136      2      O          13.45686345     5.81817206   -10.67862873
    137      2      O         -11.70458241   -10.49086661    11.49302753
    138      2      O         -23.54537761     9.14710527     7.73325685
    139      2      O         -17.05976038   -14.54727088    -8.42500844
    140      2      O          13.17607315     7.81261813   -11.91942993
    141      2      O           7.81031169    14.02594211     6.76921927
    142      2      O         -17.86387402   -11.39026594     6.61560289
    143      2      O          -8.23159448   -12.23027758    12.53948442
    144      2      O          -7.85615690    20.57655130   -12.96711641
    145      2      O         -11.47544217    -4.05075745    14.05022385
    146      2      O          11.29454486    -3.94681867   -10.14911633
    147      2      O          10.00985023     3.86572636    -7.68514369
    148      2      O         -12.41931852     8.06253214     1.69676587
    149      2      O         -12.33494076    -2.72606550    -4.58954217
    150      2      O         -15.61620991   -15.00531450    -5.68921107
    151      2      O          -2.95998986   -10.16945993    -5.33774826
    152      2      O         -14.45319891     5.97982963    -9.70671071
    153      2      O           9.38042641    15.46857736    -2.70679341
    154      2      O          -7.20727571    11.60109943     9.99028428
    155      2      O         -19.61811637   -18.65057299     3.76641774
    156      2      O           8.89266667    -3.01774893     9.51012700
    157      2      O          -8.28724546    -3.02533817    -9.10812517
    158      2      O           1.57263159    14.38041978     4.68722727
    159      2      O          -3.21463301     3.83398429    -9.56124890
    160      2      O           7.22178112    18.97520325   -16.00621090
    161      2      O          16.67773765    -7.44258741   -12.34511277
    162      2      O          -7.22597505    21.07404431   -10.91833417
    163      2      O          17.00311160   -14.80535400    -3.01559165
    164      2      O          -4.36956946    -2.72990323   -12.77167821
    165      2      O         -23.31587628     8.24930269    -7.00112373
    166      2      O         -13.49173578    -1.85007207   -12.79869007
    167      2      O          -2.53051116    13.11856103    -1.67220568
    168      2      O         -14.04760971   -17.72542130     0.95237400
    169      2      O         -17.85848363     7.83452574   -11.71359092
    170      2      O           6.89386239   -10.64075297   -10.95767209
    171      2      O          15.13865526     0.20126985   -10.91762447
    172      2      O         -11.54987159   -15.40732120    -5.98165278
    173      2      O           4.85583977   -17.29976331    -4.25893733
    174      2      O          -6.14739560   -10.40096373   -10.22302640
    175      2      O         -22.40289405   -12.95224868   -11.67548249
    176      2      O         -14.19895118     5.73711185   -14.45792994
    177      2      O          21.44659933   -10.26423742     7.07134728
    178      2      O           4.02462000   -21.81696919     0.23991335
    179      2      O           3.84423409    -6.14188297     3.89672953
    180      2      O           9.55241015   -11.68645888     8.28210467
    181      2      O          13.86460120   -17.24803140   -11.15381215
    182      2      O          17.08102507     5.01115081   -11.79847107
    183      2      O          23.17264007     1.10627375    -7.92280825
    184      2      O          -4.56872496    15.27889960    15.00523812
    185      2      O         -13.33461316   -15.53251653     4.52898457
    186      2      O         -23.74805094    -2.38690108   -10.91453838
    187      2      O          19.29953270     7.59778352    -8.46615799
    188      2      O         -21.29673799     0.53381515   -16.43165585
    189      2      O          14.87947486   -13.21059644   -10.55437493
    190      2      O          -9.41239794   -13.76921272    -1.81790812
    191      2      O          -8.85867409    19.41064297    -6.13120233
    192      2      O          10.84235036    -8.49965288   -12.82917447
 SUM OF ATOMIC FORCES        -195.36645997  -124.53372207  -285.68169836   367.81888803

 -------------------------------------------------------------------------------
 -                                                                             -
 -                                DBCSR STATISTICS                             -
 -                                                                             -
 -------------------------------------------------------------------------------
 COUNTER                                    TOTAL       BLAS       SMM       ACC
 flops     5 x     5 x   256          11912857600       0.0%    100.0%      0.0%
 flops     5 x    13 x   256          14885678080       0.0%    100.0%      0.0%
 flops    13 x     5 x   256          14915729920       0.0%    100.0%      0.0%
 flops    13 x    13 x   256          21565200384       0.0%    100.0%      0.0%
 flops inhomo. stacks                           0       0.0%      0.0%      0.0%
 flops total                        63.279466E+09       0.0%    100.0%      0.0%
 flops max/rank                     63.279466E+09       0.0%    100.0%      0.0%
 matmuls inhomo. stacks                         0       0.0%      0.0%      0.0%
 matmuls total                            2075395       0.0%    100.0%      0.0%
 number of processed stacks                 12040       0.0%    100.0%      0.0%
 average stack size                                     0.0     172.4       0.0
 marketing flops                   333.927416E+09
 -------------------------------------------------------------------------------
 # multiplications                            301
 max memory usage/rank               4.994953E+09
 # max total images/rank                        1
 # max 3D layers                                1
 # MPI messages exchanged                       0
 MPI messages size (bytes):
  total size                         0.000000E+00
  min size                           0.000000E+00
  max size                           0.000000E+00
  average size                       0.000000E+00
 MPI breakdown and total messages size (bytes):
             size <=      128                   0                        0
       128 < size <=     8192                   0                        0
      8192 < size <=    32768                   0                        0
     32768 < size <=   131072                   0                        0
    131072 < size <=  4194304                   0                        0
   4194304 < size <= 16777216                   0                        0
  16777216 < size                               0                        0
 -------------------------------------------------------------------------------

 MEMORY| Estimated peak process memory [MiB]                                4765

 -------------------------------------------------------------------------------
 -                                                                             -
 -                           R E F E R E N C E S                               -
 -                                                                             -
 -------------------------------------------------------------------------------
 
 CP2K version 7.1, the CP2K developers group (2019).
 CP2K is freely available from https://www.cp2k.org/ .

 Schuett, Ole; Messmer, Peter; Hutter, Juerg; VandeVondele, Joost. 
 Electronic Structure Calculations on Graphics Processing Units, John
 Wiley & Sons, Ltd, 173-190 (2016). 
 GPU-Accelerated Sparse Matrix-Matrix Multiplication for
 Linear Scaling Density Functional Theory.
 https://dx.doi.org/10.1002/9781118670712.ch8

 Borstnik, U; VandeVondele, J; Weber, V; Hutter, J. 
 PARALLEL COMPUTING, 40 (5-6), 47-58 (2014). 
 Sparse matrix multiplication: The distributed block-compressed sparse
 row library.
 https://dx.doi.org/10.1016/j.parco.2014.03.012

 Hutter, J; Iannuzzi, M; Schiffmann, F; VandeVondele, J. 
 WIREs Comput Mol Sci., 4 (1), 15-25 (2014). 
 CP2K: atomistic simulations of condensed matter systems.
 https://dx.doi.org/10.1002/wcms.1159

 Krack, M. 
 THEORETICAL CHEMISTRY ACCOUNTS, 114 (1-3), 145-152 (2005). 
 Pseudopotentials for H to Kr optimized for gradient-corrected
 exchange-correlation functionals.
 https://dx.doi.org/10.1007/s00214-005-0655-y

 VandeVondele, J; Krack, M; Mohamed, F; Parrinello, M; Chassaing, T;
 Hutter, J. COMPUTER PHYSICS COMMUNICATIONS, 167 (2), 103-128 (2005). 
 QUICKSTEP: Fast and accurate density functional calculations using a
 mixed Gaussian and plane waves approach.
 https://dx.doi.org/10.1016/j.cpc.2004.12.014

 Frigo, M; Johnson, SG. 
 PROCEEDINGS OF THE IEEE, 93 (2), 216-231 (2005). 
 The design and implementation of FFTW3.
 https://dx.doi.org/10.1109/JPROC.2004.840301

 Hartwigsen, C; Goedecker, S; Hutter, J. 
 PHYSICAL REVIEW B, 58 (7), 3641-3662 (1998). 
 Relativistic separable dual-space Gaussian pseudopotentials from H to Rn.
 https://dx.doi.org/10.1103/PhysRevB.58.3641

 Lippert, G; Hutter, J; Parrinello, M. 
 MOLECULAR PHYSICS, 92 (3), 477-487 (1997). 
 A hybrid Gaussian and plane wave density functional scheme.
 https://dx.doi.org/10.1080/002689797170220

 Goedecker, S; Teter, M; Hutter, J. 
 PHYSICAL REVIEW B, 54 (3), 1703-1710 (1996). 
 Separable dual-space Gaussian pseudopotentials.
 https://dx.doi.org/10.1103/PhysRevB.54.1703


 -------------------------------------------------------------------------------
 -                                                                             -
 -                                T I M I N G                                  -
 -                                                                             -
 -------------------------------------------------------------------------------
 SUBROUTINE                       CALLS  ASD         SELF TIME        TOTAL TIME
                                MAXIMUM       AVERAGE  MAXIMUM  AVERAGE  MAXIMUM
 CP2K                                 1  1.0    0.104    0.104 2894.079 2894.079
 qs_forces                            1  2.0    0.000    0.000 2891.918 2891.918
 qs_energies                          1  3.0    0.000    0.000 2891.004 2891.004
 scf_env_do_scf                       1  4.0    0.000    0.000 2888.065 2888.065
 scf_env_do_scf_inner_loop          300  5.0    0.503    0.503 2888.065 2888.065
 qs_scf_new_mos                     300  6.0    0.005    0.005 1967.498 1967.498
 eigensolver                        300  7.0    0.025    0.025 1941.000 1941.000
 cp_fm_syevd                        300  8.0 1260.331 1260.331 1261.363 1261.363
 cp_fm_cholesky_restore             900  8.0  678.541  678.541  678.541  678.541
 gspace_mixing                      299  6.0    8.669    8.669  491.565  491.565
 broyden_mixing                     299  7.0  430.153  430.153  430.155  430.155
 pw_transfer                       3912  9.9    0.305    0.305  270.511  270.511
 fft_wrap_pw1pw2                   3310 10.9    0.028    0.028  265.198  265.198
 fft_wrap_pw1pw2_30                1504 11.2   20.226   20.226  249.101  249.101
 rebuild_ks_matrix                  301  7.0    0.001    0.001  246.338  246.338
 qs_ks_build_kohn_sham_matrix       301  8.0    0.036    0.036  246.337  246.337
 qs_ks_update_qs_env                300  6.0    0.003    0.003  246.057  246.057
 qs_rho_update_rho                  301  6.0    0.002    0.002  181.525  181.525
 calculate_rho_elec                 301  7.0   59.149   59.149  181.523  181.523
 fft3d_s                           3311 12.9  137.017  137.017  137.027  137.027
 density_rs2pw                      301  8.0    0.014    0.014  121.249  121.249
 sum_up_and_integrate               301  9.0    3.388    3.388   85.315   85.315
 integrate_v_rspace                 301 10.0   19.653   19.653   81.926   81.926
 pw_scatter_s                      1804 13.2   80.766   80.766   80.766   80.766
 pw_poisson_solve                   301  9.0   62.327   62.327   67.451   67.451
 potential_pw2rs                    301 11.0    0.597    0.597   62.146   62.146
 -------------------------------------------------------------------------------

 The number of warnings for this run is : 1
 
 -------------------------------------------------------------------------------
  **** **** ******  **  PROGRAM ENDED AT                 2020-04-30 15:09:19.354
 ***** ** ***  *** **   PROGRAM RAN ON                                   gnode57
 **    ****   ******    PROGRAM RAN BY                               mayank.modi
 ***** **    ** ** **   PROGRAM PROCESS ID                                 30511
  **** **  *******  **  PROGRAM STOPPED IN /home/mayank.modi/ab-initio-thermodyn
                                           amics-of-water/mayank/cp2k_energy_cal
                                           culations
