==========================================
SLURM_JOB_ID = 135336
SLURM_NODELIST = gnode24
SLURM_JOB_GPUS = 
==========================================
 DBCSR| CPU Multiplication driver                                           XSMM
 DBCSR| Multrec recursion limit                                              512
 DBCSR| Multiplication stack size                                           1000
 DBCSR| Maximum elements for images                                    UNLIMITED
 DBCSR| Multiplicative factor virtual images                                   1
 DBCSR| Use multiplication densification                                       T
 DBCSR| Multiplication size stacks                                             3


  **** **** ******  **  PROGRAM STARTED AT               2020-05-02 03:03:02.908
 ***** ** ***  *** **   PROGRAM STARTED ON                               gnode24
 **    ****   ******    PROGRAM STARTED BY                           mayank.modi
 ***** **    ** ** **   PROGRAM PROCESS ID                                  4804
  **** **  *******  **  PROGRAM STARTED IN /home/mayank.modi/ab-initio-thermodyn
                                           amics-of-water/mayank/cp2k_energy_cal
                                           culations

 CP2K| version string:                                          CP2K version 7.1
 CP2K| source code revision number:                                  git:e635599
 CP2K| cp2kflags: omp libint fftw3 libxc xsmm spglib                            
 CP2K| is freely available from                            https://www.cp2k.org/
 CP2K| Program compiled at                          Mon Dec 23 19:23:12 CET 2019
 CP2K| Program compiled on                                                pc9404
 CP2K| Program compiled for                                Linux-x86-64-gfortran
 CP2K| Data directory path                                        /opt/cp2k/data
 CP2K| Input file name                                                  input.in

 GLOBAL| Force Environment number                                              1
 GLOBAL| Basis set file name                                           BASIS_SET
 GLOBAL| Potential file name                                      GTH_POTENTIALS
 GLOBAL| MM Potential file name                                     MM_POTENTIAL
 GLOBAL| Coordinate file name                                      __STD_INPUT__
 GLOBAL| Method name                                                        CP2K
 GLOBAL| Project name                                                   H2O_bulk
 GLOBAL| Preferred FFT library                                             FFTW3
 GLOBAL| Preferred diagonalization lib.                                       SL
 GLOBAL| Run type                                                   ENERGY_FORCE
 GLOBAL| All-to-all communication in single precision                          F
 GLOBAL| FFTs using library dependent lengths                                  F
 GLOBAL| Global print level                                                  LOW
 GLOBAL| MPI I/O enabled                                                       T
 GLOBAL| Total number of message passing processes                             1
 GLOBAL| Number of threads for this process                                   10
 GLOBAL| This output is from process                                           0
 GLOBAL| CPU model name                Intel(R) Xeon(R) CPU E5-2640 v4 @ 2.40GHz
 GLOBAL| CPUID                                                              1002
 GLOBAL| Compiled for CPUID                                                    0
 HINT in environment.F:814 The compiler target flags (generic) used to build
   this binary cannot exploit all extensions of this CPU model (x86_avx2).
   Consider compiler target flags as part of FCFLAGS and CFLAGS (ARCH file).

 MEMORY| system memory details [Kb]
 MEMORY|                        rank 0           min           max       average
 MEMORY| MemTotal            131897988     131897988     131897988     131897988
 MEMORY| MemFree              84707956      84707956      84707956      84707956
 MEMORY| Buffers               1193864       1193864       1193864       1193864
 MEMORY| Cached               41295420      41295420      41295420      41295420
 MEMORY| Slab                  2782580       2782580       2782580       2782580
 MEMORY| SReclaimable          2295488       2295488       2295488       2295488
 MEMORY| MemLikelyFree       129492728     129492728     129492728     129492728


 GENERATE|  Preliminary Number of Bonds generated:                             0
 GENERATE|  Achieved consistency in connectivity generation.

 *******************************************************************************
 *******************************************************************************
 **                                                                           **
 **     #####                         ##              ##                      **
 **    ##   ##            ##          ##              ##                      **
 **   ##     ##                       ##            ######                    **
 **   ##     ##  ##   ##  ##   #####  ##  ##   ####   ##    #####    #####    **
 **   ##     ##  ##   ##  ##  ##      ## ##   ##      ##   ##   ##  ##   ##   **
 **   ##  ## ##  ##   ##  ##  ##      ####     ###    ##   ######   ######    **
 **    ##  ###   ##   ##  ##  ##      ## ##      ##   ##   ##       ##        **
 **     #######   #####   ##   #####  ##  ##  ####    ##    #####   ##        **
 **           ##                                                    ##        **
 **                                                                           **
 **                                                ... make the atoms dance   **
 **                                                                           **
 **            Copyright (C) by CP2K developers group (2000 - 2019)           **
 **                                                                           **
 *******************************************************************************


 TOTAL NUMBERS AND MAXIMUM NUMBERS

  Total number of            - Atomic kinds:                                   2
                             - Atoms:                                        192
                             - Shell sets:                                   384
                             - Shells:                                       704
                             - Primitive Cartesian functions:                960
                             - Cartesian basis functions:                   1536
                             - Spherical basis functions:                   1472

  Maximum angular momentum of- Orbital basis functions:                        2
                             - Local part of the GTH pseudopotential:          2
                             - Non-local part of the GTH pseudopotential:      0


 SCF PARAMETERS         Density guess:                                    ATOMIC
                        --------------------------------------------------------
                        max_scf:                                             300
                        max_scf_history:                                       0
                        max_diis:                                              4
                        --------------------------------------------------------
                        eps_scf:                                        1.00E-07
                        eps_scf_history:                                0.00E+00
                        eps_diis:                                       1.00E-01
                        eps_eigval:                                     1.00E-05
                        --------------------------------------------------------
                        level_shift [a.u.]:                                 0.00
                        --------------------------------------------------------
                        Mixing method:                            BROYDEN_MIXING
                                                charge density mixing in g-space
                        --------------------------------------------------------
                        No outer SCF

 Number of electrons:                                                        512
 Number of occupied orbitals:                                                256
 Number of molecular orbitals:                                               256

 Number of orbital functions:                                               1472
 Number of independent orbital functions:                                   1472

 Extrapolation method: initial_guess


 SCF WAVEFUNCTION OPTIMIZATION

  Step     Update method      Time    Convergence         Total energy    Change
  ------------------------------------------------------------------------------
     1 NoMix/Diag. 0.40E+00   10.1     0.99660824     -1088.9103513494 -1.09E+03
     2 Broy./Diag. 0.40E+00   14.2     0.30035844     -1015.0232786879  7.39E+01
     3 Broy./Diag. 0.40E+00   15.2     0.03358377     -1092.4197491591 -7.74E+01
     4 Broy./Diag. 0.40E+00   15.1     0.03315616     -1094.5129889540 -2.09E+00
     5 Broy./Diag. 0.40E+00   15.6     0.00497460     -1095.5108546609 -9.98E-01
     6 Broy./Diag. 0.40E+00   15.9     0.01154193     -1095.3887722731  1.22E-01
     7 Broy./Diag. 0.40E+00   18.6     0.00660412     -1095.5366156434 -1.48E-01
     8 Broy./Diag. 0.40E+00   18.9     0.00724597     -1095.6670092981 -1.30E-01
     9 Broy./Diag. 0.40E+00   19.2     0.00391528     -1095.6927975929 -2.58E-02
    10 Broy./Diag. 0.40E+00   20.0     0.00237564     -1095.6832359324  9.56E-03
    11 Broy./Diag. 0.40E+00   20.0     0.00187800     -1095.6563245789  2.69E-02
    12 Broy./Diag. 0.40E+00   20.3     0.00093146     -1095.6751050237 -1.88E-02
    13 Broy./Diag. 0.40E+00   20.0     0.00100781     -1095.6991425524 -2.40E-02
    14 Broy./Diag. 0.40E+00   20.3     0.00028795     -1095.7038108938 -4.67E-03
    15 Broy./Diag. 0.40E+00   19.8     0.00020593     -1095.6967195529  7.09E-03
    16 Broy./Diag. 0.40E+00   19.8     0.00012188     -1095.6946790257  2.04E-03
    17 Broy./Diag. 0.40E+00   19.9     0.00005338     -1095.6948682577 -1.89E-04
    18 Broy./Diag. 0.40E+00   20.2     0.00003749     -1095.6943648224  5.03E-04
    19 Broy./Diag. 0.40E+00   20.2     0.00003650     -1095.6949792941 -6.14E-04
    20 Broy./Diag. 0.40E+00   19.9     0.00002297     -1095.6952192978 -2.40E-04
    21 Broy./Diag. 0.40E+00   20.1     0.00002032     -1095.6954326640 -2.13E-04
    22 Broy./Diag. 0.40E+00   19.9     0.00000819     -1095.6954413002 -8.64E-06
    23 Broy./Diag. 0.40E+00   20.1     0.00001067     -1095.6954026385  3.87E-05
    24 Broy./Diag. 0.40E+00   20.2     0.00000604     -1095.6953871142  1.55E-05
    25 Broy./Diag. 0.40E+00   20.7     0.00000377     -1095.6953628953  2.42E-05
    26 Broy./Diag. 0.40E+00   19.9     0.00000316     -1095.6953027432  6.02E-05
    27 Broy./Diag. 0.40E+00   20.1     0.00000092     -1095.6952975507  5.19E-06
    28 Broy./Diag. 0.40E+00   20.5     0.00000121     -1095.6953161516 -1.86E-05
    29 Broy./Diag. 0.40E+00   20.9     0.00000066     -1095.6953167130 -5.61E-07
    30 Broy./Diag. 0.40E+00   21.6     0.00000042     -1095.6953130570  3.66E-06
    31 Broy./Diag. 0.40E+00   20.1     0.00000029     -1095.6953172718 -4.21E-06
    32 Broy./Diag. 0.40E+00   19.2     0.00000008     -1095.6953201421 -2.87E-06

  *** SCF run converged in    32 steps ***


  Electronic density on regular grids:       -512.0010289287       -0.0010289287
  Core density on regular grids:              512.0065049326        0.0065049326
  Total charge density on r-space grids:        0.0054760038
  Total charge density g-space grids:           0.0054760038

  Overlap energy of the core charge distribution:               0.00000495844747
  Self energy of the core charge distribution:              -2838.21791979120962
  Core Hamiltonian energy:                                    825.35046283660461
  Hartree energy:                                            1183.39032092990260
  Exchange-correlation energy:                               -266.21818907588408

  Total energy:                                             -1095.69532014213928

 ENERGY| Total FORCE_EVAL ( QS ) energy (a.u.):            -1095.695319813898095


 ATOMIC FORCES in [a.u.]

 # Atom   Kind   Element          X              Y              Z
      1      1      H          -0.17194445    -0.13741861    -0.11319642
      2      1      H          -0.10295855    -0.10111042     0.09816681
      3      1      H          -0.05711917    -0.16624715    -0.11221772
      4      1      H           0.18458264     0.07380430    -0.11136373
      5      1      H           0.12903210     0.04419385     0.11652150
      6      1      H           0.09844755     0.13444915    -0.01479706
      7      1      H           0.07641912     0.10188945    -0.01387016
      8      1      H          -0.07005153     0.15167090    -0.06200402
      9      1      H           0.23003908     0.17896763     0.01028076
     10      1      H          -0.05064709    -0.18852711    -0.03889705
     11      1      H           0.12458850    -0.19407300     0.09441715
     12      1      H           0.09919602    -0.08241017     0.07333199
     13      1      H          -0.15690627    -0.18891136    -0.08122126
     14      1      H          -0.06677663    -0.09826285     0.01836528
     15      1      H           0.15157695     0.08697629    -0.08154526
     16      1      H          -0.10913246    -0.19333050    -0.04840345
     17      1      H          -0.12400210    -0.16204516    -0.02395795
     18      1      H           0.18110934     0.08972640     0.11775978
     19      1      H           0.06912962    -0.07605672    -0.12250760
     20      1      H           0.17255268     0.06891058    -0.07451850
     21      1      H           0.16611500     0.20748152    -0.08113351
     22      1      H          -0.18313584    -0.08857577    -0.03125864
     23      1      H           0.16451051     0.05744193     0.04438623
     24      1      H           0.15313085    -0.01335025    -0.08651158
     25      1      H          -0.07119679    -0.13162443    -0.13804878
     26      1      H          -0.08415909    -0.06771555     0.08595109
     27      1      H           0.15591829    -0.01772947    -0.09317537
     28      1      H           0.01003323    -0.12198345    -0.10451426
     29      1      H          -0.07977303    -0.10252424    -0.06146586
     30      1      H          -0.12575097    -0.01793513    -0.10180778
     31      1      H          -0.11446312     0.09180105     0.07478010
     32      1      H           0.01494444     0.11361387     0.01367921
     33      1      H          -0.18505366    -0.02793737    -0.07746650
     34      1      H          -0.12338553     0.04394159    -0.15615517
     35      1      H          -0.15107593     0.01242645     0.03732888
     36      1      H          -0.14956904     0.01461202    -0.08019634
     37      1      H           0.16102279    -0.10963651     0.12251890
     38      1      H          -0.06555395     0.15427306     0.05741561
     39      1      H          -0.13577170     0.13748983     0.12206279
     40      1      H          -0.24197115     0.09595497    -0.00181261
     41      1      H           0.11823343     0.06252340    -0.01186901
     42      1      H           0.06900114     0.17086739    -0.08908552
     43      1      H          -0.18634618    -0.04171793    -0.12120220
     44      1      H           0.18153477     0.08867184    -0.11325268
     45      1      H           0.13397158    -0.05699225     0.11492637
     46      1      H          -0.13776412     0.03882785     0.10077173
     47      1      H          -0.04109750    -0.18776139    -0.10901537
     48      1      H          -0.05371999     0.19713565    -0.11858755
     49      1      H           0.17726804    -0.07513248     0.11823438
     50      1      H           0.05229601    -0.00520240     0.08975292
     51      1      H           0.02095957     0.05513826    -0.07684702
     52      1      H          -0.00833019    -0.12563930    -0.16709241
     53      1      H          -0.18142595     0.16137054     0.06838918
     54      1      H          -0.10240198     0.16199282    -0.08372875
     55      1      H           0.16930493    -0.19101481     0.10636519
     56      1      H          -0.01805600     0.19708328     0.07419395
     57      1      H           0.21514576     0.05777021     0.12002714
     58      1      H           0.08671863    -0.00839400     0.05955121
     59      1      H           0.22187796    -0.01178384     0.12139633
     60      1      H           0.15592352    -0.13195218     0.00868035
     61      1      H           0.18148647    -0.12808765     0.03134380
     62      1      H          -0.19034718     0.16918639    -0.01243922
     63      1      H          -0.15071429     0.00108314     0.00606837
     64      1      H          -0.20882058     0.13362862     0.06968027
     65      1      H           0.12478586     0.02035778     0.05717234
     66      1      H          -0.09355234    -0.01798432     0.16553888
     67      1      H          -0.15703661     0.14025279     0.05753055
     68      1      H          -0.24365716     0.19403848     0.09135122
     69      1      H           0.16339735    -0.03389851     0.05833941
     70      1      H          -0.09716895     0.03196788     0.01465336
     71      1      H          -0.09179696    -0.16593513    -0.15999171
     72      1      H           0.17064978     0.10495020    -0.11707235
     73      1      H          -0.01098653     0.17254347    -0.03775025
     74      1      H           0.04546513    -0.15900546    -0.12908634
     75      1      H          -0.17224502    -0.15803100     0.06694480
     76      1      H          -0.13099672    -0.09111017    -0.08982403
     77      1      H          -0.16300859    -0.14185772    -0.10033641
     78      1      H           0.05990855     0.21342793    -0.08542316
     79      1      H           0.02896300    -0.09471007    -0.07620973
     80      1      H          -0.14133618    -0.15398651     0.05838665
     81      1      H           0.07339465     0.12173996    -0.01904336
     82      1      H           0.11096265    -0.00575185    -0.02048179
     83      1      H          -0.19302654    -0.11121077     0.05902761
     84      1      H          -0.09028532    -0.17071364     0.16540614
     85      1      H           0.03310930    -0.09729864    -0.07898247
     86      1      H          -0.19923325     0.16471046    -0.08500847
     87      1      H          -0.08159332     0.16866950    -0.08251940
     88      1      H          -0.11219021     0.18858302    -0.09859648
     89      1      H           0.11690141     0.12590982    -0.08083954
     90      1      H          -0.17671971    -0.03719651     0.01288951
     91      1      H           0.07392191     0.20503547     0.11711365
     92      1      H          -0.02771677     0.16015266     0.13045230
     93      1      H          -0.10193337     0.15034459    -0.00892140
     94      1      H          -0.04656669    -0.03352403     0.05799026
     95      1      H           0.05302264     0.16661648     0.07251592
     96      1      H           0.07965761     0.11040431    -0.02519263
     97      1      H          -0.11383887     0.04823440    -0.14653269
     98      1      H          -0.15239682     0.10154421     0.03986131
     99      1      H          -0.11626476     0.08049947     0.01995208
    100      1      H          -0.02638170    -0.10926302     0.05825450
    101      1      H          -0.17873881     0.02328691    -0.02250593
    102      1      H          -0.12475368     0.07372467     0.10069812
    103      1      H          -0.06051758     0.01924147     0.03606946
    104      1      H          -0.22260644    -0.11261515    -0.12069841
    105      1      H           0.15604871     0.19901590     0.09985188
    106      1      H           0.09988313    -0.02504317    -0.02916403
    107      1      H          -0.12233739     0.08381900    -0.19488176
    108      1      H           0.02614728    -0.00894587    -0.09307933
    109      1      H          -0.15126463    -0.03109172    -0.05992948
    110      1      H          -0.08139166     0.06333615     0.09729193
    111      1      H          -0.14485279     0.23352793     0.10156831
    112      1      H           0.14347205    -0.14614626     0.08632653
    113      1      H          -0.15739470    -0.04635011     0.11942225
    114      1      H          -0.05285063    -0.05125739     0.04568434
    115      1      H           0.13943702     0.11865152     0.12414778
    116      1      H           0.08352428    -0.14666067     0.06662386
    117      1      H           0.04461910    -0.19172198     0.00645444
    118      1      H           0.06380593    -0.10274771    -0.08098573
    119      1      H          -0.18309291    -0.17674365    -0.04031999
    120      1      H           0.18284732     0.11644019    -0.03983014
    121      1      H          -0.15310609    -0.01214785     0.09979179
    122      1      H           0.12022477     0.04816072     0.06575191
    123      1      H           0.10231592     0.12950993     0.03641574
    124      1      H           0.18922090     0.16316664     0.03106321
    125      1      H           0.08949124     0.15989877     0.05685519
    126      1      H          -0.05218563    -0.14661094     0.12659436
    127      1      H           0.05799153    -0.08300757     0.12778705
    128      1      H          -0.17730723     0.18283835     0.06185440
    129      2      O           0.33263983     0.13052652     0.01104513
    130      2      O          -0.06552841     0.36517385    -0.33893111
    131      2      O          -0.64647560     0.64643457     0.09308522
    132      2      O           0.30781875     0.72240801    -0.14582715
    133      2      O          -0.58758771     0.46254083     0.04028096
    134      2      O          -0.42491748    -0.11573532     0.43273403
    135      2      O          -0.11124454    -0.42920619     0.27196325
    136      2      O           0.67472791     0.16722379    -0.48057344
    137      2      O           0.14743230    -0.30160680    -0.39613642
    138      2      O           0.73450553     0.69708949    -0.41116087
    139      2      O          -0.76519783     0.33038800     0.06148591
    140      2      O           0.40534617    -0.72799182    -0.26169477
    141      2      O           0.31267490    -0.81222820    -0.41014381
    142      2      O          -0.21982728     0.46853871    -0.24048685
    143      2      O           0.54555638    -0.19561788    -0.07227154
    144      2      O          -0.17673237    -0.57039600     0.45406198
    145      2      O           0.12812439     0.79141559    -0.37770341
    146      2      O          -0.76831552     0.13217358    -0.26018434
    147      2      O           0.40030959    -0.10000219     0.02415176
    148      2      O           0.56046397     0.75097628     0.41505206
    149      2      O           0.78349863    -0.27183963    -0.25216614
    150      2      O          -0.22050913     0.62752584    -0.23079532
    151      2      O          -0.28300748    -0.67342996     0.12916038
    152      2      O           0.56795133     0.16149540    -0.50232928
    153      2      O           0.72432849     0.61758031     0.37092885
    154      2      O           0.32814139     0.72236119    -0.40007961
    155      2      O           0.25170884     0.64112270     0.43000883
    156      2      O          -0.10441732    -0.29753626     0.33231121
    157      2      O          -0.62266199    -0.26918316     0.02052076
    158      2      O          -0.51089796    -0.81143414     0.05689983
    159      2      O          -0.48664207    -0.13263301    -0.29532869
    160      2      O           0.66333666    -0.57424966     0.03002358
    161      2      O           0.24825695    -0.57567191     0.40044884
    162      2      O           0.29561838     0.43461075    -0.00955952
    163      2      O          -0.61086022     0.60041565    -0.13861133
    164      2      O           0.46346364     0.38980981    -0.33918759
    165      2      O          -0.41367339    -0.65623209    -0.32627201
    166      2      O           0.37395528    -0.76262273     0.11858800
    167      2      O           0.47639264     0.55280216    -0.00660973
    168      2      O          -0.10988226     0.13527432     0.04015813
    169      2      O          -0.63562841     0.68971799    -0.41939811
    170      2      O           0.64232455    -0.47175892     0.31572906
    171      2      O          -0.63305669     0.12726002    -0.46343342
    172      2      O           0.34755495     0.71803382    -0.18767332
    173      2      O           0.32498907     0.43178699    -0.12948063
    174      2      O           0.48891888     0.31689420     0.21533185
    175      2      O           0.45544708    -0.18662520     0.33259041
    176      2      O          -0.05868401     0.73381189     0.36250371
    177      2      O          -0.70451869     0.40646391    -0.41702144
    178      2      O          -0.76021677    -0.62025988     0.43182260
    179      2      O           0.41098220     0.53140640    -0.39201887
    180      2      O           0.66308555    -0.47723933     0.45973389
    181      2      O           0.02222564     0.54084479    -0.44210362
    182      2      O           0.80033368    -0.07445092    -0.37930058
    183      2      O          -0.17866864     0.81556163     0.13537857
    184      2      O          -0.48583084     0.55737457     0.27902271
    185      2      O           0.34579423    -0.47578144     0.05483367
    186      2      O           0.72112576     0.40368292     0.25094564
    187      2      O           0.29153486    -0.62413062     0.24187224
    188      2      O           0.13772423    -0.46058070    -0.33156590
    189      2      O           0.42184714     0.58181634     0.39729331
    190      2      O          -0.59992959     0.55400719     0.38632126
    191      2      O           0.77266077    -0.59456510     0.48040629
    192      2      O          -0.73881091     0.21085003    -0.10976748
 SUM OF ATOMIC FORCES           2.90656243     7.43024543    -1.05951545     8.04855424

 -------------------------------------------------------------------------------
 -                                                                             -
 -                                DBCSR STATISTICS                             -
 -                                                                             -
 -------------------------------------------------------------------------------
 COUNTER                                    TOTAL       BLAS       SMM       ACC
 flops     5 x     5 x   256           1306060800       0.0%    100.0%      0.0%
 flops     5 x    13 x   256           1631984640       0.0%    100.0%      0.0%
 flops    13 x     5 x   256           1635279360       0.0%    100.0%      0.0%
 flops    13 x    13 x   256           2364291072       0.0%    100.0%      0.0%
 flops inhomo. stacks                           0       0.0%      0.0%      0.0%
 flops total                         6.937616E+09       0.0%    100.0%      0.0%
 flops max/rank                      6.937616E+09       0.0%    100.0%      0.0%
 matmuls inhomo. stacks                         0       0.0%      0.0%      0.0%
 matmuls total                             227535       0.0%    100.0%      0.0%
 number of processed stacks                  1320       0.0%    100.0%      0.0%
 average stack size                                     0.0     172.4       0.0
 marketing flops                    36.609982E+09
 -------------------------------------------------------------------------------
 # multiplications                             33
 max memory usage/rank              14.004232E+09
 # max total images/rank                        1
 # max 3D layers                                1
 # MPI messages exchanged                       0
 MPI messages size (bytes):
  total size                         0.000000E+00
  min size                           0.000000E+00
  max size                           0.000000E+00
  average size                       0.000000E+00
 MPI breakdown and total messages size (bytes):
             size <=      128                   0                        0
       128 < size <=     8192                   0                        0
      8192 < size <=    32768                   0                        0
     32768 < size <=   131072                   0                        0
    131072 < size <=  4194304                   0                        0
   4194304 < size <= 16777216                   0                        0
  16777216 < size                               0                        0
 -------------------------------------------------------------------------------

 MEMORY| Estimated peak process memory [MiB]                               13358

 -------------------------------------------------------------------------------
 -                                                                             -
 -                           R E F E R E N C E S                               -
 -                                                                             -
 -------------------------------------------------------------------------------
 
 CP2K version 7.1, the CP2K developers group (2019).
 CP2K is freely available from https://www.cp2k.org/ .

 Schuett, Ole; Messmer, Peter; Hutter, Juerg; VandeVondele, Joost. 
 Electronic Structure Calculations on Graphics Processing Units, John
 Wiley & Sons, Ltd, 173-190 (2016). 
 GPU-Accelerated Sparse Matrix-Matrix Multiplication for
 Linear Scaling Density Functional Theory.
 https://dx.doi.org/10.1002/9781118670712.ch8

 Borstnik, U; VandeVondele, J; Weber, V; Hutter, J. 
 PARALLEL COMPUTING, 40 (5-6), 47-58 (2014). 
 Sparse matrix multiplication: The distributed block-compressed sparse
 row library.
 https://dx.doi.org/10.1016/j.parco.2014.03.012

 Hutter, J; Iannuzzi, M; Schiffmann, F; VandeVondele, J. 
 WIREs Comput Mol Sci., 4 (1), 15-25 (2014). 
 CP2K: atomistic simulations of condensed matter systems.
 https://dx.doi.org/10.1002/wcms.1159

 Krack, M. 
 THEORETICAL CHEMISTRY ACCOUNTS, 114 (1-3), 145-152 (2005). 
 Pseudopotentials for H to Kr optimized for gradient-corrected
 exchange-correlation functionals.
 https://dx.doi.org/10.1007/s00214-005-0655-y

 VandeVondele, J; Krack, M; Mohamed, F; Parrinello, M; Chassaing, T;
 Hutter, J. COMPUTER PHYSICS COMMUNICATIONS, 167 (2), 103-128 (2005). 
 QUICKSTEP: Fast and accurate density functional calculations using a
 mixed Gaussian and plane waves approach.
 https://dx.doi.org/10.1016/j.cpc.2004.12.014

 Frigo, M; Johnson, SG. 
 PROCEEDINGS OF THE IEEE, 93 (2), 216-231 (2005). 
 The design and implementation of FFTW3.
 https://dx.doi.org/10.1109/JPROC.2004.840301

 Hartwigsen, C; Goedecker, S; Hutter, J. 
 PHYSICAL REVIEW B, 58 (7), 3641-3662 (1998). 
 Relativistic separable dual-space Gaussian pseudopotentials from H to Rn.
 https://dx.doi.org/10.1103/PhysRevB.58.3641

 Lippert, G; Hutter, J; Parrinello, M. 
 MOLECULAR PHYSICS, 92 (3), 477-487 (1997). 
 A hybrid Gaussian and plane wave density functional scheme.
 https://dx.doi.org/10.1080/002689797170220

 Goedecker, S; Teter, M; Hutter, J. 
 PHYSICAL REVIEW B, 54 (3), 1703-1710 (1996). 
 Separable dual-space Gaussian pseudopotentials.
 https://dx.doi.org/10.1103/PhysRevB.54.1703


 -------------------------------------------------------------------------------
 -                                                                             -
 -                                T I M I N G                                  -
 -                                                                             -
 -------------------------------------------------------------------------------
 SUBROUTINE                       CALLS  ASD         SELF TIME        TOTAL TIME
                                MAXIMUM       AVERAGE  MAXIMUM  AVERAGE  MAXIMUM
 CP2K                                 1  1.0    0.288    0.288  638.256  638.256
 qs_forces                            1  2.0    0.000    0.000  631.709  631.709
 qs_energies                          1  3.0    0.000    0.000  628.113  628.113
 scf_env_do_scf                       1  4.0    0.000    0.000  620.395  620.395
 scf_env_do_scf_inner_loop           32  5.0    2.106    2.106  620.395  620.395
 qs_scf_new_mos                      32  6.0    0.001    0.001  225.428  225.428
 eigensolver                         32  7.0    0.004    0.004  217.486  217.486
 gspace_mixing                       31  6.0    2.761    2.761  193.353  193.353
 broyden_mixing                      31  7.0  168.003  168.003  168.004  168.004
 cp_fm_syevd                         32  8.0  141.082  141.082  141.276  141.276
 pw_transfer                        428  9.9    0.037    0.037  128.794  128.794
 fft_wrap_pw1pw2                    362 10.9    0.010    0.010  124.835  124.835
 fft_wrap_pw1pw2_50                 164 11.2    9.048    9.048  111.976  111.976
 rebuild_ks_matrix                   33  6.9    0.000    0.000  110.152  110.152
 qs_ks_build_kohn_sham_matrix        33  7.9    0.011    0.011  110.152  110.152
 qs_ks_update_qs_env                 32  6.0    0.001    0.001  106.850  106.850
 qs_rho_update_rho                   33  6.0    0.001    0.001   83.093   83.093
 calculate_rho_elec                  33  7.0   21.270   21.270   83.092   83.092
 cp_fm_cholesky_restore              96  8.0   76.093   76.093   76.093   76.093
 fft3d_s                            363 12.8   65.697   65.697   65.720   65.720
 density_rs2pw                       33  8.0    0.006    0.006   60.420   60.420
 sum_up_and_integrate                33  8.9    1.206    1.206   39.037   39.037
 integrate_v_rspace                  33  9.9    2.975    2.975   37.830   37.830
 pw_scatter_s                       196 13.1   33.281   33.281   33.281   33.281
 potential_pw2rs                     33 10.9    0.202    0.202   32.091   32.091
 pw_poisson_solve                    33  8.9   22.354   22.354   26.468   26.468
 qs_vxc_create                       33  8.9    0.001    0.001   15.706   15.706
 xc_vxc_pw_create                    33  9.9    2.904    2.904   15.704   15.704
 pw_gather_s                        166 12.6   15.206   15.206   15.206   15.206
 xc_rho_set_and_dset_create          33 10.9    0.002    0.002   12.800   12.800
 -------------------------------------------------------------------------------

 The number of warnings for this run is : 0
 
 -------------------------------------------------------------------------------
  **** **** ******  **  PROGRAM ENDED AT                 2020-05-02 03:13:41.472
 ***** ** ***  *** **   PROGRAM RAN ON                                   gnode24
 **    ****   ******    PROGRAM RAN BY                               mayank.modi
 ***** **    ** ** **   PROGRAM PROCESS ID                                  4804
  **** **  *******  **  PROGRAM STOPPED IN /home/mayank.modi/ab-initio-thermodyn
                                           amics-of-water/mayank/cp2k_energy_cal
                                           culations
