==========================================
SLURM_JOB_ID = 135335
SLURM_NODELIST = gnode45
SLURM_JOB_GPUS = 
==========================================
 DBCSR| CPU Multiplication driver                                           XSMM
 DBCSR| Multrec recursion limit                                              512
 DBCSR| Multiplication stack size                                           1000
 DBCSR| Maximum elements for images                                    UNLIMITED
 DBCSR| Multiplicative factor virtual images                                   1
 DBCSR| Use multiplication densification                                       T
 DBCSR| Multiplication size stacks                                             3


  **** **** ******  **  PROGRAM STARTED AT               2020-05-02 02:56:54.027
 ***** ** ***  *** **   PROGRAM STARTED ON                               gnode45
 **    ****   ******    PROGRAM STARTED BY                           mayank.modi
 ***** **    ** ** **   PROGRAM PROCESS ID                                 19373
  **** **  *******  **  PROGRAM STARTED IN /home/mayank.modi/ab-initio-thermodyn
                                           amics-of-water/mayank/cp2k_energy_cal
                                           culations

 CP2K| version string:                                          CP2K version 7.1
 CP2K| source code revision number:                                  git:e635599
 CP2K| cp2kflags: omp libint fftw3 libxc xsmm spglib                            
 CP2K| is freely available from                            https://www.cp2k.org/
 CP2K| Program compiled at                          Mon Dec 23 19:23:12 CET 2019
 CP2K| Program compiled on                                                pc9404
 CP2K| Program compiled for                                Linux-x86-64-gfortran
 CP2K| Data directory path                                        /opt/cp2k/data
 CP2K| Input file name                                                  input.in

 GLOBAL| Force Environment number                                              1
 GLOBAL| Basis set file name                                           BASIS_SET
 GLOBAL| Potential file name                                      GTH_POTENTIALS
 GLOBAL| MM Potential file name                                     MM_POTENTIAL
 GLOBAL| Coordinate file name                                      __STD_INPUT__
 GLOBAL| Method name                                                        CP2K
 GLOBAL| Project name                                                   H2O_bulk
 GLOBAL| Preferred FFT library                                             FFTW3
 GLOBAL| Preferred diagonalization lib.                                       SL
 GLOBAL| Run type                                                   ENERGY_FORCE
 GLOBAL| All-to-all communication in single precision                          F
 GLOBAL| FFTs using library dependent lengths                                  F
 GLOBAL| Global print level                                                  LOW
 GLOBAL| MPI I/O enabled                                                       T
 GLOBAL| Total number of message passing processes                             1
 GLOBAL| Number of threads for this process                                   10
 GLOBAL| This output is from process                                           0
 GLOBAL| CPU model name                Intel(R) Xeon(R) CPU E5-2640 v4 @ 2.40GHz
 GLOBAL| CPUID                                                              1002
 GLOBAL| Compiled for CPUID                                                    0
 HINT in environment.F:814 The compiler target flags (generic) used to build
   this binary cannot exploit all extensions of this CPU model (x86_avx2).
   Consider compiler target flags as part of FCFLAGS and CFLAGS (ARCH file).

 MEMORY| system memory details [Kb]
 MEMORY|                        rank 0           min           max       average
 MEMORY| MemTotal            131893316     131893316     131893316     131893316
 MEMORY| MemFree              77122028      77122028      77122028      77122028
 MEMORY| Buffers               4343388       4343388       4343388       4343388
 MEMORY| Cached               42931148      42931148      42931148      42931148
 MEMORY| Slab                  2876980       2876980       2876980       2876980
 MEMORY| SReclaimable          2211032       2211032       2211032       2211032
 MEMORY| MemLikelyFree       126607596     126607596     126607596     126607596


 GENERATE|  Preliminary Number of Bonds generated:                             0
 GENERATE|  Achieved consistency in connectivity generation.

 *******************************************************************************
 *******************************************************************************
 **                                                                           **
 **     #####                         ##              ##                      **
 **    ##   ##            ##          ##              ##                      **
 **   ##     ##                       ##            ######                    **
 **   ##     ##  ##   ##  ##   #####  ##  ##   ####   ##    #####    #####    **
 **   ##     ##  ##   ##  ##  ##      ## ##   ##      ##   ##   ##  ##   ##   **
 **   ##  ## ##  ##   ##  ##  ##      ####     ###    ##   ######   ######    **
 **    ##  ###   ##   ##  ##  ##      ## ##      ##   ##   ##       ##        **
 **     #######   #####   ##   #####  ##  ##  ####    ##    #####   ##        **
 **           ##                                                    ##        **
 **                                                                           **
 **                                                ... make the atoms dance   **
 **                                                                           **
 **            Copyright (C) by CP2K developers group (2000 - 2019)           **
 **                                                                           **
 *******************************************************************************


 TOTAL NUMBERS AND MAXIMUM NUMBERS

  Total number of            - Atomic kinds:                                   2
                             - Atoms:                                        192
                             - Shell sets:                                   384
                             - Shells:                                       704
                             - Primitive Cartesian functions:                960
                             - Cartesian basis functions:                   1536
                             - Spherical basis functions:                   1472

  Maximum angular momentum of- Orbital basis functions:                        2
                             - Local part of the GTH pseudopotential:          2
                             - Non-local part of the GTH pseudopotential:      0


 SCF PARAMETERS         Density guess:                                    ATOMIC
                        --------------------------------------------------------
                        max_scf:                                             300
                        max_scf_history:                                       0
                        max_diis:                                              4
                        --------------------------------------------------------
                        eps_scf:                                        1.00E-07
                        eps_scf_history:                                0.00E+00
                        eps_diis:                                       1.00E-01
                        eps_eigval:                                     1.00E-05
                        --------------------------------------------------------
                        level_shift [a.u.]:                                 0.00
                        --------------------------------------------------------
                        Mixing method:                            BROYDEN_MIXING
                                                charge density mixing in g-space
                        --------------------------------------------------------
                        No outer SCF

 Number of electrons:                                                        512
 Number of occupied orbitals:                                                256
 Number of molecular orbitals:                                               256

 Number of orbital functions:                                               1472
 Number of independent orbital functions:                                   1472

 Extrapolation method: initial_guess


 SCF WAVEFUNCTION OPTIMIZATION

  Step     Update method      Time    Convergence         Total energy    Change
  ------------------------------------------------------------------------------
     1 NoMix/Diag. 0.40E+00    9.5     0.99800666     -1088.8681642263 -1.09E+03
     2 Broy./Diag. 0.40E+00   12.4     0.29998300     -1014.9597621616  7.39E+01
     3 Broy./Diag. 0.40E+00   13.0     0.03362239     -1092.3486296131 -7.74E+01
     4 Broy./Diag. 0.40E+00   13.4     0.03314693     -1094.4677062124 -2.12E+00
     5 Broy./Diag. 0.40E+00   13.7     0.00496300     -1095.4676727508 -1.00E+00
     6 Broy./Diag. 0.40E+00   14.1     0.01148378     -1095.3409390786  1.27E-01
     7 Broy./Diag. 0.40E+00   14.5     0.00656860     -1095.4897317192 -1.49E-01
     8 Broy./Diag. 0.40E+00   15.1     0.00719999     -1095.6191819099 -1.29E-01
     9 Broy./Diag. 0.40E+00   15.4     0.00398734     -1095.6458324495 -2.67E-02
    10 Broy./Diag. 0.40E+00   16.5     0.00235602     -1095.6380981988  7.73E-03
    11 Broy./Diag. 0.40E+00   16.0     0.00186242     -1095.6079558280  3.01E-02
    12 Broy./Diag. 0.40E+00   16.0     0.00093818     -1095.6278070650 -1.99E-02
    13 Broy./Diag. 0.40E+00   16.4     0.00098702     -1095.6519580121 -2.42E-02
    14 Broy./Diag. 0.40E+00   16.2     0.00027898     -1095.6561570566 -4.20E-03
    15 Broy./Diag. 0.40E+00   15.9     0.00020800     -1095.6491434889  7.01E-03
    16 Broy./Diag. 0.40E+00   16.5     0.00012813     -1095.6468197993  2.32E-03
    17 Broy./Diag. 0.40E+00   16.1     0.00005883     -1095.6469942051 -1.74E-04
    18 Broy./Diag. 0.40E+00   15.9     0.00003679     -1095.6466365218  3.58E-04
    19 Broy./Diag. 0.40E+00   16.5     0.00003087     -1095.6471989711 -5.62E-04
    20 Broy./Diag. 0.40E+00   16.0     0.00001959     -1095.6473843311 -1.85E-04
    21 Broy./Diag. 0.40E+00   15.9     0.00002104     -1095.6475960973 -2.12E-04
    22 Broy./Diag. 0.40E+00   16.5     0.00000858     -1095.6475830804  1.30E-05
    23 Broy./Diag. 0.40E+00   16.0     0.00001005     -1095.6474996333  8.34E-05
    24 Broy./Diag. 0.40E+00   15.9     0.00000595     -1095.6474827661  1.69E-05
    25 Broy./Diag. 0.40E+00   16.2     0.00000338     -1095.6474628533  1.99E-05
    26 Broy./Diag. 0.40E+00   16.3     0.00000294     -1095.6474136451  4.92E-05
    27 Broy./Diag. 0.40E+00   15.6     0.00000088     -1095.6474108273  2.82E-06
    28 Broy./Diag. 0.40E+00   15.9     0.00000109     -1095.6474244148 -1.36E-05
    29 Broy./Diag. 0.40E+00   16.2     0.00000063     -1095.6474250428 -6.28E-07
    30 Broy./Diag. 0.40E+00   15.9     0.00000038     -1095.6474225754  2.47E-06
    31 Broy./Diag. 0.40E+00   15.8     0.00000029     -1095.6474272585 -4.68E-06
    32 Broy./Diag. 0.40E+00   16.3     0.00000008     -1095.6474290512 -1.79E-06

  *** SCF run converged in    32 steps ***


  Electronic density on regular grids:       -512.0010250588       -0.0010250588
  Core density on regular grids:              512.0065049326        0.0065049326
  Total charge density on r-space grids:        0.0054798738
  Total charge density g-space grids:           0.0054798738

  Overlap energy of the core charge distribution:               0.00000495844747
  Self energy of the core charge distribution:              -2838.21791979120962
  Core Hamiltonian energy:                                    825.39543188893833
  Hartree energy:                                            1183.38534775322569
  Exchange-correlation energy:                               -266.21029386062634

  Total energy:                                             -1095.64742905122466

 ENERGY| Total FORCE_EVAL ( QS ) energy (a.u.):            -1095.647427677274663


 ATOMIC FORCES in [a.u.]

 # Atom   Kind   Element          X              Y              Z
      1      1      H          -0.17170050    -0.13767450    -0.11317042
      2      1      H          -0.10311269    -0.10131440     0.09791524
      3      1      H          -0.05688212    -0.16610069    -0.11210724
      4      1      H           0.18438485     0.07381273    -0.11124790
      5      1      H           0.12897042     0.04411731     0.11654723
      6      1      H           0.09835237     0.13439904    -0.01486214
      7      1      H           0.07633501     0.10177977    -0.01399601
      8      1      H          -0.06999640     0.15166632    -0.06190917
      9      1      H           0.22987703     0.17892527     0.01028731
     10      1      H          -0.05064873    -0.18806297    -0.03889678
     11      1      H           0.12432228    -0.19422805     0.09428672
     12      1      H           0.09943774    -0.08236713     0.07362673
     13      1      H          -0.15661234    -0.18917408    -0.08120311
     14      1      H          -0.06684658    -0.09859046     0.01841291
     15      1      H           0.15159809     0.08665822    -0.08134930
     16      1      H          -0.10942095    -0.19329574    -0.04865781
     17      1      H          -0.12409521    -0.16219370    -0.02377312
     18      1      H           0.18115815     0.09044773     0.11761677
     19      1      H           0.06900098    -0.07596522    -0.12221774
     20      1      H           0.17259449     0.06885485    -0.07467157
     21      1      H           0.16602268     0.20705976    -0.08111560
     22      1      H          -0.18334682    -0.08848826    -0.03126767
     23      1      H           0.16442100     0.05763037     0.04456908
     24      1      H           0.15329474    -0.01338126    -0.08672636
     25      1      H          -0.07109214    -0.13154753    -0.13772001
     26      1      H          -0.08416990    -0.06755122     0.08569749
     27      1      H           0.15610526    -0.01794845    -0.09279486
     28      1      H           0.00994643    -0.12147737    -0.10441054
     29      1      H          -0.07978712    -0.10256507    -0.06130747
     30      1      H          -0.12562359    -0.01776971    -0.10130615
     31      1      H          -0.11434957     0.09172236     0.07483852
     32      1      H           0.01498952     0.11341066     0.01341538
     33      1      H          -0.18495089    -0.02802456    -0.07759545
     34      1      H          -0.12355779     0.04391274    -0.15590473
     35      1      H          -0.15089613     0.01257334     0.03735063
     36      1      H          -0.14969969     0.01455483    -0.08022457
     37      1      H           0.16092452    -0.10991404     0.12265632
     38      1      H          -0.06541997     0.15452512     0.05746194
     39      1      H          -0.13605286     0.13730725     0.12235742
     40      1      H          -0.24184206     0.09602693    -0.00163318
     41      1      H           0.11821262     0.06257837    -0.01164658
     42      1      H           0.06913392     0.17078613    -0.08934308
     43      1      H          -0.18652398    -0.04159516    -0.12120121
     44      1      H           0.18144680     0.08823543    -0.11320608
     45      1      H           0.13404028    -0.05751698     0.11505524
     46      1      H          -0.13786981     0.03887128     0.10052906
     47      1      H          -0.04088080    -0.18778146    -0.10885497
     48      1      H          -0.05377616     0.19688061    -0.11839258
     49      1      H           0.17729710    -0.07492144     0.11822131
     50      1      H           0.05228802    -0.00508142     0.08972036
     51      1      H           0.02104834     0.05522576    -0.07698957
     52      1      H          -0.00853399    -0.12560610    -0.16676757
     53      1      H          -0.18145408     0.16145880     0.06846525
     54      1      H          -0.10241974     0.16208048    -0.08384534
     55      1      H           0.16930406    -0.19041565     0.10624549
     56      1      H          -0.01816531     0.19694374     0.07410353
     57      1      H           0.21491926     0.05790290     0.12018387
     58      1      H           0.08698479    -0.00845826     0.05957190
     59      1      H           0.22161385    -0.01160371     0.12142825
     60      1      H           0.15593691    -0.13174681     0.00894075
     61      1      H           0.18139057    -0.12833793     0.03156283
     62      1      H          -0.19017890     0.16943942    -0.01246368
     63      1      H          -0.15093966     0.00120442     0.00612834
     64      1      H          -0.20870558     0.13355173     0.06989598
     65      1      H           0.12487167     0.02004615     0.05741900
     66      1      H          -0.09377857    -0.01798169     0.16529612
     67      1      H          -0.15711903     0.14017805     0.05742062
     68      1      H          -0.24355332     0.19407753     0.09152760
     69      1      H           0.16326934    -0.03380591     0.05836758
     70      1      H          -0.09716232     0.03148225     0.01467464
     71      1      H          -0.09167485    -0.16574870    -0.16001660
     72      1      H           0.17077092     0.10507258    -0.11703294
     73      1      H          -0.01111768     0.17242268    -0.03763997
     74      1      H           0.04549157    -0.15859075    -0.12896601
     75      1      H          -0.17197773    -0.15776603     0.06691217
     76      1      H          -0.13112724    -0.09112754    -0.08959769
     77      1      H          -0.16322897    -0.14179095    -0.10025539
     78      1      H           0.06000606     0.21334136    -0.08518398
     79      1      H           0.02882055    -0.09481016    -0.07650355
     80      1      H          -0.14140312    -0.15417105     0.05865684
     81      1      H           0.07333989     0.12187255    -0.01883201
     82      1      H           0.11116750    -0.00558642    -0.02020392
     83      1      H          -0.19286272    -0.11107203     0.05920476
     84      1      H          -0.09053913    -0.17081220     0.16543137
     85      1      H           0.03307103    -0.09765102    -0.07883662
     86      1      H          -0.19907289     0.16499047    -0.08502483
     87      1      H          -0.08167782     0.16868264    -0.08231479
     88      1      H          -0.11198335     0.18839351    -0.09857588
     89      1      H           0.11671125     0.12578292    -0.08084056
     90      1      H          -0.17671138    -0.03673589     0.01290629
     91      1      H           0.07378162     0.20508874     0.11732366
     92      1      H          -0.02754616     0.16004489     0.13023941
     93      1      H          -0.10186500     0.15054247    -0.00895428
     94      1      H          -0.04679327    -0.03355834     0.05802983
     95      1      H           0.05295237     0.16666231     0.07239303
     96      1      H           0.07992003     0.11023979    -0.02513056
     97      1      H          -0.11389363     0.04812931    -0.14625403
     98      1      H          -0.15233379     0.10139605     0.03963603
     99      1      H          -0.11617788     0.08045511     0.02011666
    100      1      H          -0.02619109    -0.10861227     0.05817349
    101      1      H          -0.17872720     0.02326912    -0.02235191
    102      1      H          -0.12465591     0.07372966     0.10061381
    103      1      H          -0.06065153     0.01920888     0.03618343
    104      1      H          -0.22248327    -0.11247100    -0.12079504
    105      1      H           0.15600229     0.19897837     0.09989875
    106      1      H           0.10000391    -0.02520164    -0.02936408
    107      1      H          -0.12261282     0.08385948    -0.19512899
    108      1      H           0.02607470    -0.00929006    -0.09298458
    109      1      H          -0.15132399    -0.03103447    -0.06011338
    110      1      H          -0.08134575     0.06324941     0.09748426
    111      1      H          -0.14470213     0.23346209     0.10130568
    112      1      H           0.14333470    -0.14610999     0.08652055
    113      1      H          -0.15726726    -0.04628439     0.11943326
    114      1      H          -0.05286114    -0.05117621     0.04572615
    115      1      H           0.13957240     0.11879051     0.12410812
    116      1      H           0.08360400    -0.14649994     0.06652539
    117      1      H           0.04458815    -0.19179606     0.00644750
    118      1      H           0.06365890    -0.10281350    -0.08102286
    119      1      H          -0.18304278    -0.17625967    -0.04018399
    120      1      H           0.18267778     0.11635810    -0.03970453
    121      1      H          -0.15305619    -0.01180691     0.09991704
    122      1      H           0.12001578     0.04812956     0.06585848
    123      1      H           0.10233651     0.12959067     0.03646087
    124      1      H           0.18907306     0.16315614     0.03109848
    125      1      H           0.08931239     0.16000275     0.05693132
    126      1      H          -0.05227961    -0.14677440     0.12661500
    127      1      H           0.05809316    -0.08374441     0.12795022
    128      1      H          -0.17748736     0.18295774     0.06179391
    129      2      O           0.33085185     0.13025323     0.01092258
    130      2      O          -0.06731473     0.36678215    -0.33439265
    131      2      O          -0.64644636     0.65032958     0.09749927
    132      2      O           0.30713163     0.71723345    -0.14374152
    133      2      O          -0.58685510     0.46055270     0.04079938
    134      2      O          -0.42567310    -0.11986423     0.42808482
    135      2      O          -0.11308890    -0.43161592     0.27506221
    136      2      O           0.67389812     0.16178701    -0.47552605
    137      2      O           0.14777220    -0.30331961    -0.39820800
    138      2      O           0.73336219     0.70096156    -0.41349372
    139      2      O          -0.76610301     0.33279491     0.06536217
    140      2      O           0.40408190    -0.72455696    -0.25828586
    141      2      O           0.30969003    -0.80780914    -0.41293660
    142      2      O          -0.22099128     0.46658206    -0.23599542
    143      2      O           0.54380806    -0.19097154    -0.06958237
    144      2      O          -0.17843872    -0.56465183     0.46162493
    145      2      O           0.12864505     0.79445026    -0.38123950
    146      2      O          -0.76697758     0.12658392    -0.25631522
    147      2      O           0.39726418    -0.09869026     0.02940800
    148      2      O           0.56061637     0.74559427     0.41966118
    149      2      O           0.78162340    -0.27015608    -0.24947118
    150      2      O          -0.22310323     0.62992713    -0.22547493
    151      2      O          -0.28227342    -0.67468025     0.12803282
    152      2      O           0.56851230     0.15645298    -0.49561965
    153      2      O           0.72304840     0.62145373     0.37642361
    154      2      O           0.32848362     0.72626718    -0.40237046
    155      2      O           0.24979871     0.64646406     0.43014214
    156      2      O          -0.10548013    -0.30128972     0.32601758
    157      2      O          -0.62163742    -0.26766035     0.02582871
    158      2      O          -0.51090100    -0.80690873     0.05943160
    159      2      O          -0.48950848    -0.13125264    -0.28776789
    160      2      O           0.66265388    -0.56947733     0.03561278
    161      2      O           0.24912577    -0.57883634     0.40478510
    162      2      O           0.29633024     0.43147324    -0.00921552
    163      2      O          -0.60995446     0.60363518    -0.13827213
    164      2      O           0.46338842     0.39119831    -0.33259643
    165      2      O          -0.41436651    -0.65791157    -0.32238521
    166      2      O           0.37263430    -0.76207145     0.12676809
    167      2      O           0.47692536     0.54820086    -0.00174620
    168      2      O          -0.10931693     0.13503641     0.04071859
    169      2      O          -0.63595894     0.69321907    -0.41123708
    170      2      O           0.64155581    -0.47585203     0.32059517
    171      2      O          -0.63475877     0.12876471    -0.45771102
    172      2      O           0.34651332     0.71618062    -0.18232561
    173      2      O           0.32643166     0.42937540    -0.12959450
    174      2      O           0.48764583     0.31691937     0.22058889
    175      2      O           0.45285768    -0.18275449     0.33765076
    176      2      O          -0.05633554     0.73902320     0.36754211
    177      2      O          -0.70188961     0.40774673    -0.42036744
    178      2      O          -0.75812188    -0.62296944     0.43307037
    179      2      O           0.40946959     0.53307344    -0.39257126
    180      2      O           0.66272524    -0.48107739     0.45869997
    181      2      O           0.02178546     0.53535219    -0.43950425
    182      2      O           0.79945523    -0.07284385    -0.37064295
    183      2      O          -0.17776916     0.82107458     0.13653101
    184      2      O          -0.48296680     0.55243733     0.27360185
    185      2      O           0.34460037    -0.48105198     0.05771529
    186      2      O           0.72013170     0.40483397     0.25600036
    187      2      O           0.29074035    -0.62577563     0.24535028
    188      2      O           0.13958585    -0.46353172    -0.32733862
    189      2      O           0.42362419     0.58286899     0.40249806
    190      2      O          -0.59865474     0.55243400     0.39273558
    191      2      O           0.77161392    -0.59381411     0.48703767
    192      2      O          -0.73665946     0.21388298    -0.10362628
 SUM OF ATOMIC FORCES           2.88287061     7.43621078    -0.87065198     8.02285539

 -------------------------------------------------------------------------------
 -                                                                             -
 -                                DBCSR STATISTICS                             -
 -                                                                             -
 -------------------------------------------------------------------------------
 COUNTER                                    TOTAL       BLAS       SMM       ACC
 flops     5 x     5 x   256           1306060800       0.0%    100.0%      0.0%
 flops     5 x    13 x   256           1631984640       0.0%    100.0%      0.0%
 flops    13 x     5 x   256           1635279360       0.0%    100.0%      0.0%
 flops    13 x    13 x   256           2364291072       0.0%    100.0%      0.0%
 flops inhomo. stacks                           0       0.0%      0.0%      0.0%
 flops total                         6.937616E+09       0.0%    100.0%      0.0%
 flops max/rank                      6.937616E+09       0.0%    100.0%      0.0%
 matmuls inhomo. stacks                         0       0.0%      0.0%      0.0%
 matmuls total                             227535       0.0%    100.0%      0.0%
 number of processed stacks                  1320       0.0%    100.0%      0.0%
 average stack size                                     0.0     172.4       0.0
 marketing flops                    36.609982E+09
 -------------------------------------------------------------------------------
 # multiplications                             33
 max memory usage/rank              14.004716E+09
 # max total images/rank                        1
 # max 3D layers                                1
 # MPI messages exchanged                       0
 MPI messages size (bytes):
  total size                         0.000000E+00
  min size                           0.000000E+00
  max size                           0.000000E+00
  average size                       0.000000E+00
 MPI breakdown and total messages size (bytes):
             size <=      128                   0                        0
       128 < size <=     8192                   0                        0
      8192 < size <=    32768                   0                        0
     32768 < size <=   131072                   0                        0
    131072 < size <=  4194304                   0                        0
   4194304 < size <= 16777216                   0                        0
  16777216 < size                               0                        0
 -------------------------------------------------------------------------------

 MEMORY| Estimated peak process memory [MiB]                               13357

 -------------------------------------------------------------------------------
 -                                                                             -
 -                           R E F E R E N C E S                               -
 -                                                                             -
 -------------------------------------------------------------------------------
 
 CP2K version 7.1, the CP2K developers group (2019).
 CP2K is freely available from https://www.cp2k.org/ .

 Schuett, Ole; Messmer, Peter; Hutter, Juerg; VandeVondele, Joost. 
 Electronic Structure Calculations on Graphics Processing Units, John
 Wiley & Sons, Ltd, 173-190 (2016). 
 GPU-Accelerated Sparse Matrix-Matrix Multiplication for
 Linear Scaling Density Functional Theory.
 https://dx.doi.org/10.1002/9781118670712.ch8

 Borstnik, U; VandeVondele, J; Weber, V; Hutter, J. 
 PARALLEL COMPUTING, 40 (5-6), 47-58 (2014). 
 Sparse matrix multiplication: The distributed block-compressed sparse
 row library.
 https://dx.doi.org/10.1016/j.parco.2014.03.012

 Hutter, J; Iannuzzi, M; Schiffmann, F; VandeVondele, J. 
 WIREs Comput Mol Sci., 4 (1), 15-25 (2014). 
 CP2K: atomistic simulations of condensed matter systems.
 https://dx.doi.org/10.1002/wcms.1159

 Krack, M. 
 THEORETICAL CHEMISTRY ACCOUNTS, 114 (1-3), 145-152 (2005). 
 Pseudopotentials for H to Kr optimized for gradient-corrected
 exchange-correlation functionals.
 https://dx.doi.org/10.1007/s00214-005-0655-y

 VandeVondele, J; Krack, M; Mohamed, F; Parrinello, M; Chassaing, T;
 Hutter, J. COMPUTER PHYSICS COMMUNICATIONS, 167 (2), 103-128 (2005). 
 QUICKSTEP: Fast and accurate density functional calculations using a
 mixed Gaussian and plane waves approach.
 https://dx.doi.org/10.1016/j.cpc.2004.12.014

 Frigo, M; Johnson, SG. 
 PROCEEDINGS OF THE IEEE, 93 (2), 216-231 (2005). 
 The design and implementation of FFTW3.
 https://dx.doi.org/10.1109/JPROC.2004.840301

 Hartwigsen, C; Goedecker, S; Hutter, J. 
 PHYSICAL REVIEW B, 58 (7), 3641-3662 (1998). 
 Relativistic separable dual-space Gaussian pseudopotentials from H to Rn.
 https://dx.doi.org/10.1103/PhysRevB.58.3641

 Lippert, G; Hutter, J; Parrinello, M. 
 MOLECULAR PHYSICS, 92 (3), 477-487 (1997). 
 A hybrid Gaussian and plane wave density functional scheme.
 https://dx.doi.org/10.1080/002689797170220

 Goedecker, S; Teter, M; Hutter, J. 
 PHYSICAL REVIEW B, 54 (3), 1703-1710 (1996). 
 Separable dual-space Gaussian pseudopotentials.
 https://dx.doi.org/10.1103/PhysRevB.54.1703


 -------------------------------------------------------------------------------
 -                                                                             -
 -                                T I M I N G                                  -
 -                                                                             -
 -------------------------------------------------------------------------------
 SUBROUTINE                       CALLS  ASD         SELF TIME        TOTAL TIME
                                MAXIMUM       AVERAGE  MAXIMUM  AVERAGE  MAXIMUM
 CP2K                                 1  1.0    0.177    0.177  510.244  510.244
 qs_forces                            1  2.0    0.000    0.000  503.668  503.668
 qs_energies                          1  3.0    0.000    0.000  501.190  501.190
 scf_env_do_scf                       1  4.0    0.000    0.000  493.631  493.631
 scf_env_do_scf_inner_loop           32  5.0    0.020    0.020  493.631  493.631
 qs_scf_new_mos                      32  6.0    0.001    0.001  214.302  214.302
 eigensolver                         32  7.0    0.003    0.003  211.211  211.211
 gspace_mixing                       31  6.0    2.665    2.665  141.569  141.569
 cp_fm_syevd                         32  8.0  137.375  137.375  137.485  137.485
 broyden_mixing                      31  7.0  121.789  121.789  121.789  121.789
 pw_transfer                        428  9.9    0.031    0.031   93.892   93.892
 fft_wrap_pw1pw2                    362 10.9    0.004    0.004   92.171   92.171
 fft_wrap_pw1pw2_50                 164 11.2    5.419    5.419   85.360   85.360
 rebuild_ks_matrix                   33  6.9    0.000    0.000   81.671   81.671
 qs_ks_build_kohn_sham_matrix        33  7.9    0.005    0.005   81.671   81.671
 qs_ks_update_qs_env                 32  6.0    0.000    0.000   79.350   79.350
 cp_fm_cholesky_restore              96  8.0   73.598   73.598   73.598   73.598
 qs_rho_update_rho                   33  6.0    0.000    0.000   60.107   60.107
 calculate_rho_elec                  33  7.0   17.624   17.624   60.107   60.107
 fft3d_s                            363 12.8   49.032   49.032   49.038   49.038
 density_rs2pw                       33  8.0    0.002    0.002   42.074   42.074
 sum_up_and_integrate                33  8.9    1.084    1.084   27.995   27.995
 pw_scatter_s                       196 13.1   27.695   27.695   27.695   27.695
 integrate_v_rspace                  33  9.9    4.564    4.564   26.911   26.911
 potential_pw2rs                     33 10.9    0.180    0.180   22.332   22.332
 pw_poisson_solve                    33  8.9   20.007   20.007   21.886   21.886
 qs_vxc_create                       33  8.9    0.001    0.001   10.982   10.982
 xc_vxc_pw_create                    33  9.9    2.852    2.852   10.981   10.981
 -------------------------------------------------------------------------------

 The number of warnings for this run is : 0
 
 -------------------------------------------------------------------------------
  **** **** ******  **  PROGRAM ENDED AT                 2020-05-02 03:05:24.435
 ***** ** ***  *** **   PROGRAM RAN ON                                   gnode45
 **    ****   ******    PROGRAM RAN BY                               mayank.modi
 ***** **    ** ** **   PROGRAM PROCESS ID                                 19373
  **** **  *******  **  PROGRAM STOPPED IN /home/mayank.modi/ab-initio-thermodyn
                                           amics-of-water/mayank/cp2k_energy_cal
                                           culations
