 DBCSR| CPU Multiplication driver                                           XSMM
 DBCSR| Multrec recursion limit                                              512
 DBCSR| Multiplication stack size                                           1000
 DBCSR| Maximum elements for images                                    UNLIMITED
 DBCSR| Multiplicative factor virtual images                                   1
 DBCSR| Use multiplication densification                                       T
 DBCSR| Multiplication size stacks                                             3


  **** **** ******  **  PROGRAM STARTED AT               2020-05-04 03:14:00.194
 ***** ** ***  *** **   PROGRAM STARTED ON                               gnode48
 **    ****   ******    PROGRAM STARTED BY                           mayank.modi
 ***** **    ** ** **   PROGRAM PROCESS ID                                 10348
  **** **  *******  **  PROGRAM STARTED IN /home/mayank.modi/ab-initio-thermodyn
                                           amics-of-water/mayank/cp2k_energy_cal
                                           culations

 CP2K| version string:                                          CP2K version 7.1
 CP2K| source code revision number:                                  git:e635599
 CP2K| cp2kflags: omp libint fftw3 libxc xsmm spglib                            
 CP2K| is freely available from                            https://www.cp2k.org/
 CP2K| Program compiled at                          Mon Dec 23 19:23:12 CET 2019
 CP2K| Program compiled on                                                pc9404
 CP2K| Program compiled for                                Linux-x86-64-gfortran
 CP2K| Data directory path                                        /opt/cp2k/data
 CP2K| Input file name                                                  input.in

 GLOBAL| Force Environment number                                              1
 GLOBAL| Basis set file name                                           BASIS_SET
 GLOBAL| Potential file name                                      GTH_POTENTIALS
 GLOBAL| MM Potential file name                                     MM_POTENTIAL
 GLOBAL| Coordinate file name                                      __STD_INPUT__
 GLOBAL| Method name                                                        CP2K
 GLOBAL| Project name                                                   H2O_bulk
 GLOBAL| Preferred FFT library                                             FFTW3
 GLOBAL| Preferred diagonalization lib.                                       SL
 GLOBAL| Run type                                                   ENERGY_FORCE
 GLOBAL| All-to-all communication in single precision                          F
 GLOBAL| FFTs using library dependent lengths                                  F
 GLOBAL| Global print level                                                  LOW
 GLOBAL| MPI I/O enabled                                                       T
 GLOBAL| Total number of message passing processes                             1
 GLOBAL| Number of threads for this process                                   16
 GLOBAL| This output is from process                                           0
 GLOBAL| CPU model name                Intel(R) Xeon(R) CPU E5-2640 v4 @ 2.40GHz
 GLOBAL| CPUID                                                              1002
 GLOBAL| Compiled for CPUID                                                    0
 HINT in environment.F:814 The compiler target flags (generic) used to build
   this binary cannot exploit all extensions of this CPU model (x86_avx2).
   Consider compiler target flags as part of FCFLAGS and CFLAGS (ARCH file).

 MEMORY| system memory details [Kb]
 MEMORY|                        rank 0           min           max       average
 MEMORY| MemTotal            131893316     131893316     131893316     131893316
 MEMORY| MemFree              76574012      76574012      76574012      76574012
 MEMORY| Buffers               4081748       4081748       4081748       4081748
 MEMORY| Cached               32013372      32013372      32013372      32013372
 MEMORY| Slab                 11252320      11252320      11252320      11252320
 MEMORY| SReclaimable          9873908       9873908       9873908       9873908
 MEMORY| MemLikelyFree       122543040     122543040     122543040     122543040


 GENERATE|  Preliminary Number of Bonds generated:                             0
 GENERATE|  Achieved consistency in connectivity generation.

 *******************************************************************************
 *******************************************************************************
 **                                                                           **
 **     #####                         ##              ##                      **
 **    ##   ##            ##          ##              ##                      **
 **   ##     ##                       ##            ######                    **
 **   ##     ##  ##   ##  ##   #####  ##  ##   ####   ##    #####    #####    **
 **   ##     ##  ##   ##  ##  ##      ## ##   ##      ##   ##   ##  ##   ##   **
 **   ##  ## ##  ##   ##  ##  ##      ####     ###    ##   ######   ######    **
 **    ##  ###   ##   ##  ##  ##      ## ##      ##   ##   ##       ##        **
 **     #######   #####   ##   #####  ##  ##  ####    ##    #####   ##        **
 **           ##                                                    ##        **
 **                                                                           **
 **                                                ... make the atoms dance   **
 **                                                                           **
 **            Copyright (C) by CP2K developers group (2000 - 2019)           **
 **                                                                           **
 *******************************************************************************


 TOTAL NUMBERS AND MAXIMUM NUMBERS

  Total number of            - Atomic kinds:                                   2
                             - Atoms:                                        192
                             - Shell sets:                                   384
                             - Shells:                                       704
                             - Primitive Cartesian functions:                960
                             - Cartesian basis functions:                   1536
                             - Spherical basis functions:                   1472

  Maximum angular momentum of- Orbital basis functions:                        2
                             - Local part of the GTH pseudopotential:          2
                             - Non-local part of the GTH pseudopotential:      0


 SCF PARAMETERS         Density guess:                                    ATOMIC
                        --------------------------------------------------------
                        max_scf:                                             300
                        max_scf_history:                                       0
                        max_diis:                                              4
                        --------------------------------------------------------
                        eps_scf:                                        1.00E-07
                        eps_scf_history:                                0.00E+00
                        eps_diis:                                       1.00E-01
                        eps_eigval:                                     1.00E-05
                        --------------------------------------------------------
                        level_shift [a.u.]:                                 0.00
                        --------------------------------------------------------
                        Mixing method:                            BROYDEN_MIXING
                                                charge density mixing in g-space
                        --------------------------------------------------------
                        No outer SCF

 Number of electrons:                                                        512
 Number of occupied orbitals:                                                256
 Number of molecular orbitals:                                               256

 Number of orbital functions:                                               1472
 Number of independent orbital functions:                                   1472

 Extrapolation method: initial_guess


 SCF WAVEFUNCTION OPTIMIZATION

  Step     Update method      Time    Convergence         Total energy    Change
  ------------------------------------------------------------------------------
     1 NoMix/Diag. 0.40E+00   11.0     0.98971056     -1089.6216406419 -1.09E+03
     2 Broy./Diag. 0.40E+00   16.2     0.30643319     -1014.8877833873  7.47E+01
     3 Broy./Diag. 0.40E+00   17.6     0.03455952     -1093.0900824017 -7.82E+01
     4 Broy./Diag. 0.40E+00   17.8     0.03064702     -1095.1754160519 -2.09E+00
     5 Broy./Diag. 0.40E+00   17.7     0.00493608     -1096.1824613862 -1.01E+00
     6 Broy./Diag. 0.40E+00   19.1     0.01145618     -1096.0678642683  1.15E-01
     7 Broy./Diag. 0.40E+00   19.6     0.00663851     -1096.2173320651 -1.49E-01
     8 Broy./Diag. 0.40E+00   20.5     0.00723654     -1096.3484620794 -1.31E-01
     9 Broy./Diag. 0.40E+00   21.8     0.00405998     -1096.3696797063 -2.12E-02
    10 Broy./Diag. 0.40E+00   23.9     0.00238110     -1096.3611945498  8.49E-03
    11 Broy./Diag. 0.40E+00   22.6     0.00180976     -1096.3322256877  2.90E-02
    12 Broy./Diag. 0.40E+00   22.6     0.00095012     -1096.3521551003 -1.99E-02
    13 Broy./Diag. 0.40E+00   23.6     0.00096743     -1096.3765087271 -2.44E-02
    14 Broy./Diag. 0.40E+00   22.8     0.00027073     -1096.3803689666 -3.86E-03
    15 Broy./Diag. 0.40E+00   23.1     0.00021315     -1096.3731601455  7.21E-03
    16 Broy./Diag. 0.40E+00   22.3     0.00012241     -1096.3714865883  1.67E-03
    17 Broy./Diag. 0.40E+00   22.9     0.00005238     -1096.3715151741 -2.86E-05
    18 Broy./Diag. 0.40E+00   23.5     0.00004608     -1096.3707642870  7.51E-04
    19 Broy./Diag. 0.40E+00   23.7     0.00003004     -1096.3714399285 -6.76E-04
    20 Broy./Diag. 0.40E+00   23.2     0.00002005     -1096.3716877937 -2.48E-04
    21 Broy./Diag. 0.40E+00   23.4     0.00002124     -1096.3719561874 -2.68E-04
    22 Broy./Diag. 0.40E+00   22.9     0.00000846     -1096.3719494980  6.69E-06
    23 Broy./Diag. 0.40E+00   23.3     0.00001024     -1096.3718340550  1.15E-04
    24 Broy./Diag. 0.40E+00   23.0     0.00000656     -1096.3718316939  2.36E-06
    25 Broy./Diag. 0.40E+00   22.9     0.00000452     -1096.3718307237  9.70E-07
    26 Broy./Diag. 0.40E+00   22.9     0.00000347     -1096.3717853082  4.54E-05
    27 Broy./Diag. 0.40E+00   23.3     0.00000086     -1096.3717659917  1.93E-05
    28 Broy./Diag. 0.40E+00   22.5     0.00000094     -1096.3717756649 -9.67E-06
    29 Broy./Diag. 0.40E+00   22.4     0.00000056     -1096.3717799503 -4.29E-06
    30 Broy./Diag. 0.40E+00   22.0     0.00000038     -1096.3717741154  5.83E-06
    31 Broy./Diag. 0.40E+00   23.6     0.00000031     -1096.3717736096  5.06E-07
    32 Broy./Diag. 0.40E+00   23.3     0.00000018     -1096.3717769195 -3.31E-06
    33 Broy./Diag. 0.40E+00   23.1     0.00000016     -1096.3717778181 -8.99E-07
    34 Broy./Diag. 0.40E+00   22.7     0.00000015     -1096.3717778240 -5.87E-09
    35 Broy./Diag. 0.40E+00   22.9     0.00000005     -1096.3717778736 -4.96E-08

  *** SCF run converged in    35 steps ***


  Electronic density on regular grids:       -512.0048447884       -0.0048447884
  Core density on regular grids:              512.0001608331        0.0001608331
  Total charge density on r-space grids:       -0.0046839553
  Total charge density g-space grids:          -0.0046839553

  Overlap energy of the core charge distribution:               0.00000495844747
  Self energy of the core charge distribution:              -2838.21791979120962
  Core Hamiltonian energy:                                    825.86707557599050
  Hartree energy:                                            1182.24005859900853
  Exchange-correlation energy:                               -266.26099721582500

  Total energy:                                             -1096.37177787358837

 ENERGY| Total FORCE_EVAL ( QS ) energy (a.u.):            -1096.371778094447109


 ATOMIC FORCES in [a.u.]

 # Atom   Kind   Element          X              Y              Z
      1      1      H           0.03288579    -0.04873468    -0.03738165
      2      1      H           0.05988239    -0.05132331     0.03451676
      3      1      H          -0.05924142     0.03718440     0.05020234
      4      1      H          -0.04258814    -0.03783194     0.04945309
      5      1      H           0.04911254    -0.02730604     0.07174828
      6      1      H          -0.03883164    -0.07885495     0.00028558
      7      1      H           0.00934769    -0.02991701     0.13365262
      8      1      H          -0.03568355    -0.02876507     0.03580807
      9      1      H           0.00173687     0.00394059    -0.00856272
     10      1      H          -0.05517260    -0.08319849     0.02468720
     11      1      H          -0.02578595     0.04900974    -0.06286626
     12      1      H          -0.06948036    -0.01429218    -0.09304161
     13      1      H          -0.07397795    -0.07072944     0.07241140
     14      1      H          -0.02516748    -0.05066863     0.02081958
     15      1      H          -0.02620516     0.10151343     0.05104067
     16      1      H          -0.02170580    -0.08013385     0.12133677
     17      1      H           0.03469414     0.05127431     0.02607335
     18      1      H           0.04636300    -0.09323952     0.04915078
     19      1      H           0.07756280     0.07035343     0.04382234
     20      1      H           0.05672651    -0.07710645    -0.00310148
     21      1      H           0.04262918     0.04404837     0.07047953
     22      1      H           0.05518022     0.02822090     0.02009088
     23      1      H          -0.07679625    -0.04315488     0.04336177
     24      1      H          -0.06673943    -0.04695858     0.11111538
     25      1      H          -0.07370101    -0.02816889    -0.04317206
     26      1      H          -0.08812128    -0.03249038     0.02312777
     27      1      H           0.00407557    -0.04967194     0.07019856
     28      1      H           0.01972164    -0.05050130    -0.03776366
     29      1      H           0.00554809     0.01239748    -0.00321652
     30      1      H          -0.06634419     0.00454795    -0.00382931
     31      1      H           0.05947012     0.01348524     0.07497143
     32      1      H           0.09065495     0.00368597     0.01100014
     33      1      H          -0.00126464    -0.02440034    -0.00336024
     34      1      H           0.08242250     0.00435682    -0.06026204
     35      1      H          -0.01366623    -0.05044479     0.04008675
     36      1      H           0.01267433    -0.04778009     0.11715510
     37      1      H          -0.01121682     0.08008731     0.07186433
     38      1      H          -0.01529502    -0.07812147     0.09338411
     39      1      H           0.03029291    -0.04167654     0.03813364
     40      1      H          -0.03659785    -0.03478156    -0.00636787
     41      1      H           0.02804556    -0.03801678     0.02626608
     42      1      H           0.04109525    -0.00200955     0.06300245
     43      1      H          -0.04238170    -0.01662384     0.01929229
     44      1      H           0.03660049     0.07831501     0.07156446
     45      1      H           0.01427910     0.06070543    -0.00342901
     46      1      H           0.00640584    -0.00590930     0.03665807
     47      1      H          -0.11094154    -0.07904121     0.07240483
     48      1      H          -0.05043083     0.09036270     0.07117159
     49      1      H          -0.00526292    -0.04302883     0.07011774
     50      1      H          -0.00931659     0.06799779     0.02427684
     51      1      H           0.05716390    -0.09413062    -0.00347708
     52      1      H           0.02062074     0.07180856     0.00178479
     53      1      H          -0.03464296    -0.05888361     0.07130757
     54      1      H           0.02939958    -0.08574251     0.06853387
     55      1      H           0.01966411    -0.07414625    -0.05884618
     56      1      H           0.12085550     0.05450514    -0.07641127
     57      1      H           0.01771691    -0.04374823     0.06994297
     58      1      H          -0.04895615    -0.04394953     0.09583340
     59      1      H          -0.00323952    -0.04431117     0.06927270
     60      1      H          -0.07425489    -0.02860719     0.03248440
     61      1      H           0.01300626     0.06632014     0.05700825
     62      1      H           0.04178778    -0.06614022     0.10594873
     63      1      H           0.07943395    -0.03391780     0.12162149
     64      1      H           0.01284788     0.02374364     0.06953164
     65      1      H          -0.05412680     0.09192915     0.07118070
     66      1      H          -0.03691017    -0.01636756     0.10310967
     67      1      H           0.06724372    -0.03791872    -0.00599114
     68      1      H          -0.01884916    -0.00242932     0.02714914
     69      1      H           0.06632421    -0.00748837     0.07333380
     70      1      H           0.00402029     0.10705395     0.05517646
     71      1      H           0.05957485     0.03994829     0.00113468
     72      1      H          -0.02309575    -0.07818384     0.07202786
     73      1      H           0.01387398     0.06977447     0.02388629
     74      1      H           0.00067975    -0.07236201     0.07700608
     75      1      H          -0.07897062     0.03139986     0.12121959
     76      1      H          -0.03185634     0.02356607     0.05181503
     77      1      H           0.06656142    -0.03950971     0.10016196
     78      1      H           0.05527866     0.03945634     0.06946837
     79      1      H           0.00504357    -0.04508495     0.04624284
     80      1      H           0.07024215    -0.06538008    -0.03269427
     81      1      H           0.01203195    -0.08779592     0.02818631
     82      1      H           0.01020155     0.06842176     0.02803692
     83      1      H          -0.10302648    -0.01735161     0.07371753
     84      1      H          -0.02966992     0.03533983     0.12455010
     85      1      H          -0.01325836     0.08971941     0.07143148
     86      1      H          -0.03521742    -0.07727962     0.11633922
     87      1      H          -0.01220248    -0.00165849     0.06768755
     88      1      H          -0.07467026     0.01836555     0.10279424
     89      1      H          -0.01094731    -0.02041305    -0.00516015
     90      1      H          -0.05608387    -0.01029653     0.05416315
     91      1      H           0.12293349     0.05773040     0.05166549
     92      1      H           0.03948905    -0.01249619     0.01199649
     93      1      H           0.01089151    -0.06781808     0.10719696
     94      1      H           0.01848249    -0.01164518     0.02818611
     95      1      H           0.06645282     0.04518807     0.07487870
     96      1      H           0.09439089     0.00937985     0.00271605
     97      1      H          -0.03951360     0.00942547    -0.04999167
     98      1      H           0.00752884     0.02437636    -0.00310414
     99      1      H           0.01795253    -0.05148815     0.04940793
    100      1      H          -0.01160133    -0.03982047     0.05725765
    101      1      H          -0.05602252     0.00592861     0.05876174
    102      1      H           0.00427253    -0.03415382     0.07862588
    103      1      H          -0.03033345    -0.04304664     0.00894562
    104      1      H          -0.10503393    -0.01820774     0.08121736
    105      1      H           0.01641978     0.05583307    -0.06065001
    106      1      H          -0.05923204     0.05593519    -0.03322696
    107      1      H          -0.01762140    -0.06971103    -0.07795391
    108      1      H          -0.05565454     0.06102245     0.05477784
    109      1      H          -0.00465543    -0.02761837     0.13635868
    110      1      H          -0.05390347     0.02058540     0.06892675
    111      1      H           0.03652999     0.05959831    -0.06014393
    112      1      H           0.06936245    -0.04411053    -0.07819489
    113      1      H           0.00768136    -0.03077627     0.05190461
    114      1      H           0.06855809    -0.03542055     0.04168583
    115      1      H           0.05305645    -0.10910866     0.05398640
    116      1      H           0.08391344     0.01354193    -0.04971747
    117      1      H          -0.03622470     0.05260943     0.03660173
    118      1      H           0.00341814     0.01574969     0.07051185
    119      1      H           0.01255473    -0.09544150     0.07824782
    120      1      H           0.01202026     0.06777835     0.07857395
    121      1      H           0.06113580    -0.02548790     0.08160348
    122      1      H           0.04898357    -0.05173554     0.07715584
    123      1      H           0.02755065    -0.01733939     0.03161181
    124      1      H           0.07140859     0.05742316     0.05731654
    125      1      H          -0.04345558    -0.07990177     0.02366004
    126      1      H           0.03759114     0.04584212     0.07261359
    127      1      H          -0.01703374     0.05353667     0.07380692
    128      1      H          -0.01719590     0.05726235     0.06498905
    129      2      O           0.11593939     0.23852914     0.13606223
    130      2      O           0.19883515     0.16552222     0.26322713
    131      2      O           0.14626983     0.11326703     0.23877302
    132      2      O          -0.20786895     0.13862545     0.05576386
    133      2      O           0.08378294     0.02684670    -0.03505467
    134      2      O          -0.14050627    -0.18767797    -0.16181174
    135      2      O           0.12156368     0.16859038     0.23372870
    136      2      O          -0.23913253    -0.13625733     0.17169473
    137      2      O          -0.09867741     0.06790759    -0.22807899
    138      2      O           0.13391327     0.10564465    -0.18690784
    139      2      O          -0.13752649     0.06722556     0.25431272
    140      2      O          -0.09571539     0.14180727     0.20149170
    141      2      O          -0.01940776     0.17345702    -0.20530091
    142      2      O           0.15149606     0.02337029    -0.22559498
    143      2      O          -0.18844075     0.23240931    -0.14148545
    144      2      O          -0.02072737    -0.06991968     0.33917709
    145      2      O           0.20336568     0.11034627    -0.21851395
    146      2      O          -0.17404553    -0.04765603     0.20085971
    147      2      O           0.23051533    -0.13554855    -0.19823582
    148      2      O           0.10517123     0.16581419    -0.28140540
    149      2      O           0.16861056    -0.02478557     0.16784189
    150      2      O          -0.16467219    -0.10706450     0.22721535
    151      2      O          -0.22072671    -0.12374300     0.14943808
    152      2      O           0.10290854    -0.14034441     0.30051647
    153      2      O          -0.04161431     0.04827454     0.09882207
    154      2      O           0.16983014     0.11855872    -0.16628341
    155      2      O          -0.13999527     0.11119592    -0.11280151
    156      2      O           0.03982127     0.16530110    -0.28376103
    157      2      O           0.06993128    -0.02319650    -0.20021693
    158      2      O          -0.14097176     0.17544587    -0.11673505
    159      2      O           0.07246753    -0.17142839    -0.06127000
    160      2      O          -0.02589144    -0.06523010     0.13122482
    161      2      O          -0.16635348    -0.18568318     0.12055564
    162      2      O           0.22022411     0.10157694     0.24005533
    163      2      O          -0.20936199    -0.12911676     0.11200485
    164      2      O           0.13806790     0.18493197     0.30283088
    165      2      O           0.10105390     0.10954563     0.21379227
    166      2      O          -0.05755274     0.06044336    -0.19385498
    167      2      O           0.15942846    -0.02586659    -0.28297332
    168      2      O           0.13486051     0.24605901    -0.01797555
    169      2      O           0.15987471     0.09707874    -0.13796931
    170      2      O          -0.06354017    -0.20508722     0.01704325
    171      2      O           0.20421579    -0.17955946    -0.09489835
    172      2      O          -0.08085737    -0.23465201    -0.25008808
    173      2      O           0.01073432     0.00504836     0.11821803
    174      2      O           0.11324157    -0.18643451     0.21427652
    175      2      O          -0.02845688     0.24049564     0.24401290
    176      2      O          -0.04215029    -0.07381240     0.27227508
    177      2      O          -0.07501038     0.22800096    -0.20139718
    178      2      O           0.19900222    -0.10196253    -0.01060106
    179      2      O          -0.17300244    -0.18468038    -0.11589417
    180      2      O          -0.09889380    -0.21301424    -0.23255139
    181      2      O          -0.22157364    -0.06332202     0.20927025
    182      2      O           0.06389036    -0.10853455     0.32582555
    183      2      O          -0.05694949     0.00319058     0.12341664
    184      2      O           0.11745140    -0.00972972    -0.09713234
    185      2      O           0.15960439    -0.21746129    -0.11797011
    186      2      O           0.17189657     0.20607279     0.28938538
    187      2      O          -0.15706301    -0.11781147     0.20509971
    188      2      O           0.13315984     0.21148094     0.27229628
    189      2      O          -0.18452802    -0.10801597     0.30032047
    190      2      O           0.12132548    -0.23318513     0.10879665
    191      2      O          -0.14827966     0.09449694     0.21683711
    192      2      O          -0.18233655     0.08568399     0.06595522
 SUM OF ATOMIC FORCES           0.62480577    -0.48025702     7.71674663     7.75688131

 -------------------------------------------------------------------------------
 -                                                                             -
 -                                DBCSR STATISTICS                             -
 -                                                                             -
 -------------------------------------------------------------------------------
 COUNTER                                    TOTAL       BLAS       SMM       ACC
 flops     5 x     5 x   256           1424793600       0.0%    100.0%      0.0%
 flops     5 x    13 x   256           1780346880       0.0%    100.0%      0.0%
 flops    13 x     5 x   256           1783941120       0.0%    100.0%      0.0%
 flops    13 x    13 x   256           2579226624       0.0%    100.0%      0.0%
 flops inhomo. stacks                           0       0.0%      0.0%      0.0%
 flops total                         7.568308E+09       0.0%    100.0%      0.0%
 flops max/rank                      7.568308E+09       0.0%    100.0%      0.0%
 matmuls inhomo. stacks                         0       0.0%      0.0%      0.0%
 matmuls total                             248220       0.0%    100.0%      0.0%
 number of processed stacks                  2304       0.0%    100.0%      0.0%
 average stack size                                     0.0     107.7       0.0
 marketing flops                    39.938163E+09
 -------------------------------------------------------------------------------
 # multiplications                             36
 max memory usage/rank              19.339469E+09
 # max total images/rank                        1
 # max 3D layers                                1
 # MPI messages exchanged                       0
 MPI messages size (bytes):
  total size                         0.000000E+00
  min size                           0.000000E+00
  max size                           0.000000E+00
  average size                       0.000000E+00
 MPI breakdown and total messages size (bytes):
             size <=      128                   0                        0
       128 < size <=     8192                   0                        0
      8192 < size <=    32768                   0                        0
     32768 < size <=   131072                   0                        0
    131072 < size <=  4194304                   0                        0
   4194304 < size <= 16777216                   0                        0
  16777216 < size                               0                        0
 -------------------------------------------------------------------------------

 MEMORY| Estimated peak process memory [MiB]                               18446

 -------------------------------------------------------------------------------
 -                                                                             -
 -                           R E F E R E N C E S                               -
 -                                                                             -
 -------------------------------------------------------------------------------
 
 CP2K version 7.1, the CP2K developers group (2019).
 CP2K is freely available from https://www.cp2k.org/ .

 Schuett, Ole; Messmer, Peter; Hutter, Juerg; VandeVondele, Joost. 
 Electronic Structure Calculations on Graphics Processing Units, John
 Wiley & Sons, Ltd, 173-190 (2016). 
 GPU-Accelerated Sparse Matrix-Matrix Multiplication for
 Linear Scaling Density Functional Theory.
 https://dx.doi.org/10.1002/9781118670712.ch8

 Borstnik, U; VandeVondele, J; Weber, V; Hutter, J. 
 PARALLEL COMPUTING, 40 (5-6), 47-58 (2014). 
 Sparse matrix multiplication: The distributed block-compressed sparse
 row library.
 https://dx.doi.org/10.1016/j.parco.2014.03.012

 Hutter, J; Iannuzzi, M; Schiffmann, F; VandeVondele, J. 
 WIREs Comput Mol Sci., 4 (1), 15-25 (2014). 
 CP2K: atomistic simulations of condensed matter systems.
 https://dx.doi.org/10.1002/wcms.1159

 Krack, M. 
 THEORETICAL CHEMISTRY ACCOUNTS, 114 (1-3), 145-152 (2005). 
 Pseudopotentials for H to Kr optimized for gradient-corrected
 exchange-correlation functionals.
 https://dx.doi.org/10.1007/s00214-005-0655-y

 VandeVondele, J; Krack, M; Mohamed, F; Parrinello, M; Chassaing, T;
 Hutter, J. COMPUTER PHYSICS COMMUNICATIONS, 167 (2), 103-128 (2005). 
 QUICKSTEP: Fast and accurate density functional calculations using a
 mixed Gaussian and plane waves approach.
 https://dx.doi.org/10.1016/j.cpc.2004.12.014

 Frigo, M; Johnson, SG. 
 PROCEEDINGS OF THE IEEE, 93 (2), 216-231 (2005). 
 The design and implementation of FFTW3.
 https://dx.doi.org/10.1109/JPROC.2004.840301

 Hartwigsen, C; Goedecker, S; Hutter, J. 
 PHYSICAL REVIEW B, 58 (7), 3641-3662 (1998). 
 Relativistic separable dual-space Gaussian pseudopotentials from H to Rn.
 https://dx.doi.org/10.1103/PhysRevB.58.3641

 Lippert, G; Hutter, J; Parrinello, M. 
 MOLECULAR PHYSICS, 92 (3), 477-487 (1997). 
 A hybrid Gaussian and plane wave density functional scheme.
 https://dx.doi.org/10.1080/002689797170220

 Goedecker, S; Teter, M; Hutter, J. 
 PHYSICAL REVIEW B, 54 (3), 1703-1710 (1996). 
 Separable dual-space Gaussian pseudopotentials.
 https://dx.doi.org/10.1103/PhysRevB.54.1703


 -------------------------------------------------------------------------------
 -                                                                             -
 -                                T I M I N G                                  -
 -                                                                             -
 -------------------------------------------------------------------------------
 SUBROUTINE                       CALLS  ASD         SELF TIME        TOTAL TIME
                                MAXIMUM       AVERAGE  MAXIMUM  AVERAGE  MAXIMUM
 CP2K                                 1  1.0    0.428    0.428  788.618  788.618
 qs_forces                            1  2.0    0.000    0.000  779.994  779.994
 qs_energies                          1  3.0    0.000    0.000  774.850  774.850
 scf_env_do_scf                       1  4.0    0.000    0.000  763.801  763.801
 scf_env_do_scf_inner_loop           35  5.0    0.018    0.018  763.801  763.801
 gspace_mixing                       34  6.0    3.747    3.747  260.218  260.218
 qs_scf_new_mos                      35  6.0    0.001    0.001  233.987  233.987
 eigensolver                         35  7.0    0.004    0.004  230.026  230.026
 broyden_mixing                      34  7.0  224.533  224.533  224.534  224.534
 pw_transfer                        467  9.9    0.040    0.040  182.520  182.520
 fft_wrap_pw1pw2                    395 10.9    0.006    0.006  177.014  177.014
 fft_wrap_pw1pw2_60                 179 11.2   12.380   12.380  162.888  162.888
 rebuild_ks_matrix                   36  6.9    0.000    0.000  151.349  151.349
 qs_ks_build_kohn_sham_matrix        36  7.9    0.009    0.009  151.348  151.348
 cp_fm_syevd                         35  8.0  149.104  149.104  149.287  149.287
 qs_ks_update_qs_env                 35  6.0    0.000    0.000  146.996  146.996
 qs_rho_update_rho                   36  6.0    0.000    0.000  125.742  125.742
 calculate_rho_elec                  36  7.0   41.392   41.392  125.742  125.742
 fft3d_s                            396 12.9   92.938   92.938   92.945   92.945
 density_rs2pw                       36  8.0    0.004    0.004   83.036   83.036
 cp_fm_cholesky_restore             105  8.0   80.616   80.616   80.616   80.616
 sum_up_and_integrate                36  8.9    1.819    1.819   51.985   51.985
 integrate_v_rspace                  36  9.9    4.252    4.252   50.166   50.166
 pw_scatter_s                       214 13.1   46.148   46.148   46.148   46.148
 potential_pw2rs                     36 10.9    0.256    0.256   45.775   45.775
 pw_poisson_solve                    36  8.9   30.975   30.975   36.712   36.712
 pw_gather_s                        181 12.6   24.253   24.253   24.253   24.253
 qs_vxc_create                       36  8.9    0.001    0.001   22.018   22.018
 xc_vxc_pw_create                    36  9.9    3.954    3.954   22.017   22.017
 xc_rho_set_and_dset_create          36 10.9    0.001    0.001   18.063   18.063
 pw_copy                            288 11.3   16.316   16.316   16.316   16.316
 -------------------------------------------------------------------------------

 The number of warnings for this run is : 0
 
 -------------------------------------------------------------------------------
  **** **** ******  **  PROGRAM ENDED AT                 2020-05-04 03:27:08.958
 ***** ** ***  *** **   PROGRAM RAN ON                                   gnode48
 **    ****   ******    PROGRAM RAN BY                               mayank.modi
 ***** **    ** ** **   PROGRAM PROCESS ID                                 10348
  **** **  *******  **  PROGRAM STOPPED IN /home/mayank.modi/ab-initio-thermodyn
                                           amics-of-water/mayank/cp2k_energy_cal
                                           culations
