LAMMPS Description

         768  atoms
           2  atom types
         #46.93703259338623 44.1214358830923 45.18259257711876
         #0 4.172 xlo xhi
         #0 3.921 ylo yhi
         #0 4.016 zlo zhi
	 0 46.9370 xlo xhi
	 0 44.1214 ylo yhi
	 0 45.1825 zlo zhi

Masses

  2 15.9994
  1  1.0080

Atoms

1 2 1.37 1.8 3.37
2 1 0.46 1.45 3.4
3 1 1.77 1.46 4.15
4 2 5.3 4.59 1.08
5 1 4.4 4.86 1.07
6 1 5.26 3.61 1.07
7 2 6.48 5.45 3.37
8 1 7.4 5.14 3.34
9 1 6.09 5.12 2.58
10 2 5.23 4.46 5.64
11 1 5.71 4.81 6.37
12 1 5.69 4.8 4.86
13 2 2.55 0.88 5.65
14 1 3.47 1.17 5.65
15 1 2.6 -0.06 5.64
16 2 2.59 5.55 5.7
17 1 3.49 5.19 5.67
18 1 2.18 5.22 4.91
19 2 5.3 1.78 1.11
20 1 4.38 1.44 1.08
21 1 5.69 1.46 0.33
22 2 5.25 1.71 5.6
23 1 5.27 2.69 5.63
24 1 5.68 1.44 6.38
25 2 1.31 4.56 7.95
26 1 1.77 4.87 7.14
27 1 1.34 3.62 7.89
28 2 1.34 4.62 3.41
29 1 1.8 4.89 2.61
30 1 1.35 3.66 3.39
31 2 2.73 5.46 1.1
32 1 2.66 6.4 1.08
33 1 2.24 5.16 0.31
34 2 2.62 0.79 1.08
35 1 2.16 1.15 0.33
36 1 2.15 1.14 1.85
37 2 6.59 0.78 3.41
38 1 6.12 1.12 2.64
39 1 6.12 1.13 4.15
40 2 6.51 0.88 7.78
41 1 6.08 1.14 8.6
42 1 6.52 -0.07 7.82
43 2 6.55 5.48 7.77
44 1 7.44 5.16 7.83
45 1 6.13 5.15 8.58
46 2 1.39 1.9 7.87
47 1 0.47 1.54 7.86
48 1 1.79 1.53 7.12
49 2 9.13 1.83 3.42
50 1 8.25 1.47 3.39
51 1 9.56 1.48 2.64
52 2 13 4.49 1.08
53 1 13.48 4.82 0.33
54 1 13.49 4.82 1.84
55 2 14.41 5.39 3.3
56 1 14.37 6.35 3.34
57 1 13.94 5.1 4.08
58 2 13.06 4.46 5.53
59 1 13.5 4.8 6.33
60 1 12.19 4.81 5.57
61 2 10.47 0.81 5.63
62 1 10 1.15 4.87
63 1 10.01 1.17 6.39
64 2 10.52 5.43 5.63
65 1 10.05 5.15 4.85
66 1 10.47 6.38 5.62
67 2 13.03 1.75 1.11
68 1 13.06 2.71 1.13
69 1 13.48 1.48 1.89
70 2 13.06 1.71 5.61
71 1 12.14 1.44 5.62
72 1 13.03 2.67 5.6
73 2 9.17 4.63 7.9
74 1 9.17 3.68 7.88
75 1 9.62 4.9 7.1
76 2 9.14 4.62 3.41
77 1 9.13 3.66 3.39
78 1 9.61 4.88 2.62
79 2 10.5 5.45 1.14
80 1 10.06 5.12 0.33
81 1 11.38 5.11 1.08
82 2 10.43 0.91 1.16
83 1 10.48 -0.05 1.15
84 1 11.34 1.19 1.16
85 2 14.29 0.81 3.3
86 1 15.19 1.15 3.34
87 1 13.87 1.14 4.08
88 2 14.32 0.78 7.92
89 1 15.2 1.14 7.88
90 1 13.89 1.12 7.13
91 2 14.44 5.39 7.83
92 1 14.38 6.33 7.85
93 1 13.98 5.1 8.62
94 2 9.17 1.9 7.85
95 1 9.58 1.55 8.62
96 1 8.27 1.53 7.86
97 2 16.96 1.74 3.33
98 1 16.97 2.7 3.36
99 1 17.42 1.47 4.12
100 2 20.87 4.43 1.1
101 1 21.3 4.8 1.89
102 1 20 4.79 1.12
103 2 22.11 5.43 3.38
104 1 23.04 5.15 3.36
105 1 22.15 6.37 3.37
106 2 20.88 4.59 5.62
107 1 21.33 4.86 4.84
108 1 20.91 3.62 5.6
109 2 18.24 0.94 5.63
110 1 19.16 1.2 5.64
111 1 18.26 -0.02 5.61
112 2 18.27 5.51 5.56
113 1 17.87 5.17 6.35
114 1 19.18 5.16 5.59
115 2 20.88 1.69 1.02
116 1 21.31 1.41 1.84
117 1 20.87 2.64 1.08
118 2 20.86 1.8 5.65
119 1 21.35 1.46 6.4
120 1 21.32 1.45 4.89
121 2 17.07 4.62 7.82
122 1 17.02 3.65 7.84
123 1 16.16 4.9 7.84
124 2 17 4.51 3.32
125 1 16.11 4.84 3.36
126 1 17.42 4.86 4.11
127 2 18.36 5.4 1.05
128 1 18.33 6.35 1.08
129 1 17.89 5.11 1.84
130 2 18.27 0.85 1.03
131 1 19.17 1.17 1.08
132 1 17.86 1.18 1.84
133 2 22.07 0.88 3.38
134 1 22.99 1.16 3.39
135 1 22.12 -0.08 3.37
136 2 22.19 0.83 7.86
137 1 23.06 1.19 7.89
138 1 21.76 1.17 8.66
139 2 22.23 5.48 7.87
140 1 21.77 5.12 8.62
141 1 21.76 5.15 7.11
142 2 16.87 1.85 7.87
143 1 17.35 1.52 8.64
144 1 17.35 1.53 7.13
145 2 24.72 1.81 3.41
146 1 25.2 1.48 2.64
147 1 25.22 1.49 4.16
148 2 28.64 4.53 1.13
149 1 29.11 4.81 0.32
150 1 28.68 3.59 1.11
151 2 30.05 5.41 3.4
152 1 29.61 5.07 2.59
153 1 30.92 5.08 3.35
154 2 28.73 4.51 5.68
155 1 29.16 4.82 4.88
156 1 27.83 4.84 5.61
157 2 26.08 0.88 5.62
158 1 26.96 1.19 5.67
159 1 25.65 1.23 6.42
160 2 26.11 5.39 5.6
161 1 25.68 5.13 4.82
162 1 26.08 6.37 5.59
163 2 28.68 1.84 1.11
164 1 29.13 1.47 1.85
165 1 29.16 1.48 0.34
166 2 28.62 1.69 5.71
167 1 28.66 2.65 5.67
168 1 29.07 1.41 4.91
169 2 24.84 4.51 7.92
170 1 23.94 4.83 7.89
171 1 25.25 4.83 7.12
172 2 24.82 4.59 3.36
173 1 24.83 3.63 3.33
174 1 25.27 4.85 2.56
175 2 26.09 5.53 1.11
176 1 25.66 5.19 0.32
177 1 26.97 5.16 1.08
178 2 25.99 0.92 1.08
179 1 26.03 -0.02 1.09
180 1 26.92 1.21 1.09
181 2 29.89 0.84 3.35
182 1 29.96 -0.09 3.35
183 1 30.82 1.15 3.36
184 2 29.94 0.84 7.9
185 1 29.52 1.16 7.12
186 1 30.84 1.2 7.85
187 2 30.02 5.36 7.89
188 1 29.56 5.11 7.11
189 1 29.98 6.35 7.88
190 2 24.74 1.81 7.84
191 1 24.78 2.74 7.88
192 1 25.22 1.51 8.64
193 2 32.54 1.88 3.36
194 1 33.03 1.55 4.12
195 1 33 1.52 2.6
196 2 36.61 4.45 1.13
197 1 37.01 4.81 0.35
198 1 35.71 4.79 1.12
199 2 37.95 5.42 3.39
200 1 37.47 5.1 4.14
201 1 37.46 5.09 2.63
202 2 36.56 4.55 5.61
203 1 37.02 4.82 6.39
204 1 36.55 3.58 5.66
205 2 33.89 0.96 5.59
206 1 33.93 -0.02 5.58
207 1 34.79 1.23 5.62
208 2 33.91 5.46 5.63
209 1 34.84 5.18 5.64
210 1 33.94 6.4 5.63
211 2 36.52 1.66 1.21
212 1 36.54 2.62 1.18
213 1 36.97 1.39 0.41
214 2 36.43 1.76 5.67
215 1 36.91 1.43 4.9
216 1 36.91 1.42 6.42
217 2 32.64 4.57 7.86
218 1 31.73 4.88 7.81
219 1 33.05 4.91 7.07
220 2 32.57 4.55 3.32
221 1 33.05 4.84 4.13
222 1 32.59 3.62 3.37
223 2 33.98 5.48 1.15
224 1 33.49 5.14 1.88
225 1 33.52 5.15 0.37
226 2 33.82 0.87 1.12
227 1 33.86 -0.08 1.1
228 1 34.75 1.15 1.13
229 2 37.76 0.79 3.41
230 1 37.35 1.12 2.63
231 1 38.67 1.13 3.38
232 2 37.74 0.83 7.91
233 1 37.8 -0.09 7.9
234 1 38.67 1.15 7.88
235 2 37.92 5.39 7.81
236 1 37.89 6.34 7.85
237 1 37.44 5.1 8.6
238 2 32.54 1.8 7.89
239 1 32.57 2.75 7.86
240 1 33.02 1.51 7.11
241 2 40.37 1.72 3.29
242 1 40.42 2.67 3.31
243 1 40.84 1.44 4.09
244 2 44.36 4.54 1.17
245 1 44.38 3.59 1.13
246 1 44.81 4.83 0.37
247 2 45.61 5.43 3.43
248 1 45.21 5.1 2.64
249 1 46.53 5.13 3.39
250 2 44.26 4.46 5.65
251 1 44.74 4.79 4.87
252 1 44.75 4.79 6.39
253 2 41.72 0.81 5.61
254 1 42.63 1.15 5.65
255 1 41.3 1.16 6.39
256 2 41.71 5.51 5.66
257 1 42.6 5.16 5.65
258 1 41.31 5.18 4.86
259 2 44.41 1.8 1.06
260 1 43.5 1.49 1.08
261 1 44.8 1.46 1.85
262 2 44.31 1.7 5.63
263 1 44.76 1.44 6.42
264 1 44.33 2.67 5.65
265 2 40.48 4.49 7.96
266 1 40.9 4.83 7.15
267 1 39.6 4.82 7.91
268 2 40.53 4.52 3.36
269 1 39.63 4.84 3.33
270 1 40.93 4.88 2.57
271 2 41.75 5.46 1.11
272 1 42.68 5.17 1.12
273 1 41.8 6.4 1.1
274 2 41.73 0.94 1.03
275 1 41.28 1.21 1.81
276 1 41.74 -0.03 1.07
277 2 45.64 0.85 3.36
278 1 45.63 -0.11 3.38
279 1 45.19 1.11 4.16
280 2 45.6 0.9 7.84
281 1 45.63 -0.06 7.87
282 1 45.16 1.16 8.64
283 2 45.63 5.44 7.78
284 1 45.21 5.11 8.58
285 1 46.52 5.12 7.83
286 2 40.43 1.73 7.78
287 1 40.44 2.67 7.83
288 1 40.88 1.44 8.59
289 2 1.27 9.19 3.32
290 1 1.74 8.85 4.09
291 1 1.73 8.84 2.58
292 2 5.2 11.79 1.07
293 1 5.67 12.14 0.32
294 1 5.68 12.13 1.84
295 2 6.55 12.8 3.34
296 1 7.46 12.48 3.37
297 1 6.15 12.47 4.14
298 2 5.27 11.94 5.61
299 1 5.71 12.21 6.4
300 1 5.28 10.96 5.66
301 2 2.55 8.26 5.62
302 1 3.48 8.54 5.63
303 1 2.59 7.31 5.63
304 2 2.61 12.81 5.58
305 1 3.53 12.53 5.61
306 1 2.64 13.76 5.59
307 2 5.19 9.09 1.17
308 1 5.21 10.02 1.13
309 1 5.65 8.8 0.36
310 2 5.19 9.15 5.65
311 1 5.67 8.8 4.89
312 1 5.65 8.82 6.41
313 2 1.37 11.92 7.94
314 1 1.82 12.22 7.12
315 1 1.37 10.99 7.89
316 2 1.32 11.92 3.36
317 1 1.79 12.2 4.14
318 1 1.34 10.96 3.39
319 2 2.6 12.83 1.07
320 1 2.19 12.5 1.87
321 1 3.49 12.48 1.09
322 2 2.56 8.15 1.16
323 1 3.46 8.49 1.14
324 1 2.15 8.5 0.37
325 2 6.58 8.2 3.46
326 1 6.12 8.5 2.66
327 1 6.55 7.26 3.4
328 2 6.51 8.26 7.87
329 1 6.07 8.5 8.67
330 1 6.52 7.29 7.88
331 2 6.47 12.78 7.85
332 1 6.5 13.71 7.85
333 1 7.41 12.5 7.85
334 2 1.28 9.23 7.86
335 1 1.74 8.87 7.12
336 1 1.76 8.88 8.63
337 2 9.19 9.08 3.33
338 1 9.16 10.04 3.33
339 1 8.28 8.81 3.35
340 2 13.06 11.78 1.15
341 1 13.48 12.14 0.36
342 1 12.19 12.14 1.13
343 2 14.4 12.78 3.4
344 1 15.27 12.47 3.36
345 1 13.97 12.42 2.59
346 2 12.97 11.86 5.58
347 1 13.48 12.16 4.84
348 1 13.46 12.18 6.36
349 2 10.37 8.16 5.66
350 1 11.28 8.51 5.62
351 1 9.97 8.49 4.87
352 2 10.49 12.89 5.52
353 1 11.36 12.54 5.55
354 1 10.05 12.54 6.32
355 2 13.12 9.07 1.09
356 1 13.08 10.02 1.09
357 1 12.2 8.79 1.09
358 2 13.07 9.13 5.53
359 1 13.5 8.84 6.34
360 1 13.08 10.08 5.59
361 2 9.18 11.92 7.8
362 1 9.64 12.21 8.61
363 1 9.17 10.98 7.85
364 2 9.17 11.87 3.35
365 1 9.64 12.22 4.1
366 1 9.63 12.21 2.59
367 2 10.49 12.81 1.18
368 1 10.47 13.75 1.13
369 1 10.05 12.52 0.36
370 2 10.5 8.26 1.05
371 1 10.49 7.29 1.08
372 1 10.03 8.53 1.83
373 2 14.36 8.14 3.37
374 1 13.9 8.51 4.11
375 1 13.9 8.49 2.6
376 2 14.28 8.13 7.79
377 1 15.19 8.48 7.82
378 1 13.88 8.46 8.56
379 2 14.34 12.75 7.91
380 1 15.25 12.49 7.89
381 1 14.36 13.72 7.89
382 2 9.15 9.2 7.91
383 1 8.25 8.85 7.89
384 1 9.55 8.85 7.13
385 2 17.05 9.15 3.31
386 1 16.12 8.81 3.35
387 1 17.44 8.84 4.09
388 2 20.88 11.91 1.09
389 1 20.87 10.93 1.11
390 1 21.33 12.16 1.86
391 2 22.11 12.7 3.31
392 1 23.04 12.44 3.33
393 1 22.13 13.65 3.33
394 2 20.83 11.89 5.61
395 1 21.34 12.21 6.36
396 1 21.31 12.19 4.85
397 2 18.21 8.3 5.59
398 1 19.13 8.58 5.59
399 1 18.25 7.34 5.59
400 2 18.26 12.83 5.64
401 1 17.85 12.5 4.85
402 1 19.17 12.49 5.6
403 2 20.85 9.1 1.11
404 1 19.97 8.76 1.07
405 1 21.27 8.78 0.3
406 2 20.87 9.09 5.63
407 1 21.32 8.82 4.85
408 1 20.89 10.06 5.6
409 2 16.89 11.94 7.86
410 1 17.39 12.26 8.62
411 1 17.39 12.24 7.11
412 2 16.93 11.99 3.45
413 1 17.4 12.27 2.66
414 1 16.96 11.03 3.42
415 2 18.28 12.78 1.09
416 1 19.2 12.51 1.11
417 1 18.32 13.74 1.1
418 2 18.33 8.14 1.13
419 1 17.86 8.49 1.87
420 1 17.86 8.51 0.36
421 2 22.16 8.18 3.41
422 1 21.73 8.5 2.6
423 1 23.03 8.53 3.36
424 2 22.22 8.2 7.94
425 1 22.2 7.27 7.9
426 1 21.77 8.5 7.13
427 2 22.27 12.76 7.83
428 1 22.22 13.71 7.87
429 1 21.8 12.47 8.63
430 2 16.99 9.12 7.92
431 1 16.98 10.08 7.88
432 1 17.42 8.85 7.12
433 2 24.69 9.19 3.34
434 1 25.16 8.87 4.11
435 1 25.19 8.84 2.59
436 2 28.71 11.86 1.18
437 1 29.16 12.15 0.35
438 1 28.72 10.92 1.13
439 2 30.04 12.79 3.43
440 1 29.63 12.45 2.63
441 1 30.94 12.48 3.39
442 2 28.78 11.88 5.64
443 1 27.87 12.21 5.59
444 1 29.19 12.2 4.85
445 2 26.03 8.24 5.6
446 1 25.63 8.58 6.39
447 1 26.94 8.55 5.63
448 2 26.11 12.76 5.56
449 1 25.67 12.49 6.35
450 1 26.11 13.72 5.59
451 2 28.73 9.15 1.15
452 1 27.83 8.81 1.12
453 1 29.14 8.83 0.35
454 2 28.65 9.07 5.67
455 1 28.69 10.03 5.64
456 1 29.12 8.79 4.88
457 2 24.84 12.02 7.9
458 1 24.81 11.04 7.89
459 1 23.94 12.28 7.89
460 2 24.83 11.96 3.34
461 1 25.27 12.21 4.13
462 1 24.82 10.99 3.37
463 2 26.06 12.88 1.04
464 1 25.65 12.56 1.83
465 1 26.96 12.52 1.07
466 2 26.15 8.22 1.12
467 1 26.13 7.29 1.08
468 1 25.68 8.51 0.32
469 2 30.05 8.24 3.39
470 1 30.04 7.27 3.35
471 1 29.59 8.51 2.61
472 2 29.93 8.21 7.97
473 1 30.83 8.54 7.92
474 1 29.52 8.52 7.17
475 2 30.08 12.79 7.9
476 1 29.59 12.46 8.65
477 1 29.6 12.47 7.14
478 2 24.82 9.24 7.84
479 1 25.24 8.88 8.61
480 1 23.93 8.87 7.86
481 2 32.6 9.22 3.37
482 1 31.72 8.86 3.38
483 1 33.02 8.86 4.15
484 2 36.55 11.88 1.09
485 1 35.63 12.15 1.11
486 1 36.51 10.92 1.08
487 2 37.83 12.79 3.36
488 1 37.4 12.44 2.56
489 1 38.72 12.48 3.31
490 2 36.5 11.88 5.65
491 1 36.99 12.2 4.86
492 1 36.98 12.2 6.37
493 2 33.85 8.15 5.6
494 1 34.75 8.49 5.62
495 1 33.44 8.5 6.37
496 2 33.87 12.82 5.65
497 1 34.8 12.54 5.65
498 1 33.91 13.76 5.64
499 2 36.57 9.13 1.03
500 1 36.98 8.8 1.83
501 1 35.66 8.81 1.08
502 2 36.48 9.12 5.59
503 1 36.95 8.82 6.39
504 1 36.52 10.07 5.63
505 2 32.64 11.87 7.95
506 1 31.75 12.18 7.91
507 1 33.06 12.22 7.15
508 2 32.64 11.95 3.35
509 1 32.63 11 3.4
510 1 33.09 12.23 4.15
511 2 33.97 12.8 1.14
512 1 33.49 12.48 1.89
513 1 33.47 12.48 0.37
514 2 33.93 8.26 1.07
515 1 33.47 8.55 1.87
516 1 33.92 7.31 1.12
517 2 37.84 8.24 3.31
518 1 37.39 8.52 4.1
519 1 37.84 7.28 3.36
520 2 37.81 8.12 7.88
521 1 38.7 8.49 7.9
522 1 37.39 8.46 8.66
523 2 37.76 12.72 7.81
524 1 38.68 12.46 7.82
525 1 37.78 13.68 7.84
526 2 32.59 9.15 7.81
527 1 33.03 8.84 8.62
528 1 32.61 10.09 7.87
529 2 40.44 9.2 3.29
530 1 40.86 8.87 4.08
531 1 39.54 8.85 3.33
532 2 44.38 11.86 1.19
533 1 43.51 12.19 1.14
534 1 44.82 12.2 0.38
535 2 45.67 12.84 3.35
536 1 45.25 12.49 2.57
537 1 46.56 12.49 3.33
538 2 44.33 11.94 5.66
539 1 44.79 12.2 4.86
540 1 44.36 10.98 5.64
541 2 41.67 8.31 5.58
542 1 42.59 8.57 5.61
543 1 41.7 7.34 5.59
544 2 41.72 12.89 5.55
545 1 42.63 12.55 5.58
546 1 41.32 12.57 6.34
547 2 44.31 9.04 1.08
548 1 44.75 8.77 1.86
549 1 44.34 10.02 1.11
550 2 44.31 9.11 5.67
551 1 44.8 8.78 6.41
552 1 44.78 8.77 4.9
553 2 40.48 12 7.79
554 1 40.92 12.28 8.6
555 1 40.48 11.05 7.84
556 2 40.4 12 3.28
557 1 40.41 11.04 3.31
558 1 40.86 12.27 4.07
559 2 41.85 12.84 1.11
560 1 41.36 12.51 0.33
561 1 41.36 12.54 1.85
562 2 41.73 8.14 1.04
563 1 42.61 8.47 1.08
564 1 41.29 8.5 1.82
565 2 45.54 8.23 3.36
566 1 46.46 8.52 3.35
567 1 45.59 7.28 3.37
568 2 45.59 8.24 7.89
569 1 45.64 7.29 7.86
570 1 46.5 8.53 7.88
571 2 45.67 12.84 7.87
572 1 45.26 12.5 7.08
573 1 46.57 12.49 7.84
574 2 40.4 9.25 7.9
575 1 40.86 8.89 8.64
576 1 40.87 8.9 7.13
577 2 1.3 16.51 3.28
578 1 1.76 16.22 4.09
579 1 1.32 17.45 3.33
580 2 5.27 19.27 1.14
581 1 4.36 19.55 1.13
582 1 5.23 18.31 1.13
583 2 6.5 20.18 3.44
584 1 6.08 19.85 2.65
585 1 7.4 19.86 3.39
586 2 5.21 19.24 5.59
587 1 5.69 19.57 6.35
588 1 5.69 19.58 4.84
589 2 2.59 15.56 5.55
590 1 3.49 15.88 5.6
591 1 2.18 15.89 6.36
592 2 2.58 20.15 5.58
593 1 3.5 19.88 5.58
594 1 2.62 21.11 5.58
595 2 5.21 16.52 1.06
596 1 5.65 16.17 1.86
597 1 4.33 16.2 1.11
598 2 5.22 16.44 5.59
599 1 5.66 16.16 6.37
600 1 5.25 17.41 5.62
601 2 1.36 19.29 7.93
602 1 0.48 19.59 7.88
603 1 1.78 19.61 7.11
604 2 1.35 19.18 3.3
605 1 0.47 19.53 3.33
606 1 1.78 19.54 4.08
607 2 2.68 20.08 1.09
608 1 2.65 21.04 1.11
609 1 2.21 19.8 1.87
610 2 2.63 15.64 1.08
611 1 2.18 15.92 1.85
612 1 2.61 14.67 1.12
613 2 6.58 15.58 3.33
614 1 6.12 15.86 4.12
615 1 6.56 14.62 3.37
616 2 6.46 15.47 7.8
617 1 6.04 15.81 8.59
618 1 7.34 15.83 7.83
619 2 6.55 20.1 7.77
620 1 6.11 19.81 8.59
621 1 6.54 21.04 7.81
622 2 1.41 16.47 7.91
623 1 0.49 16.18 7.92
624 1 1.35 17.43 7.9
625 2 9.25 16.52 3.42
626 1 9.18 17.45 3.4
627 1 8.32 16.21 3.41
628 2 13.09 19.22 1.05
629 1 13.04 18.26 1.08
630 1 12.18 19.51 1.08
631 2 14.39 20.15 3.41
632 1 13.96 19.8 2.6
633 1 15.28 19.84 3.36
634 2 13.02 19.23 5.61
635 1 13.05 18.28 5.59
636 1 13.51 19.51 4.83
637 2 10.45 15.66 5.64
638 1 10.46 14.68 5.58
639 1 10.01 15.93 4.86
640 2 10.5 20.17 5.6
641 1 10.07 19.83 6.4
642 1 11.38 19.8 5.64
643 2 13.03 16.46 1.18
644 1 13.45 16.14 0.36
645 1 12.15 16.14 1.12
646 2 13.09 16.49 5.66
647 1 13.5 16.15 4.88
648 1 12.18 16.18 5.61
649 2 9.19 19.3 7.85
650 1 8.27 19.58 7.84
651 1 9.15 18.35 7.86
652 2 9.08 19.23 3.35
653 1 9.58 19.54 4.12
654 1 9.56 19.54 2.6
655 2 10.47 20.1 1.17
656 1 10.47 21.06 1.14
657 1 10.02 19.83 0.37
658 2 10.51 15.54 1.08
659 1 10.05 15.89 1.85
660 1 10.03 15.89 0.34
661 2 14.4 15.57 3.46
662 1 13.92 15.84 2.67
663 1 14.4 14.61 3.41
664 2 14.4 15.48 7.87
665 1 13.93 15.83 7.12
666 1 13.93 15.84 8.63
667 2 14.31 20.17 7.88
668 1 13.91 19.82 7.09
669 1 15.21 19.86 7.86
670 2 9.06 16.56 7.86
671 1 9.54 16.23 7.11
672 1 9.53 16.22 8.63
673 2 16.94 16.58 3.28
674 1 16.07 16.22 3.33
675 1 17.38 16.25 4.08
676 2 20.87 19.22 1.15
677 1 21.31 19.56 0.33
678 1 20.01 19.55 1.09
679 2 22.27 20.09 3.45
680 1 21.79 19.8 2.66
681 1 22.22 21.04 3.42
682 2 20.84 19.21 5.64
683 1 21.31 19.54 6.4
684 1 21.33 19.54 4.89
685 2 18.24 15.65 5.58
686 1 17.8 15.92 6.36
687 1 18.24 14.68 5.62
688 2 18.2 20.17 5.6
689 1 19.13 19.88 5.62
690 1 18.25 21.11 5.6
691 2 20.82 16.42 1.08
692 1 20.85 17.39 1.11
693 1 21.28 16.15 1.86
694 2 20.94 16.44 5.63
695 1 20.02 16.17 5.63
696 1 20.91 17.39 5.64
697 2 16.96 19.34 7.96
698 1 16.97 18.39 7.91
699 1 17.41 19.63 7.15
700 2 17.01 19.33 3.3
701 1 17 18.37 3.34
702 1 17.45 19.6 4.11
703 2 18.39 20.16 1.09
704 1 17.88 19.86 0.33
705 1 17.91 19.85 1.85
706 2 18.25 15.5 1.06
707 1 19.14 15.84 1.1
708 1 17.82 15.87 1.85
709 2 22.11 15.51 3.32
710 1 21.7 15.84 4.11
711 1 23.01 15.84 3.35
712 2 22.23 15.49 7.86
713 1 21.76 15.83 8.62
714 1 21.75 15.84 7.11
715 2 22.21 20.1 7.86
716 1 21.75 19.83 8.66
717 1 22.2 21.05 7.88
718 2 16.98 16.6 7.8
719 1 17.41 16.25 8.58
720 1 16.1 16.24 7.82
721 2 24.73 16.43 3.34
722 1 24.76 17.39 3.36
723 1 25.2 16.16 4.13
724 2 28.71 19.26 1.09
725 1 29.17 19.54 1.88
726 1 28.72 18.31 1.13
727 2 30.02 20.22 3.31
728 1 30.9 19.89 3.35
729 1 29.59 19.87 4.11
730 2 28.77 19.17 5.57
731 1 27.89 19.53 5.61
732 1 29.19 19.5 6.37
733 2 26.08 15.58 5.59
734 1 25.66 15.92 6.39
735 1 26.97 15.91 5.64
736 2 26.22 20.22 5.61
737 1 25.74 19.9 6.37
738 1 25.74 19.88 4.86
739 2 28.71 16.53 1.06
740 1 27.82 16.18 1.09
741 1 29.13 16.18 1.84
742 2 28.63 16.44 5.57
743 1 29.09 16.14 6.37
744 1 28.68 17.38 5.6
745 2 24.89 19.34 7.86
746 1 24.85 18.37 7.85
747 1 23.98 19.61 7.88
748 2 24.85 19.18 3.43
749 1 25.27 19.52 2.63
750 1 23.97 19.52 3.4
751 2 26.09 20.09 1.1
752 1 27.01 19.82 1.11
753 1 26.13 21.05 1.11
754 2 26.1 15.57 1.03
755 1 26.08 14.64 1.07
756 1 25.63 15.86 1.84
757 2 30.04 15.57 3.29
758 1 29.57 15.85 4.08
759 1 30.03 14.62 3.34
760 2 29.92 15.57 7.91
761 1 29.97 14.62 7.9
762 1 30.84 15.86 7.89
763 2 30.01 20.06 7.9
764 1 30.91 19.83 7.89
765 1 30 21.04 7.88
766 2 24.78 16.53 7.79
767 1 25.21 16.2 8.6
768 1 23.9 16.18 7.84
