ITEM: TIMESTEP
0
ITEM: NUMBER OF ATOMS
768
ITEM: BOX BOUNDS pp pp pp
0.0000000000000000e+00 4.6936999999999998e+01
0.0000000000000000e+00 4.4121000000000002e+01
0.0000000000000000e+00 4.5182499999999997e+01
ITEM: ATOMS element x y z 
O 1.37 1.79998 3.37 
H 0.46 1.44999 3.4 
H 1.77 1.45999 4.15 
O 5.3 4.58996 1.08 
H 4.4 4.85996 1.07 
H 5.26 3.60997 1.07 
O 6.48 5.44995 3.37 
H 7.4 5.13995 3.34 
H 6.09 5.11995 2.58 
O 5.23 4.45996 5.64 
H 5.71 4.80996 6.37 
H 5.69 4.79996 4.86 
O 2.55 0.879992 5.65 
H 3.47 1.16999 5.65 
H 2.6 44.061 5.64 
O 2.59 5.54995 5.7 
H 3.49 5.18995 5.67 
H 2.18 5.21995 4.91 
O 5.3 1.77998 1.11 
H 4.38 1.43999 1.08 
H 5.69 1.45999 0.33 
O 5.25 1.70998 5.6 
H 5.27 2.68998 5.63 
H 5.68 1.43999 6.38 
O 1.31 4.55996 7.95 
H 1.77 4.86996 7.14 
H 1.34 3.61997 7.89 
O 1.34 4.61996 3.41 
H 1.8 4.88996 2.61 
H 1.35 3.65997 3.39 
O 2.73 5.45995 1.1 
H 2.66 6.39994 1.08 
H 2.24 5.15995 0.31 
O 2.62 0.789993 1.08 
H 2.16 1.14999 0.33 
H 2.15 1.13999 1.85 
O 6.59 0.779993 3.41 
H 6.12 1.11999 2.64 
H 6.12 1.12999 4.15 
O 6.51 0.879992 7.78 
H 6.08 1.13999 8.6 
H 6.52 44.051 7.82 
O 6.55 5.47995 7.77 
H 7.44 5.15995 7.83 
H 6.13 5.14995 8.58 
O 1.39 1.89998 7.87 
H 0.47 1.53999 7.86 
H 1.79 1.52999 7.12 
O 9.13 1.82998 3.42 
H 8.25 1.46999 3.39 
H 9.56 1.47999 2.64 
O 13 4.48996 1.08 
H 13.48 4.81996 0.33 
H 13.49 4.81996 1.84 
O 14.41 5.38995 3.3 
H 14.37 6.34994 3.34 
H 13.94 5.09995 4.08 
O 13.06 4.45996 5.53 
H 13.5 4.79996 6.33 
H 12.19 4.80996 5.57 
O 10.47 0.809993 5.63 
H 10 1.14999 4.87 
H 10.01 1.16999 6.39 
O 10.52 5.42995 5.63 
H 10.05 5.14995 4.85 
H 10.47 6.37994 5.62 
O 13.03 1.74998 1.11 
H 13.06 2.70998 1.13 
H 13.48 1.47999 1.89 
O 13.06 1.70998 5.61 
H 12.14 1.43999 5.62 
H 13.03 2.66998 5.6 
O 9.17 4.62996 7.9 
H 9.17 3.67997 7.88 
H 9.62 4.89996 7.1 
O 9.14 4.61996 3.41 
H 9.13 3.65997 3.39 
H 9.61 4.87996 2.62 
O 10.5 5.44995 1.14 
H 10.06 5.11995 0.33 
H 11.38 5.10995 1.08 
O 10.43 0.909992 1.16 
H 10.48 44.071 1.15 
H 11.34 1.18999 1.16 
O 14.29 0.809993 3.3 
H 15.19 1.14999 3.34 
H 13.87 1.13999 4.08 
O 14.32 0.779993 7.92 
H 15.2 1.13999 7.88 
H 13.89 1.11999 7.13 
O 14.44 5.38995 7.83 
H 14.38 6.32994 7.85 
H 13.98 5.09995 8.62 
O 9.17 1.89998 7.85 
H 9.58 1.54999 8.62 
H 8.27 1.52999 7.86 
O 16.96 1.73998 3.33 
H 16.97 2.69998 3.36 
H 17.42 1.46999 4.12 
O 20.87 4.42996 1.1 
H 21.3 4.79996 1.89 
H 20 4.78996 1.12 
O 22.11 5.42995 3.38 
H 23.04 5.14995 3.36 
H 22.15 6.36994 3.37 
O 20.88 4.58996 5.62 
H 21.33 4.85996 4.84 
H 20.91 3.61997 5.6 
O 18.24 0.939991 5.63 
H 19.16 1.19999 5.64 
H 18.26 44.101 5.61 
O 18.27 5.50995 5.56 
H 17.87 5.16995 6.35 
H 19.18 5.15995 5.59 
O 20.88 1.68998 1.02 
H 21.31 1.40999 1.84 
H 20.87 2.63998 1.08 
O 20.86 1.79998 5.65 
H 21.35 1.45999 6.4 
H 21.32 1.44999 4.89 
O 17.07 4.61996 7.82 
H 17.02 3.64997 7.84 
H 16.16 4.89996 7.84 
O 17 4.50996 3.32 
H 16.11 4.83996 3.36 
H 17.42 4.85996 4.11 
O 18.36 5.39995 1.05 
H 18.33 6.34994 1.08 
H 17.89 5.10995 1.84 
O 18.27 0.849992 1.03 
H 19.17 1.16999 1.08 
H 17.86 1.17999 1.84 
O 22.07 0.879992 3.38 
H 22.99 1.15999 3.39 
H 22.12 44.041 3.37 
O 22.19 0.829992 7.86 
H 23.06 1.18999 7.89 
H 21.76 1.16999 8.66 
O 22.23 5.47995 7.87 
H 21.77 5.11995 8.62 
H 21.76 5.14995 7.11 
O 16.87 1.84998 7.87 
H 17.35 1.51999 8.64 
H 17.35 1.52999 7.13 
O 24.72 1.80998 3.41 
H 25.2 1.47999 2.64 
H 25.22 1.48999 4.16 
O 28.64 4.52996 1.13 
H 29.11 4.80996 0.32 
H 28.68 3.58997 1.11 
O 30.05 5.40995 3.4 
H 29.61 5.06995 2.59 
H 30.92 5.07995 3.35 
O 28.73 4.50996 5.68 
H 29.16 4.81996 4.88 
H 27.83 4.83996 5.61 
O 26.08 0.879992 5.62 
H 26.96 1.18999 5.67 
H 25.65 1.22999 6.42 
O 26.11 5.38995 5.6 
H 25.68 5.12995 4.82 
H 26.08 6.36994 5.59 
O 28.68 1.83998 1.11 
H 29.13 1.46999 1.85 
H 29.16 1.47999 0.34 
O 28.62 1.68998 5.71 
H 28.66 2.64998 5.67 
H 29.07 1.40999 4.91 
O 24.84 4.50996 7.92 
H 23.94 4.82996 7.89 
H 25.25 4.82996 7.12 
O 24.82 4.58996 3.36 
H 24.83 3.62997 3.33 
H 25.27 4.84996 2.56 
O 26.09 5.52995 1.11 
H 25.66 5.18995 0.32 
H 26.97 5.15995 1.08 
O 25.99 0.919992 1.08 
H 26.03 44.101 1.09 
H 26.92 1.20999 1.09 
O 29.89 0.839992 3.35 
H 29.96 44.031 3.35 
H 30.82 1.14999 3.36 
O 29.94 0.839992 7.9 
H 29.52 1.15999 7.12 
H 30.84 1.19999 7.85 
O 30.02 5.35995 7.89 
H 29.56 5.10995 7.11 
H 29.98 6.34994 7.88 
O 24.74 1.80998 7.84 
H 24.78 2.73998 7.88 
H 25.22 1.50999 8.64 
O 32.54 1.87998 3.36 
H 33.03 1.54999 4.12 
H 33 1.51999 2.6 
O 36.61 4.44996 1.13 
H 37.01 4.80996 0.35 
H 35.71 4.78996 1.12 
O 37.95 5.41995 3.39 
H 37.47 5.09995 4.14 
H 37.46 5.08995 2.63 
O 36.56 4.54996 5.61 
H 37.02 4.81996 6.39 
H 36.55 3.57997 5.66 
O 33.89 0.959991 5.59 
H 33.93 44.101 5.58 
H 34.79 1.22999 5.62 
O 33.91 5.45995 5.63 
H 34.84 5.17995 5.64 
H 33.94 6.39994 5.63 
O 36.52 1.65998 1.21 
H 36.54 2.61998 1.18 
H 36.97 1.38999 0.41 
O 36.43 1.75998 5.67 
H 36.91 1.42999 4.9 
H 36.91 1.41999 6.42 
O 32.64 4.56996 7.86 
H 31.73 4.87996 7.81 
H 33.05 4.90996 7.07 
O 32.57 4.54996 3.32 
H 33.05 4.83996 4.13 
H 32.59 3.61997 3.37 
O 33.98 5.47995 1.15 
H 33.49 5.13995 1.88 
H 33.52 5.14995 0.37 
O 33.82 0.869992 1.12 
H 33.86 44.041 1.1 
H 34.75 1.14999 1.13 
O 37.76 0.789993 3.41 
H 37.35 1.11999 2.63 
H 38.67 1.12999 3.38 
O 37.74 0.829992 7.91 
H 37.8 44.031 7.9 
H 38.67 1.14999 7.88 
O 37.92 5.38995 7.81 
H 37.89 6.33994 7.85 
H 37.44 5.09995 8.6 
O 32.54 1.79998 7.89 
H 32.57 2.74998 7.86 
H 33.02 1.50999 7.11 
O 40.37 1.71998 3.29 
H 40.42 2.66998 3.31 
H 40.84 1.43999 4.09 
O 44.36 4.53996 1.17 
H 44.38 3.58997 1.13 
H 44.81 4.82996 0.37 
O 45.61 5.42995 3.43 
H 45.21 5.09995 2.64 
H 46.53 5.12995 3.39 
O 44.26 4.45996 5.65 
H 44.74 4.78996 4.87 
H 44.75 4.78996 6.39 
O 41.72 0.809993 5.61 
H 42.63 1.14999 5.65 
H 41.3 1.15999 6.39 
O 41.71 5.50995 5.66 
H 42.6 5.15995 5.65 
H 41.31 5.17995 4.86 
O 44.41 1.79998 1.06 
H 43.5 1.48999 1.08 
H 44.8 1.45999 1.85 
O 44.31 1.69998 5.63 
H 44.76 1.43999 6.42 
H 44.33 2.66998 5.65 
O 40.48 4.48996 7.96 
H 40.9 4.82996 7.15 
H 39.6 4.81996 7.91 
O 40.53 4.51996 3.36 
H 39.63 4.83996 3.33 
H 40.93 4.87996 2.57 
O 41.75 5.45995 1.11 
H 42.68 5.16995 1.12 
H 41.8 6.39994 1.1 
O 41.73 0.939991 1.03 
H 41.28 1.20999 1.81 
H 41.74 44.091 1.07 
O 45.64 0.849992 3.36 
H 45.63 44.011 3.38 
H 45.19 1.10999 4.16 
O 45.6 0.899992 7.84 
H 45.63 44.061 7.87 
H 45.16 1.15999 8.64 
O 45.63 5.43995 7.78 
H 45.21 5.10995 8.58 
H 46.52 5.11995 7.83 
O 40.43 1.72998 7.78 
H 40.44 2.66998 7.83 
H 40.88 1.43999 8.59 
O 1.27 9.18992 3.32 
H 1.74 8.84992 4.09 
H 1.73 8.83992 2.58 
O 5.2 11.7899 1.07 
H 5.67 12.1399 0.32 
H 5.68 12.1299 1.84 
O 6.55 12.7999 3.34 
H 7.46 12.4799 3.37 
H 6.15 12.4699 4.14 
O 5.27 11.9399 5.61 
H 5.71 12.2099 6.4 
H 5.28 10.9599 5.66 
O 2.55 8.25993 5.62 
H 3.48 8.53992 5.63 
H 2.59 7.30993 5.63 
O 2.61 12.8099 5.58 
H 3.53 12.5299 5.61 
H 2.64 13.7599 5.59 
O 5.19 9.08992 1.17 
H 5.21 10.0199 1.13 
H 5.65 8.79992 0.36 
O 5.19 9.14992 5.65 
H 5.67 8.79992 4.89 
H 5.65 8.81992 6.41 
O 1.37 11.9199 7.94 
H 1.82 12.2199 7.12 
H 1.37 10.9899 7.89 
O 1.32 11.9199 3.36 
H 1.79 12.1999 4.14 
H 1.34 10.9599 3.39 
O 2.6 12.8299 1.07 
H 2.19 12.4999 1.87 
H 3.49 12.4799 1.09 
O 2.56 8.14993 1.16 
H 3.46 8.48992 1.14 
H 2.15 8.49992 0.37 
O 6.58 8.19993 3.46 
H 6.12 8.49992 2.66 
H 6.55 7.25993 3.4 
O 6.51 8.25993 7.87 
H 6.07 8.49992 8.67 
H 6.52 7.28993 7.88 
O 6.47 12.7799 7.85 
H 6.5 13.7099 7.85 
H 7.41 12.4999 7.85 
O 1.28 9.22992 7.86 
H 1.74 8.86992 7.12 
H 1.76 8.87992 8.63 
O 9.19 9.07992 3.33 
H 9.16 10.0399 3.33 
H 8.28 8.80992 3.35 
O 13.06 11.7799 1.15 
H 13.48 12.1399 0.36 
H 12.19 12.1399 1.13 
O 14.4 12.7799 3.4 
H 15.27 12.4699 3.36 
H 13.97 12.4199 2.59 
O 12.97 11.8599 5.58 
H 13.48 12.1599 4.84 
H 13.46 12.1799 6.36 
O 10.37 8.15993 5.66 
H 11.28 8.50992 5.62 
H 9.97 8.48992 4.87 
O 10.49 12.8899 5.52 
H 11.36 12.5399 5.55 
H 10.05 12.5399 6.32 
O 13.12 9.06992 1.09 
H 13.08 10.0199 1.09 
H 12.2 8.78992 1.09 
O 13.07 9.12992 5.53 
H 13.5 8.83992 6.34 
H 13.08 10.0799 5.59 
O 9.18 11.9199 7.8 
H 9.64 12.2099 8.61 
H 9.17 10.9799 7.85 
O 9.17 11.8699 3.35 
H 9.64 12.2199 4.1 
H 9.63 12.2099 2.59 
O 10.49 12.8099 1.18 
H 10.47 13.7499 1.13 
H 10.05 12.5199 0.36 
O 10.5 8.25993 1.05 
H 10.49 7.28993 1.08 
H 10.03 8.52992 1.83 
O 14.36 8.13993 3.37 
H 13.9 8.50992 4.11 
H 13.9 8.48992 2.6 
O 14.28 8.12993 7.79 
H 15.19 8.47992 7.82 
H 13.88 8.45992 8.56 
O 14.34 12.7499 7.91 
H 15.25 12.4899 7.89 
H 14.36 13.7199 7.89 
O 9.15 9.19992 7.91 
H 8.25 8.84992 7.89 
H 9.55 8.84992 7.13 
O 17.05 9.14992 3.31 
H 16.12 8.80992 3.35 
H 17.44 8.83992 4.09 
O 20.88 11.9099 1.09 
H 20.87 10.9299 1.11 
H 21.33 12.1599 1.86 
O 22.11 12.6999 3.31 
H 23.04 12.4399 3.33 
H 22.13 13.6499 3.33 
O 20.83 11.8899 5.61 
H 21.34 12.2099 6.36 
H 21.31 12.1899 4.85 
O 18.21 8.29992 5.59 
H 19.13 8.57992 5.59 
H 18.25 7.33993 5.59 
O 18.26 12.8299 5.64 
H 17.85 12.4999 4.85 
H 19.17 12.4899 5.6 
O 20.85 9.09992 1.11 
H 19.97 8.75992 1.07 
H 21.27 8.77992 0.3 
O 20.87 9.08992 5.63 
H 21.32 8.81992 4.85 
H 20.89 10.0599 5.6 
O 16.89 11.9399 7.86 
H 17.39 12.2599 8.62 
H 17.39 12.2399 7.11 
O 16.93 11.9899 3.45 
H 17.4 12.2699 2.66 
H 16.96 11.0299 3.42 
O 18.28 12.7799 1.09 
H 19.2 12.5099 1.11 
H 18.32 13.7399 1.1 
O 18.33 8.13993 1.13 
H 17.86 8.48992 1.87 
H 17.86 8.50992 0.36 
O 22.16 8.17993 3.41 
H 21.73 8.49992 2.6 
H 23.03 8.52992 3.36 
O 22.22 8.19993 7.94 
H 22.2 7.26993 7.9 
H 21.77 8.49992 7.13 
O 22.27 12.7599 7.83 
H 22.22 13.7099 7.87 
H 21.8 12.4699 8.63 
O 16.99 9.11992 7.92 
H 16.98 10.0799 7.88 
H 17.42 8.84992 7.12 
O 24.69 9.18992 3.34 
H 25.16 8.86992 4.11 
H 25.19 8.83992 2.59 
O 28.71 11.8599 1.18 
H 29.16 12.1499 0.35 
H 28.72 10.9199 1.13 
O 30.04 12.7899 3.43 
H 29.63 12.4499 2.63 
H 30.94 12.4799 3.39 
O 28.78 11.8799 5.64 
H 27.87 12.2099 5.59 
H 29.19 12.1999 4.85 
O 26.03 8.23993 5.6 
H 25.63 8.57992 6.39 
H 26.94 8.54992 5.63 
O 26.11 12.7599 5.56 
H 25.67 12.4899 6.35 
H 26.11 13.7199 5.59 
O 28.73 9.14992 1.15 
H 27.83 8.80992 1.12 
H 29.14 8.82992 0.35 
O 28.65 9.06992 5.67 
H 28.69 10.0299 5.64 
H 29.12 8.78992 4.88 
O 24.84 12.0199 7.9 
H 24.81 11.0399 7.89 
H 23.94 12.2799 7.89 
O 24.83 11.9599 3.34 
H 25.27 12.2099 4.13 
H 24.82 10.9899 3.37 
O 26.06 12.8799 1.04 
H 25.65 12.5599 1.83 
H 26.96 12.5199 1.07 
O 26.15 8.21993 1.12 
H 26.13 7.28993 1.08 
H 25.68 8.50992 0.32 
O 30.05 8.23993 3.39 
H 30.04 7.26993 3.35 
H 29.59 8.50992 2.61 
O 29.93 8.20993 7.97 
H 30.83 8.53992 7.92 
H 29.52 8.51992 7.17 
O 30.08 12.7899 7.9 
H 29.59 12.4599 8.65 
H 29.6 12.4699 7.14 
O 24.82 9.23992 7.84 
H 25.24 8.87992 8.61 
H 23.93 8.86992 7.86 
O 32.6 9.21992 3.37 
H 31.72 8.85992 3.38 
H 33.02 8.85992 4.15 
O 36.55 11.8799 1.09 
H 35.63 12.1499 1.11 
H 36.51 10.9199 1.08 
O 37.83 12.7899 3.36 
H 37.4 12.4399 2.56 
H 38.72 12.4799 3.31 
O 36.5 11.8799 5.65 
H 36.99 12.1999 4.86 
H 36.98 12.1999 6.37 
O 33.85 8.14993 5.6 
H 34.75 8.48992 5.62 
H 33.44 8.49992 6.37 
O 33.87 12.8199 5.65 
H 34.8 12.5399 5.65 
H 33.91 13.7599 5.64 
O 36.57 9.12992 1.03 
H 36.98 8.79992 1.83 
H 35.66 8.80992 1.08 
O 36.48 9.11992 5.59 
H 36.95 8.81992 6.39 
H 36.52 10.0699 5.63 
O 32.64 11.8699 7.95 
H 31.75 12.1799 7.91 
H 33.06 12.2199 7.15 
O 32.64 11.9499 3.35 
H 32.63 10.9999 3.4 
H 33.09 12.2299 4.15 
O 33.97 12.7999 1.14 
H 33.49 12.4799 1.89 
H 33.47 12.4799 0.37 
O 33.93 8.25993 1.07 
H 33.47 8.54992 1.87 
H 33.92 7.30993 1.12 
O 37.84 8.23993 3.31 
H 37.39 8.51992 4.1 
H 37.84 7.27993 3.36 
O 37.81 8.11993 7.88 
H 38.7 8.48992 7.9 
H 37.39 8.45992 8.66 
O 37.76 12.7199 7.81 
H 38.68 12.4599 7.82 
H 37.78 13.6799 7.84 
O 32.59 9.14992 7.81 
H 33.03 8.83992 8.62 
H 32.61 10.0899 7.87 
O 40.44 9.19992 3.29 
H 40.86 8.86992 4.08 
H 39.54 8.84992 3.33 
O 44.38 11.8599 1.19 
H 43.51 12.1899 1.14 
H 44.82 12.1999 0.38 
O 45.67 12.8399 3.35 
H 45.25 12.4899 2.57 
H 46.56 12.4899 3.33 
O 44.33 11.9399 5.66 
H 44.79 12.1999 4.86 
H 44.36 10.9799 5.64 
O 41.67 8.30992 5.58 
H 42.59 8.56992 5.61 
H 41.7 7.33993 5.59 
O 41.72 12.8899 5.55 
H 42.63 12.5499 5.58 
H 41.32 12.5699 6.34 
O 44.31 9.03992 1.08 
H 44.75 8.76992 1.86 
H 44.34 10.0199 1.11 
O 44.31 9.10992 5.67 
H 44.8 8.77992 6.41 
H 44.78 8.76992 4.9 
O 40.48 11.9999 7.79 
H 40.92 12.2799 8.6 
H 40.48 11.0499 7.84 
O 40.4 11.9999 3.28 
H 40.41 11.0399 3.31 
H 40.86 12.2699 4.07 
O 41.85 12.8399 1.11 
H 41.36 12.5099 0.33 
H 41.36 12.5399 1.85 
O 41.73 8.13993 1.04 
H 42.61 8.46992 1.08 
H 41.29 8.49992 1.82 
O 45.54 8.22993 3.36 
H 46.46 8.51992 3.35 
H 45.59 7.27993 3.37 
O 45.59 8.23993 7.89 
H 45.64 7.28993 7.86 
H 46.5 8.52992 7.88 
O 45.67 12.8399 7.87 
H 45.26 12.4999 7.08 
H 46.57 12.4899 7.84 
O 40.4 9.24992 7.9 
H 40.86 8.88992 8.64 
H 40.87 8.89992 7.13 
O 1.3 16.5099 3.28 
H 1.76 16.2199 4.09 
H 1.32 17.4498 3.33 
O 5.27 19.2698 1.14 
H 4.36 19.5498 1.13 
H 5.23 18.3098 1.13 
O 6.5 20.1798 3.44 
H 6.08 19.8498 2.65 
H 7.4 19.8598 3.39 
O 5.21 19.2398 5.59 
H 5.69 19.5698 6.35 
H 5.69 19.5798 4.84 
O 2.59 15.5599 5.55 
H 3.49 15.8799 5.6 
H 2.18 15.8899 6.36 
O 2.58 20.1498 5.58 
H 3.5 19.8798 5.58 
H 2.62 21.1098 5.58 
O 5.21 16.5199 1.06 
H 5.65 16.1699 1.86 
H 4.33 16.1999 1.11 
O 5.22 16.4399 5.59 
H 5.66 16.1599 6.37 
H 5.25 17.4098 5.62 
O 1.36 19.2898 7.93 
H 0.48 19.5898 7.88 
H 1.78 19.6098 7.11 
O 1.35 19.1798 3.3 
H 0.47 19.5298 3.33 
H 1.78 19.5398 4.08 
O 2.68 20.0798 1.09 
H 2.65 21.0398 1.11 
H 2.21 19.7998 1.87 
O 2.63 15.6399 1.08 
H 2.18 15.9199 1.85 
H 2.61 14.6699 1.12 
O 6.58 15.5799 3.33 
H 6.12 15.8599 4.12 
H 6.56 14.6199 3.37 
O 6.46 15.4699 7.8 
H 6.04 15.8099 8.59 
H 7.34 15.8299 7.83 
O 6.55 20.0998 7.77 
H 6.11 19.8098 8.59 
H 6.54 21.0398 7.81 
O 1.41 16.4699 7.91 
H 0.49 16.1799 7.92 
H 1.35 17.4298 7.9 
O 9.25 16.5199 3.42 
H 9.18 17.4498 3.4 
H 8.32 16.2099 3.41 
O 13.09 19.2198 1.05 
H 13.04 18.2598 1.08 
H 12.18 19.5098 1.08 
O 14.39 20.1498 3.41 
H 13.96 19.7998 2.6 
H 15.28 19.8398 3.36 
O 13.02 19.2298 5.61 
H 13.05 18.2798 5.59 
H 13.51 19.5098 4.83 
O 10.45 15.6599 5.64 
H 10.46 14.6799 5.58 
H 10.01 15.9299 4.86 
O 10.5 20.1698 5.6 
H 10.07 19.8298 6.4 
H 11.38 19.7998 5.64 
O 13.03 16.4599 1.18 
H 13.45 16.1399 0.36 
H 12.15 16.1399 1.12 
O 13.09 16.4899 5.66 
H 13.5 16.1499 4.88 
H 12.18 16.1799 5.61 
O 9.19 19.2998 7.85 
H 8.27 19.5798 7.84 
H 9.15 18.3498 7.86 
O 9.08 19.2298 3.35 
H 9.58 19.5398 4.12 
H 9.56 19.5398 2.6 
O 10.47 20.0998 1.17 
H 10.47 21.0598 1.14 
H 10.02 19.8298 0.37 
O 10.51 15.5399 1.08 
H 10.05 15.8899 1.85 
H 10.03 15.8899 0.34 
O 14.4 15.5699 3.46 
H 13.92 15.8399 2.67 
H 14.4 14.6099 3.41 
O 14.4 15.4799 7.87 
H 13.93 15.8299 7.12 
H 13.93 15.8399 8.63 
O 14.31 20.1698 7.88 
H 13.91 19.8198 7.09 
H 15.21 19.8598 7.86 
O 9.06 16.5598 7.86 
H 9.54 16.2299 7.11 
H 9.53 16.2199 8.63 
O 16.94 16.5798 3.28 
H 16.07 16.2199 3.33 
H 17.38 16.2499 4.08 
O 20.87 19.2198 1.15 
H 21.31 19.5598 0.33 
H 20.01 19.5498 1.09 
O 22.27 20.0898 3.45 
H 21.79 19.7998 2.66 
H 22.22 21.0398 3.42 
O 20.84 19.2098 5.64 
H 21.31 19.5398 6.4 
H 21.33 19.5398 4.89 
O 18.24 15.6499 5.58 
H 17.8 15.9199 6.36 
H 18.24 14.6799 5.62 
O 18.2 20.1698 5.6 
H 19.13 19.8798 5.62 
H 18.25 21.1098 5.6 
O 20.82 16.4199 1.08 
H 20.85 17.3898 1.11 
H 21.28 16.1499 1.86 
O 20.94 16.4399 5.63 
H 20.02 16.1699 5.63 
H 20.91 17.3898 5.64 
O 16.96 19.3398 7.96 
H 16.97 18.3898 7.91 
H 17.41 19.6298 7.15 
O 17.01 19.3298 3.3 
H 17 18.3698 3.34 
H 17.45 19.5998 4.11 
O 18.39 20.1598 1.09 
H 17.88 19.8598 0.33 
H 17.91 19.8498 1.85 
O 18.25 15.4999 1.06 
H 19.14 15.8399 1.1 
H 17.82 15.8699 1.85 
O 22.11 15.5099 3.32 
H 21.7 15.8399 4.11 
H 23.01 15.8399 3.35 
O 22.23 15.4899 7.86 
H 21.76 15.8299 8.62 
H 21.75 15.8399 7.11 
O 22.21 20.0998 7.86 
H 21.75 19.8298 8.66 
H 22.2 21.0498 7.88 
O 16.98 16.5998 7.8 
H 17.41 16.2499 8.58 
H 16.1 16.2399 7.82 
O 24.73 16.4299 3.34 
H 24.76 17.3898 3.36 
H 25.2 16.1599 4.13 
O 28.71 19.2598 1.09 
H 29.17 19.5398 1.88 
H 28.72 18.3098 1.13 
O 30.02 20.2198 3.31 
H 30.9 19.8898 3.35 
H 29.59 19.8698 4.11 
O 28.77 19.1698 5.57 
H 27.89 19.5298 5.61 
H 29.19 19.4998 6.37 
O 26.08 15.5799 5.59 
H 25.66 15.9199 6.39 
H 26.97 15.9099 5.64 
O 26.22 20.2198 5.61 
H 25.74 19.8998 6.37 
H 25.74 19.8798 4.86 
O 28.71 16.5299 1.06 
H 27.82 16.1799 1.09 
H 29.13 16.1799 1.84 
O 28.63 16.4399 5.57 
H 29.09 16.1399 6.37 
H 28.68 17.3798 5.6 
O 24.89 19.3398 7.86 
H 24.85 18.3698 7.85 
H 23.98 19.6098 7.88 
O 24.85 19.1798 3.43 
H 25.27 19.5198 2.63 
H 23.97 19.5198 3.4 
O 26.09 20.0898 1.1 
H 27.01 19.8198 1.11 
H 26.13 21.0498 1.11 
O 26.1 15.5699 1.03 
H 26.08 14.6399 1.07 
H 25.63 15.8599 1.84 
O 30.04 15.5699 3.29 
H 29.57 15.8499 4.08 
H 30.03 14.6199 3.34 
O 29.92 15.5699 7.91 
H 29.97 14.6199 7.9 
H 30.84 15.8599 7.89 
O 30.01 20.0598 7.9 
H 30.91 19.8298 7.89 
H 30 21.0398 7.88 
O 24.78 16.5299 7.79 
H 25.21 16.1999 8.6 
H 23.9 16.1799 7.84 
