192
Lattice="25.64674 0.0 0.0 0.0 25.64674 0.0 0.0 0.0 25.64674" Properties=species:S:1:pos:R:3:force:R:3 TotEnergy=-1103.77599 cutoff=-1.0 nneightol=1.2 pbc="T T T"
O       25.50853400      15.51120000       7.97194000       0.00234574       0.00078429       0.00255755
H       24.71688800      14.63810000       6.58060000       0.00159112      -0.00064525       0.00204960
H       24.71810000      17.12150000       8.19329000      -0.00175275       0.00176068      -0.00339988
O       11.62880000      22.63660000      18.10710000       0.01301760      -0.02246710      -0.00530208
H       11.77340000      24.43220000      18.20620000      -0.00358163       0.01156710       0.00271593
H       10.37530000      21.89460000      19.17160000      -0.01906330       0.01335390      -0.00003487
O       17.97630000      14.16140000      18.30100000      -0.00270957      -0.00222845       0.00029232
H       19.76410000      14.30300000      17.92200000       0.00259200       0.00394743      -0.00075924
H       17.50200000      15.68990000      19.15330000       0.00046889       0.00528463      -0.00059656
O        3.69733000      19.58040000      14.65520000       0.00212197      -0.00210571      -0.00003751
H        4.83919000      20.37330000      13.48160000      -0.00117038      -0.00005318       0.00242013
H        2.13567000      20.45510000      14.35750000      -0.00148835       0.00088648       0.00039034
O        4.11188000       9.58004000       7.94359000       0.00105961      -0.00416544      -0.00057902
H        4.19004000       7.79502000       8.32135000       0.00009405      -0.00246311      -0.00162460
H        3.72530000      10.41120000       9.53507000      -0.00141628       0.00158655      -0.00242396
O        6.65627000      25.06323300      21.01680000       0.00346856      -0.00062358       0.00045577
H        6.45625000      25.32202500      19.15110000       0.00423636       0.00128069       0.00306978
H        5.00128000      25.00941100      21.74450000      -0.00243734       0.00055001      -0.00452124
O        8.16295000      16.49870000      11.90860000      -0.00229238      -0.00382317       0.00301666
H        8.94630000      17.80560000      12.89070000       0.00386983       0.00043222      -0.00181754
H        7.29095000      15.42290000      13.10020000      -0.00117051       0.00278884      -0.00158877
O        9.76630000       2.41074000      24.86930000       0.00033127       0.00040868       0.00330857
H       11.47380000       1.81727000      25.08440000       0.00182504       0.00041617      -0.00129621
H        8.91500000       1.24623000      23.74840000      -0.00055823      -0.00135794      -0.00463767
O        2.11028000       1.70527000      16.19160000      -0.00344727       0.00574899      -0.00841830
H        1.73934000       6.74883000      20.17820000      -0.00868118      -0.00229127       0.00327095
H        1.27481000       1.00748000      17.61830000      -0.00305096      -0.00461373       0.00767582
O       25.32596900      25.57953700      21.94110000       0.00886915       0.00761152      -0.00820978
H       25.18350000      24.26480000      23.15300000      -0.00231219      -0.00588450       0.00602048
H       24.32040000       1.28587000      22.59040000      -0.00204379      -0.00021602       0.00200929
O       24.07930000      22.77710000       5.66975000       0.00125197       0.00128270      -0.00957291
H       23.29540000      22.96420000       7.28078000      -0.00003579      -0.00070546       0.00425076
H       22.84860000      22.05490000       4.51825000      -0.00173985      -0.00289062       0.00529015
O        9.53307000      15.88720000       6.86218000       0.00387908      -0.00330279       0.00048741
H       10.97400000      16.81790000       6.24669000      -0.00151210       0.00454625      -0.00042785
H        9.34372000      16.28240000       8.64488000      -0.00271010       0.00011614      -0.00026226
O       23.56170000      19.91060000      23.61570000      -0.00210370       0.00173696       0.00243833
H       24.08670000      18.75230000      22.32070000       0.00177402       0.00140689       0.00011559
H       25.10580000      20.47240000      24.38510000      -0.00008448      -0.00344112       0.00189422
O        1.40143000       8.69708000      16.96930000       0.00727717      -0.00066813       0.02837700
H        0.67960500       8.56576000      15.34870000      -0.01000330      -0.00336643      -0.01678340
H        3.13542000       8.28671000      16.72630000       0.00875619       0.00101011      -0.00760401
O       25.01310000       1.45532000      12.13430000       0.00048432      -0.00477808      -0.00312438
H        0.64719500       1.94939000      10.93990000       0.00063911       0.00014541      -0.00106593
H        0.37193000       1.43188000      13.79050000       0.00174778       0.00422971       0.00482512
O        7.77319000       7.01135000      23.57520000      -0.00134904       0.00684292       0.00011130
H        8.83611000       5.62913000      24.17130000      -0.00577461      -0.00587324      -0.00345013
H        7.74634000       8.19843000      24.96290200      -0.00418519      -0.00371722      -0.00282093
O       24.60510000      21.19110000      11.51430000       0.00002949       0.00341579      -0.00096300
H       22.92950000      20.60190000      11.88350000      -0.00189931       0.00197396       0.00092240
H       24.58590000      22.99860000      11.84290000       0.00032017       0.00187216       0.00055731
O       13.37150000      25.07180000       9.16173000       0.00661316       0.00389073      -0.00402193
H       12.69670000      23.68880000       8.21841000      -0.00233761      -0.00144715      -0.00341074
H       14.56680000       0.20252400       8.02422000      -0.00523379      -0.00207106       0.00444361
O       20.53940000      19.83610000       2.84088000      -0.00247421       0.00372760       0.00838800
H       20.30150000      18.31560000       3.80748000       0.00069456      -0.00728685      -0.00116141
H       20.46030000      19.36830000       1.10266000       0.00778404      -0.00218698      -0.00770298
O        9.81173000      13.49150000      20.41080000      -0.02505360      -0.00907268      -0.00136755
H       11.53870000      13.84430000      20.35010000       0.02879450       0.00651573      -0.00300557
H        9.00882000      15.11190000      20.40650000      -0.00297630       0.00922030       0.00366820
O        6.82723000      18.70930000      19.22800000      -0.00195611      -0.01001200      -0.00685200
H        6.52839000      19.59380000      20.76630000      -0.00023748       0.00902467       0.00811386
H        5.69500000      19.40080000      17.95290000       0.00431262      -0.00015060       0.00204108
O       12.91600000      11.91900000       8.53858000       0.00111215      -0.00113690       0.00238078
H       11.67430000      12.86940000       7.62280000      -0.00504451       0.00497502      -0.00574458
H       13.05000000      12.82760000      10.10330000       0.00052326      -0.00191425       0.00485915
O        5.10346000       2.23101000       3.43839000      -0.00225074      -0.00388327      -0.00343121
H        6.20365000       0.75063900       3.54234000       0.00030869       0.00243725       0.00398667
H        6.04163000       3.50674000       2.56506000       0.00185229      -0.00015369      -0.00207204
O        9.29137000       3.20509000      11.66530000      -0.00244667      -0.00125715      -0.00265741
H       10.69860000       2.79074000      10.58600000      -0.00307390      -0.00276172       0.00244977
H        9.63757000       4.90198000      12.21150000       0.00110150       0.00090903      -0.00183347
O       19.98370000      14.64990000       5.05963000      -0.00079725       0.00452814       0.00053288
H       18.53670000      13.63410000       4.65251000       0.00002530      -0.00285236      -0.00756355
H       20.56630000      13.79850000       6.55124000      -0.00136037      -0.00046030       0.00263190
O       12.55460000      20.08120000      12.70800000       0.00383679      -0.01680180      -0.00494507
H       11.68530000      21.64040000      12.67880000      -0.00482237       0.01792500       0.00148494
H       12.93020000      19.79630000      14.45240000       0.00017699       0.00280640       0.00542543
O       22.04610000       6.08672000      12.67320000      -0.01309870       0.01352890       0.00860035
H       22.85340000       4.52084000      12.29850000       0.01289030      -0.01946990      -0.00011302
H       22.83780000       7.31214000      11.62710000       0.00346108       0.00467373      -0.00474654
O       11.87060000       7.48172000      14.04050000      -0.00337317      -0.00606122       0.00065512
H       11.61180000       6.81634000      15.73360000       0.00351088       0.00397827      -0.00043201
H       12.95460000       8.90829000      14.26350000       0.00145288       0.00671824       0.00067472
O       14.38920000       1.37786000      17.37520000      -0.01916840       0.00684075       0.00338384
H       16.10540000       1.00048000      17.68180000       0.01878550      -0.00313229       0.00567772
H       14.39730000       2.72489000      16.16350000       0.00243700      -0.00198979      -0.00490468
O       16.46320000      10.85210000       1.58584000      -0.00094353       0.00503889      -0.00209736
H       17.28710000      10.98280000      25.61539700       0.00058627      -0.00197234      -0.00356270
H       16.90060000       9.18971000       2.17705000      -0.00108784      -0.00099490       0.00532194
O       19.67260000      21.82820000      18.17940000       0.00508813      -0.00127102       0.00267660
H       18.97260000      21.40090000      16.57910000      -0.00102067      -0.00408662      -0.00498289
H       18.45610000      21.15470000      19.34750000      -0.00586637      -0.00022093       0.00363239
O        6.94414000       9.69482000       2.81887000      -0.00029874      -0.00903502      -0.00016136
H        8.39557000      10.71410000       2.40382000       0.00207238       0.00737979      -0.00215478
H        6.28184000      10.33330000       4.38067000      -0.00341224       0.00209941       0.00251562
O       11.99760000       6.36148000      19.21780000       0.00304848       0.00718882      -0.00904909
H       12.43890000       4.78457000      19.95240000       0.00229471      -0.01056730       0.00217967
H       11.07770000       7.27487000      20.46150000      -0.00810497       0.00270230       0.00661725
O        1.54493000      16.20120000      21.42460000      -0.00114883       0.00083495       0.00087939
H        1.57563000      15.86440000      23.21570000       0.00027112      -0.00244645      -0.00228302
H        2.98119000      17.28030000      21.17030000       0.00241786      -0.00031160      -0.00039194
O       17.96550000      10.93290000       8.52660000       0.00194433       0.00095401      -0.00128235
H       16.20680000      11.28440000       8.13696000      -0.00039921      -0.00103530      -0.00176219
H       17.95140000      10.83750000      10.32430000       0.00214354      -0.00091620       0.00586682
O       10.81500000      12.23360000       0.34191400       0.00937221      -0.00335320       0.00233187
H       12.58120000      11.78030000       0.57081500      -0.00549787       0.00100562      -0.00098498
H       10.47320000      12.19640000      24.20300000       0.00004782       0.00178047       0.00021021
O        1.99744000      11.58100000      25.34892800      -0.00145667      -0.00079280       0.00554285
H        3.45500000      11.26760000       0.74934100       0.00406580       0.00140722      -0.00106235
H        2.59423000      11.48560000      23.64970000       0.00033989       0.00003161      -0.00223543
O       10.35850000       6.48335000       6.60798000       0.00528603       0.00190672       0.00023788
H        9.99307000       8.24926000       6.74901000       0.00070998       0.00121783       0.00382247
H        9.13702000       5.89337000       5.42524000      -0.00499571      -0.00208616      -0.00270933
O       18.25780000      10.05000000      21.77070000      -0.00143589      -0.00240710      -0.00018920
H       18.13390000      11.39090000      20.53470000      -0.00105453       0.00037108       0.00024522
H       18.24830000       8.50913000      20.79780000       0.00184406       0.00321746       0.00427636
O       16.03530000       4.27367000      12.52940000      -0.00219448      -0.00737911       0.00112076
H       14.67200000       5.46160000      12.38080000      -0.00272334       0.00306337       0.00111544
H       17.43660000       4.93220000      11.61170000       0.00632525       0.00459571       0.00068570
O       14.22340000      13.07830000      14.43470000      -0.00536897      -0.00228657      -0.00440321
H       15.42900000      13.70910000      15.64690000       0.00491346      -0.00138460       0.00234996
H       12.59370000      13.41860000      15.14650000       0.00027701       0.00077238      -0.00055347
O       23.24600000      14.63730000      17.08940000      -0.00441989       0.00234521       0.00131546
H       24.31810000      15.77800000      18.01290000       0.00046668      -0.00270438       0.00206801
H       23.34250000      15.15830000      15.36190000       0.00188224       0.00066033      -0.00185228
O        5.45338000      19.19160000      25.56925800      -0.00025108      -0.00259684       0.00056609
H        5.72295000      17.98170000       1.26092000      -0.00296083      -0.00093127      -0.00321998
H        4.32408000      20.43860000       0.64349700       0.00003229      -0.00188129      -0.00068802
O        1.99766000      22.93210000       1.56200000      -0.00998222      -0.00766209      -0.00642821
H        3.12317000      24.26860000       1.96612000       0.00639685       0.00915742       0.00243378
H        0.92503500      22.75480000       3.02353000       0.00185836       0.00101273       0.00424296
O       15.50230000       1.53974000      25.55190000       0.00373120       0.00107591      -0.00599029
H       15.99210000       2.48209000       1.38361000       0.00002890       0.00046769      -0.00121358
H       16.73370000       1.92460000      24.25050000      -0.00520691      -0.00243886       0.00553008
O       14.71770000      19.68300000      20.22590000       0.00371759       0.04611140      -0.08342770
H       13.47250000      21.26160000      19.46240000       0.03421220      -0.04474360       0.02095960
H       14.26510000      19.12130000      21.77650000      -0.02476960      -0.00930284       0.06116600
O        3.99520000      20.42550000       8.33744000      -0.00432796       0.00695117       0.00050295
H        2.27089000      20.80740000       8.81748000       0.00686069      -0.00286524      -0.00181214
H        4.23838000      18.66870000       8.67726000      -0.00009117      -0.00143393       0.00156826
O        3.92193000       3.79091000       8.58322000       0.00169835      -0.00004757       0.00865204
H        3.81252000       3.01061000       6.94590000       0.00587509       0.00158133      -0.00328068
H        5.52303000       3.24057000       9.29344000      -0.00473013       0.00268297      -0.00073227
O       25.34900000      10.85760000       5.12146000      -0.00684751       0.00134944      -0.00093523
H        0.02578300      11.31960000       3.40129000       0.00085855      -0.00067018      -0.00419005
H        1.30307000      10.32120000       5.82544000       0.00487700      -0.00048236       0.00392554
O        5.03366000      14.97070000       4.16415000      -0.00568583       0.00192119       0.00174388
H        3.64497000      15.14680000       5.33031000       0.00336196       0.00044962      -0.00317650
H        6.54302000      15.31910000       5.14244000       0.00115554      -0.00031573       0.00029571
O       15.41900000       6.02372000       4.18287000       0.00289283      -0.00046405       0.00323091
H       13.92180000       6.58654000       3.34874000      -0.00649891      -0.00112762      -0.00166384
H       14.95300000       6.24916000       5.93329000       0.00285004      -0.00189357      -0.00478386
O       22.98090000       5.98275000       4.49547000      -0.00195115       0.00199008      -0.00634635
H       23.11780000       5.35972000       6.17491000      -0.00037313      -0.00472226       0.00611135
H       23.30030000       7.77741000       4.66448000       0.00306905       0.00069332      -0.00011308
O       18.22670000      20.66730000      12.22910000       0.00033308      -0.00811483      -0.00288435
H       16.50710000      20.35010000      11.69020000       0.00190040      -0.00164882       0.00231105
H       18.10520000      22.28950000      12.98360000      -0.00087858       0.01309250       0.00052818
O       12.37330000      20.72370000      25.64397100       0.00141689       0.00120490      -0.00320064
H       12.70070000      19.69430000       1.46083000      -0.00029435       0.00066759       0.00096005
H       13.22860000      22.29690000       0.29244200      -0.00035325      -0.00164922       0.00055861
O        1.98478000      12.40290000      11.82170000      -0.00434787      -0.00468965      -0.00038574
H        0.95814900      13.42630000      10.70990000       0.00180500       0.00192510      -0.00327095
H        3.01700000      13.55930000      12.74240000       0.00364719       0.00150962       0.00375060
O       21.85300000       6.33529000      19.04100000      -0.00294888      -0.00376634       0.00466247
H       21.81180000       6.14503000      17.24750000       0.00164115      -0.00057306      -0.01132350
H       22.72570000       7.88342000      19.32470000       0.00187607       0.00583605       0.00062438
O       14.06040000      18.46880000       4.78054000      -0.00276648       0.00061502      -0.00148960
H       15.04680000      20.01060000       4.60104000      -0.00026138       0.00096471       0.00213608
H       15.23060000      17.11310000       4.55700000       0.00304193      -0.00227933       0.00031129
O       20.09470000       1.32812000      20.40950000      -0.00858011      -0.00225754       0.00332361
H       21.10280000      25.56816700      19.86780000      -0.00192615      -0.00257352      -0.00158829
H       20.97790000       2.81787000      19.90280000       0.00269130       0.00599220      -0.00087828
O        7.27977000      23.43310000       4.70680000      -0.00039266       0.00447409       0.00306262
H        8.10459000      22.14800000       3.75401000       0.00159054      -0.00474783      -0.00629624
H        6.20420000      22.57830000       5.90125000      -0.00206010      -0.00371877       0.00250575
O        0.89184600       4.57020000       0.80737800       0.01371020       0.00676035      -0.03662190
H       25.20840000       4.81112000       1.95374000      -0.02888880       0.01420090       0.02198820
H        1.77575000       3.16908000       1.48047000       0.01571780      -0.01141660       0.00193366
O        6.38223000      25.59040000      15.95550000      -0.00975840      -0.00163325       0.00496311
H        7.38373000       0.98601700      14.86580000       0.00042127       0.00116091       0.00038283
H        4.39489000       0.73766800      16.00000000       0.01031200      -0.00163993      -0.00160713
O        2.39709000       6.90447000      21.91930000      -0.01040210      -0.00099092       0.00530963
H        4.17370000       6.48613000      21.98990000       0.01917920      -0.00214395       0.00752924
H        1.47428000       6.13250000      23.41580000       0.00360598      -0.00323793      -0.00542323
O        5.61102000      13.54570000      16.10730000      -0.00518905       0.00044695       0.00221359
H        4.13631000      14.05480000      17.05820000       0.00606235      -0.00087217      -0.00354152
H        6.99925000      13.83060000      17.24080000      -0.00040985      -0.00238988       0.00045838
O       16.63150000      23.14100000       4.13798000       0.00004914       0.00115215       0.00601692
H       17.92070000      22.93340000       5.40140000      -0.00202222       0.00013674      -0.00178218
H       17.58020000      23.05250000       2.58975000      -0.00281450       0.00060296       0.00086957