192
TotEnergy=-1102.85523000 cutoff=-1.00000000 nneightol=1.20000000 pbc="T T T" Lattice="24.09873000       0.00000000       0.00000000      -0.00000100      24.09873000       0.00000000      -0.00000100      -0.00000100      24.09873000" Properties=species:S:1:pos:R:3:force:R:3:Z:I:1
O               6.16168000      5.17785000     22.19100000     -0.05392160      0.03197800     -0.05221530       8
H               4.76742000      6.35249000     21.24640000      0.04978090     -0.02924550      0.03988270       1
H               6.57166000      6.01557000     23.73420000      0.00016505      0.00944223      0.00805185       1
O              17.87530000      4.01195000      2.68188000     -0.02456530      0.00994605     -0.04396080       8
H              16.49220000      4.94035000      1.72623000      0.02148260     -0.01855490      0.02067890       1
H              17.51740000      4.27611000      4.41969000     -0.00099302      0.00428206      0.01760160       1
O              20.77530000     17.65160000     23.31380000     -0.03801930     -0.00429829     -0.04259280       8
H              21.98480000     16.72670000     22.25390000     -0.00152463      0.00075639      0.01608520       1
H              19.27610000     17.77870000     22.07860000      0.02740020      0.00051761      0.02378390       1
O              18.78510000     22.65570000      1.71577000     -0.02986970      0.09800520     -0.00958396       8
H              18.18530000      0.69229400      1.58904000      0.02911160     -0.08501250      0.01212450       1
H              18.71970000     22.20380000     -0.04658400     -0.00320517     -0.00572606      0.00100109       1
O               3.80892000      1.76298000     12.28210000     -0.00506651      0.00538432     -0.01457350       8
H               3.22832000      1.27161000     10.49920000      0.00789168      0.00754513      0.04859070       1
H               3.38491000      0.71242900     13.80670000     -0.00195740     -0.00499083     -0.03691910       1
O              16.69020000     23.02490000      6.55540000      0.01531600     -0.02307500     -0.01388580       8
H              16.31320000      0.65597300      6.55151000     -0.00890286      0.02511100     -0.00013085       1
H              17.10980000     22.57070000      4.78852000     -0.00251509      0.00107740      0.01351760       1
O              12.13210000     18.34180000      3.51327000     -0.02431880     -0.00109261      0.00806164       8
H              14.02080000     18.14780000      3.85811000     -0.05282080     -0.02222220     -0.01772380       1
H              10.57090000     17.00640000      3.31131000      0.06136450      0.02555330      0.00114485       1
O              -0.09364000     20.67610000      2.72702000     -0.03700360      0.02648200     -0.00615070       8
H               0.47713200     22.46040000      2.57101000     -0.01211810     -0.03260450      0.00494095       1
H              22.07510000     20.72070000      2.61237000      0.05093580      0.00240331      0.00038594       1
O              15.40450000     11.31820000      5.68150000      0.05527660      0.04703860     -0.07860610       8
H              16.49550000     12.42280000      3.37972000     -0.04660430     -0.02450830      0.08299550       1
H              14.39490000     10.03640000      4.95786000     -0.01906870     -0.01232920     -0.00938969       1
O               2.01256000     13.38190000     11.75910000      0.05056180      0.00862608     -0.03500210       8
H               3.45955000     14.68380000     11.19560000     -0.03752740     -0.03016040      0.01626960       1
H               0.80043500     14.23370000     12.73940000     -0.00961516      0.02515140      0.02215870       1
O              20.52840000     23.58130000     13.98540000     -0.02828300      0.09458800      0.07644850       8
H              19.89920000      1.49770000     14.66340000      0.02864840     -0.10017200     -0.02961910       1
H              20.61260000     23.74920000     12.25100000      0.00472960     -0.00452142     -0.04929500       1
O              20.54990000      3.56304000     17.38960000     -0.12586100      0.04102510      0.03132190       8
H              18.81820000      4.98200000     17.25950000      0.09230300     -0.05600920     -0.00177553       1
H              21.85210000      3.90596000     16.20510000      0.02154170      0.02296230     -0.02086850       1
O              21.70990000     22.10590000      8.70426000     -0.04940750      0.09703990     -0.01442040       8
H              21.52570000     20.35500000      8.42148000     -0.01914090     -0.01545700     -0.01541040       1
H              20.08420000     23.37520000      7.80728000      0.06370240     -0.08188960      0.03245150       1
O               3.60013000      0.66951000      2.67729000      0.01763160      0.00537934     -0.02495110       8
H               5.39756000      1.07602000      2.58446000     -0.00311769      0.00158173      0.02651750       1
H               3.34222000      0.98681200      0.87407400     -0.02169020     -0.00514522      0.00664638       1
O               8.62606000     12.52030000      7.40768000      0.03032530      0.04554520      0.03017690       8
H               8.88718000     10.80290000      6.97028000      0.00867906     -0.01557180     -0.00021236       1
H              10.07330000     13.21480000      8.52282000     -0.02873810     -0.02710220     -0.03571590       1
O              12.04530000      6.97368000      8.35506000      0.01205040      0.00502367      0.00124972       8
H              11.86300000      5.13795000      8.22458000     -0.01394360      0.01331960      0.01579820       1
H              11.58550000      7.65644000     10.00730000     -0.00071885     -0.01993400     -0.01175990       1
O              13.71650000     20.26750000      9.95737000     -0.04262830     -0.01125000     -0.01322540       8
H              12.02450000     19.86060000      9.10444000      0.05476240      0.01326750      0.02020270       1
H              14.86810000     21.09700000      8.77367000     -0.01397590     -0.00447775     -0.00030497       1
O              11.85570000     14.63820000     11.54370000     -0.08916380     -0.08105530      0.02357040       8
H              11.98600000     12.69530000     11.32570000      0.01286810      0.05234100      0.00879705       1
H              10.02640000     14.41490000     12.55270000      0.07670010      0.02406710     -0.02577300       1
O              19.53230000     17.18590000      7.10239000     -0.00639027     -0.06245130      0.04337120       8
H              18.42380000     16.89570000      8.69181000      0.02605890      0.00630542     -0.03794280       1
H              20.53140000     15.50920000      7.04351000     -0.01899780      0.05470570      0.00197614       1
O              19.53390000     18.55710000     15.31550000      0.00694235     -0.03387170      0.06604750       8
H              19.35820000     18.40020000     17.28440000     -0.00925866     -0.00669355     -0.05722680       1
H              19.43900000     20.30710000     15.13210000     -0.00307942      0.04103290     -0.01421000       1
O               7.12265000     12.52870000     21.95170000     -0.06483360     -0.01389450      0.00711365       8
H               5.55793000     11.49000000     21.55070000      0.04079990      0.01286300     -0.00163719       1
H               6.18298000     13.70590000     23.03190000      0.02217970     -0.00089425     -0.00411386       1
O              10.56180000      2.01791000      9.35468000     -0.00871610     -0.07443890      0.00700747       8
H               9.13973000      2.43392000     10.41320000     -0.00166877      0.01162490      0.00256400       1
H              10.53410000      0.04293500      9.61470000      0.00620337      0.06076840     -0.02211800       1
O               2.66384000     22.85780000     16.21090000     -0.03599180     -0.04470580     -0.05763640       8
H               2.80607000     -0.22654700     17.56410000      0.01157280      0.04486490      0.07008130       1
H               0.83221600     22.51390000     16.15010000      0.02122880      0.00045405     -0.00568994       1
O               9.60057000      0.15425700     17.64910000     -0.03370240      0.00943431     -0.00218695       8
H               8.34021000     23.15530000     18.46310000      0.01225670      0.00991166     -0.00761678       1
H               8.57856000      1.45544000     16.74970000      0.01919350     -0.01878560      0.00541873       1
O               9.27187000     13.27380000     16.47570000      0.03539510     -0.00041859      0.00272249       8
H               7.84642000     14.37990000     16.63340000      0.00167662      0.00509244      0.00845149       1
H              10.76480000     13.89040000     17.50230000     -0.03838490     -0.00329000     -0.01166890       1
O              23.33300000      8.70855000     10.45840000      0.00304393      0.05248910      0.03340020       8
H              -0.22256200     10.35720000     11.46620000     -0.00328939     -0.06206070     -0.03603610       1
H              23.60600000      7.20689000     11.52060000      0.00058430      0.01779580     -0.00081692       1
O              16.55390000     17.77380000     19.59530000      0.01850050      0.07153840     -0.00142692       8
H              15.48330000     16.27280000     19.70570000     -0.01540490      0.02581340     -0.00592350       1
H              15.94410000     19.86000000     19.28800000      0.01158720     -0.08238400      0.01182840       1
O               1.84380000      8.72055000     20.64090000      0.01470670     -0.03933270      0.04280590       8
H               1.60681000      9.86888000     19.34990000     -0.01329140      0.02757960     -0.02318060       1
H               0.45165300      8.63323000     21.84910000      0.00786656      0.00644338     -0.01814360       1
O              20.80940000     10.63620000     19.05780000     -0.01620200     -0.00421316     -0.01842850       8
H              19.63750000     10.80500000     17.54530000      0.03214570      0.01236290      0.02545970       1
H              21.59170000     12.23820000     19.49380000     -0.00956653     -0.00897538     -0.00558618       1
O               3.58076000     19.79400000      6.71320000     -0.07235060     -0.04666660     -0.05944240       8
H               1.65054000     18.69720000      6.52573000      0.07801130      0.03489190      0.01496290       1
H               3.72757000     19.83280000      4.76935000      0.00029870      0.00262357      0.04803890       1
O               0.76262200     15.05980000     20.77460000      0.02556680      0.02804110      0.02454490       8
H               2.17678000     16.04140000     21.67940000     -0.03294190     -0.03135090     -0.02775020       1
H               0.44093600     15.94510000     19.20470000      0.00800057     -0.00184596     -0.00768385       1
O               8.82753000     21.46390000      6.87195000     -0.02980360      0.03623590      0.02268470       8
H               7.06634000     21.08620000      6.51828000      0.01820250     -0.00666154      0.00105963       1
H              10.02200000     20.40280000      6.14326000      0.01450890     -0.02944560     -0.03077740       1
O               5.04509000     17.64050000     15.41470000      0.04754220      0.03054500     -0.02541160       8
H               5.71408000     18.86680000     16.62070000     -0.01366000     -0.01072170      0.00007908       1
H               6.08831000     18.17500000     13.87340000     -0.02976150     -0.02347490      0.02618590       1
O               8.37922000      3.95179000     13.72410000     -0.04495290      0.05554500     -0.00347186       8
H               6.51277000      4.01248000     13.35920000      0.02756880     -0.02290270      0.00186692       1
H               8.60255000      5.85683000     13.73650000      0.01743010     -0.03612010      0.00587822       1
O               0.09168500     16.50110000     15.59100000     -0.01873420      0.03354710     -0.02150200       8
H              22.64010000     17.62830000     15.04990000      0.04116780     -0.02808330      0.01586530       1
H               1.77918000     17.26210000     15.12460000     -0.02751940     -0.00644609      0.01108210       1
O              13.60800000      6.44219000      0.06828500     -0.00941205     -0.02624840     -0.01078930       8
H              14.60420000      7.54696000     23.06150000     -0.01145200     -0.00130493     -0.00472440       1
H              12.84840000      5.03469000     23.02400000      0.02028920      0.02494340      0.01363280       1
O               0.26758600      5.44226000     14.44070000      0.09044320      0.06210040      0.01084200       8
H               1.61977000      7.01001000     14.95340000     -0.06105260     -0.04494180     -0.00401827       1
H               1.76759000      4.58507000     13.72500000     -0.02230310     -0.02223660     -0.00633880       1
O              10.14340000     22.37150000      0.55543000     -0.04676560      0.01586080      0.07205500       8
H              10.67520000     20.75850000      1.34816000      0.00824222      0.01166060     -0.00533399       1
H               9.09528000     23.19890000      2.16347000      0.04769320     -0.02670920     -0.06824830       1
O               9.41589000      8.12598000      2.46251000      0.06236310     -0.04565860     -0.02822090       8
H               8.96441000      9.76857000      1.92804000     -0.00302463      0.01336100     -0.01160290       1
H              11.22320000      7.49152000      1.34749000     -0.05838660      0.03007740      0.03621440       1
O              18.61950000     10.85480000     14.46550000      0.07082650     -0.02614900     -0.06316150       8
H              17.77030000     12.22150000     13.55100000      0.00457833      0.00416821     -0.00021715       1
H              20.28750000     10.38770000     13.22850000     -0.07426100      0.02118350      0.05310690       1
O              16.48050000     23.02240000     19.65160000      0.01602190      0.07251650     -0.04051330       8
H              14.84580000     -0.11740700     19.72580000      0.02531800     -0.01452600      0.00130475       1
H              18.03070000      1.24076000     18.04770000     -0.03015760     -0.06592180      0.04087340       1
O               4.33611000      9.65170000     15.66300000      0.09509500      0.03383870     -0.04467230       8
H               3.81079000     11.16120000     14.63140000      0.00174898     -0.02412810      0.01457750       1
H               6.56026000      9.85159000     15.23480000     -0.10400800     -0.01267800      0.02533380       1
O              13.13520000     13.88020000     20.24070000      0.02365210     -0.02274970     -0.00109033       8
H              12.75400000     14.14140000     21.98930000     -0.00883715      0.00380968      0.00210717       1
H              14.23980000     12.36000000     20.30210000     -0.01233410      0.01692120     -0.00032501       1
O              10.72220000      8.85309000     13.89950000     -0.00485872      0.06456420      0.06050140       8
H              10.65260000     10.24160000     15.47120000     -0.01687820     -0.04257540     -0.06566450       1
H              12.44810000      8.38379000     14.26960000      0.00625773     -0.01637790     -0.00352180       1
O              16.80010000     16.18240000      2.70632000      0.02929510     -0.02735350      0.01275950       8
H              17.71070000     15.89480000      4.37315000     -0.01095130      0.02126890     -0.03286480       1
H              18.11910000     16.50870000      1.39245000     -0.00924318     -0.00214066      0.02277290       1
O              23.69130000     11.43080000      2.97519000     -0.06417920     -0.01968390      0.01624670       8
H              21.15210000     10.48530000      3.72189000      0.09894910      0.00761466     -0.01396770       1
H               0.94709700     10.14900000      2.63690000     -0.03822930      0.00618660      0.01588940       1
O               0.58623200     15.27240000      6.49625000     -0.01832040     -0.04925310      0.03992500       8
H               0.42319600     14.20650000      8.13618000      0.01482610      0.03506140     -0.04379690       1
H               0.21770500     13.95930000      5.18586000      0.00779284      0.01060040      0.00104776       1
O               2.98326000      1.34906000     21.63660000      0.02175160      0.01346430     -0.00840621       8
H               4.21694000      2.79440000     21.73380000     -0.00166531     -0.01253450      0.00695635       1
H               1.53231000      2.24287000     21.07550000     -0.01707820      0.00098626      0.00200510       1
O               8.04917000     15.34110000      2.76766000      0.00281312      0.00801266      0.01859990       8
H               6.36830000     16.21810000      2.80492000      0.02648290     -0.02111440      0.00776345       1
H               8.57701000     14.51450000      4.38361000     -0.02984660      0.00674634     -0.01704110       1
O              22.49190000      5.54162000     23.14860000     -0.02608440     -0.02152830      0.00812148       8
H              21.31460000      4.82408000      0.28182700      0.01511790      0.01275350      0.00876483       1
H              21.64870000      4.84697000     21.70390000      0.00830344      0.00530300     -0.01601200       1
O               2.77896000      7.27791000      4.98451000     -0.02652990     -0.10149300     -0.03375300       8
H               1.84100000      5.12597000      4.92066000      0.04191690      0.10890400      0.01743510       1
H               2.39347000      8.14439000      6.50079000     -0.01442490     -0.00736775      0.01713650       1
O              15.11280000      7.25674000     15.49900000      0.00785947     -0.01457890      0.01386760       8
H              14.97340000      5.45025000     15.22680000     -0.01590450     -0.01094220     -0.00732624       1
H              16.49090000      7.70585000     14.43790000      0.01166850      0.01845240     -0.00606819       1
O               1.17843000      1.83867000      7.49719000     -0.00165997     -0.00227874      0.02460030       8
H               1.94061000      1.03429000      6.06082000     -0.00069336     -0.00923658     -0.00097463       1
H               0.33438200      0.55020400      8.55053000      0.00163585      0.00397821     -0.02727080       1
O              12.38070000      2.29643000     21.51510000      0.05036370      0.01581140      0.04113420       8
H              10.99980000      2.33447000     20.38790000     -0.02651970     -0.01847280      0.00274563       1
H              12.32890000      1.54352000     23.24250000     -0.02550990     -0.00349995     -0.03961620       1
O               6.31015000     20.89000000     21.18170000     -0.02015390      0.07609310      0.00281249       8
H               7.79333000     21.38020000     22.12380000      0.02076450     -0.01112740      0.00973993       1
H               5.50128000     22.69010000     21.39180000      0.00387318     -0.06004460     -0.01200910       1
O               3.99430000     17.66890000      0.33220200     -0.02053980     -0.01324400      0.00652927       8
H               2.17217000     18.07930000      0.07105600      0.03526230      0.01255860      0.01558030       1
H               5.17350000     18.89300000     23.73490000     -0.02081640      0.00365746     -0.01133950       1
O              19.75950000      8.67998000      6.30133000      0.05166480     -0.00054338     -0.00425376       8
H              20.62780000      9.67190000      7.62921000     -0.02144230     -0.01335110     -0.01582960       1
H              18.03640000      9.05017000      5.96085000     -0.01993500      0.02439400      0.01396410       1
O               8.42549000      2.53317000      3.54818000      0.01474670      0.02219320      0.03694170       8
H               8.98586000      2.47548000      5.35885000     -0.01121700     -0.00874793     -0.02944010       1
H               8.35298000      4.37075000      3.28337000     -0.00074290     -0.01138920     -0.00319745       1
O              15.86900000      9.27613000     20.53910000      0.08532510     -0.03016830      0.00698663       8
H              17.88910000      8.67325000     20.50280000     -0.07473320      0.04131420      0.00470271       1
H              15.38510000      8.81535000     18.85840000     -0.00680873     -0.00777438     -0.01093930       1
O               6.11606000     16.69320000     10.35040000      0.02688760     -0.02371800     -0.09445220       8
H               5.39161000     18.03870000      8.65850000      0.01949620     -0.05163480      0.05273440       1
H               7.42048000     15.16530000      9.41682000     -0.06976720      0.07320650      0.03440340       1
O              16.84160000      4.52822000      8.28407000      0.05616890      0.04238390      0.03798170       8
H              15.27030000      5.56675000      8.78246000      0.04213080     -0.00616817     -0.01265680       1
H              18.82730000      5.57871000      8.82291000     -0.09874670     -0.03735630     -0.02918800       1
O              11.89820000     19.19790000     15.71380000     -0.00873549      0.01661890      0.00470292       8
H              11.31130000     20.78600000     16.64130000      0.02503090     -0.03288220     -0.04673140       1
H              12.58820000     19.35400000     13.95950000     -0.01656930      0.01925390      0.03736390       1
O              17.14210000     15.31820000     11.90620000     -0.04338720      0.00770634     -0.00197804       8
H              17.58810000     16.42650000     13.24380000      0.03257730      0.01479310      0.01981820       1
H              15.34390000     15.88850000     11.99240000      0.01431540     -0.02212620     -0.01951610       1
O              14.20010000      2.53457000     13.23360000      0.00136043     -0.00809050     -0.06589000       8
H              12.23670000      2.01958000     12.91180000      0.08590520      0.02260480     -0.00347767       1
H              15.53420000      2.55945000     11.31570000     -0.07318390     -0.00382326      0.07610960       1
