192
TotEnergy=-1102.82408000 cutoff=-1.00000000 nneightol=1.20000000 pbc="T T T" Lattice="23.22965000       0.00000000       0.00000000      -0.00000100      23.22965000       0.00000000      -0.00000100      -0.00000100      23.22965000" Properties=species:S:1:pos:R:3:force:R:3:Z:I:1
O               4.32248000      7.93365000      1.59714000      0.02356130     -0.01784840     -0.02404070       8
H               2.77689000      8.88945000      1.55901000     -0.00481909      0.01028990     -0.00442098       1
H               4.61013000      7.75607000      3.34969000      0.01005980     -0.00232083      0.01404690       1
O              22.14070000     20.98400000      9.36634000     -0.08642050      0.07564580     -0.10793700       8
H              -0.09865700     20.10860000     10.28410000      0.10981800     -0.09881370      0.09170720       1
H              21.19910000     21.83630000     10.60740000     -0.01249120      0.02780610      0.01683720       1
O               8.78309000     10.14820000      5.29400000     -0.07000890     -0.02078650     -0.00113325       8
H               8.41093000      8.35656000      5.46835000      0.00610603      0.01635680      0.00598227       1
H              10.50550000     10.32820000      5.39942000      0.04902400      0.00112672     -0.00664942       1
O              14.65180000     19.82620000     11.47480000      0.02651490     -0.03128050      0.00359796       8
H              15.51510000     18.38320000     10.59150000     -0.01514740      0.03864450      0.00604434       1
H              15.74800000     19.98750000     12.98390000     -0.01492700     -0.00307419     -0.00646216       1
O               7.04310000     16.15450000     22.62670000     -0.00616636      0.04482530     -0.02110180       8
H               7.00428000     17.18610000     21.02490000     -0.00142374     -0.01362240      0.03806000       1
H               6.57561000     17.44090000      0.74432300      0.00983597     -0.03566930     -0.01514770       1
O              14.45530000     10.15720000      9.90030000      0.01592240     -0.02479590     -0.03144640       8
H              14.78400000     11.87920000     10.23800000     -0.00621519      0.01279280      0.01525550       1
H              13.00190000      9.34057000     10.66700000     -0.00282643      0.01388670      0.00266879       1
O              22.32590000      5.14023000     11.69020000     -0.01467370      0.01700640      0.05373300       8
H              -0.21551400      6.04075000     13.25130000     -0.00523245     -0.04297540     -0.03711590       1
H              21.16240000      3.67848000     12.32320000      0.03142750      0.03366800     -0.02029020       1
O               1.79101000     18.71760000     13.37030000     -0.01869840     -0.02923230      0.00666877       8
H               1.92653000     16.89330000     13.14370000     -0.00309848      0.01301050     -0.00010886       1
H               3.35707000     19.33240000     12.78610000      0.02575030      0.01085880     -0.01165850       1
O              11.27250000     15.93750000      4.42120000      0.02654100     -0.01979350      0.04978150       8
H              12.07710000     14.31780000      4.91477000     -0.01404940      0.02775780     -0.01560400       1
H              10.46840000     15.66050000      2.90972000     -0.02166360     -0.01234750     -0.03692580       1
O               1.00492000      0.27900500      4.88486000     -0.00956661     -0.04079980      0.05449410       8
H               0.53666800     22.50830000      6.54290000      0.00516230      0.03295430     -0.05303380       1
H              -0.03104200      1.78252000      4.99671000      0.00944938     -0.00620237      0.00234998       1
O              16.81750000     14.04560000     12.66730000     -0.05252990      0.03109450      0.04017590       8
H              17.42310000     15.16930000     11.41540000      0.01171150      0.01008390     -0.00666669       1
H              15.52850000     15.18820000     13.71760000      0.04577300     -0.04514550     -0.03456990       1
O              10.38960000      0.90905200      4.11790000     -0.01077420     -0.12105400      0.05149630       8
H              11.77710000     22.81030000      4.75359000     -0.04520180      0.03257350     -0.01549710       1
H              11.39410000      2.10234000      3.50828000      0.05218240      0.08480630     -0.03033740       1
O               5.52598000     17.08770000      4.19798000     -0.05368380      0.15581100     -0.08629980       8
H               5.80005000     18.84960000      4.88337000     -0.00017102     -0.04460680      0.00119871       1
H               6.16005000     15.83520000      5.05038000      0.05277880     -0.08629310      0.07734030       1
O              20.85850000     10.12850000     14.51570000      0.20987300     -0.11528100     -0.00159258       8
H              21.20090000      8.42747000     13.48100000     -0.01872180      0.06018400      0.03921310       1
H              19.37350000     10.51350000     14.16440000     -0.19825700      0.05509950     -0.04723690       1
O               4.76875000     19.68550000     19.24110000     -0.00561584     -0.00949480     -0.00597818       8
H               3.60584000     18.63130000     18.30800000     -0.00400951     -0.00088098     -0.00405416       1
H               5.28899000     20.94460000     17.99420000      0.00489672     -0.00712032      0.00415298       1
O               3.85473000     13.29670000      6.40742000      0.05292230     -0.07620450     -0.00991759       8
H               5.37469000     12.11360000      6.91578000     -0.03512310      0.03604010     -0.02294900       1
H               3.34115000     13.70680000      8.02834000     -0.01987330      0.01657140      0.03656640       1
O              18.90840000      2.72647000     17.61150000     -0.00321012      0.06982210     -0.04356890       8
H              18.15730000      4.42091000     17.03050000      0.01949620     -0.04641450      0.00965450       1
H              17.74800000      2.17466000     18.80340000     -0.02316120     -0.01769650      0.02774740       1
O              15.57400000      1.52963000     21.79280000     -0.02095970      0.04216510     -0.04287250       8
H              16.00970000      0.12683200     22.75860000      0.00810092     -0.03236050      0.00945277       1
H              14.76020000      1.16799000     20.14620000      0.00643998     -0.01097970      0.02996450       1
O              18.63250000      8.11222000      8.27161000     -0.00477079     -0.01195500      0.01568230       8
H              19.20080000      7.52027000      9.99480000     -0.01520260      0.00971076     -0.03814270       1
H              16.78680000      8.58499000      8.34786000      0.02587060      0.00168261      0.02220170       1
O              13.09540000      5.20453000      2.93147000     -0.07136890      0.02436120      0.01631920       8
H              14.52160000      4.72209000      3.79552000      0.05266030     -0.01931180      0.02731530       1
H              13.27180000      4.97998000      1.23172000      0.01629420     -0.00519482     -0.04701980       1
O               9.55062000     13.00830000     18.64380000     -0.07095900     -0.03734530      0.03018400       8
H               8.67223000     11.40890000     19.40270000      0.03757660      0.03680190     -0.01937430       1
H               8.45582000     14.29340000     19.46020000      0.02600420     -0.01340960     -0.01055620       1
O              19.93330000     13.31750000     18.61330000      0.04929370     -0.04618960     -0.01176690       8
H              20.52100000     11.61530000     17.90100000     -0.00620351      0.04412290      0.01446020       1
H              18.19690000     13.04250000     18.67120000     -0.04056360     -0.00032280      0.00108405       1
O              21.80100000     18.11680000     17.43090000     -0.11458200     -0.01250020      0.16379100       8
H              21.64330000     16.36680000     17.45300000     -0.01460470     -0.03858860      0.00486420       1
H              22.74990000     18.43780000     16.22130000      0.12820700      0.05642890     -0.16366300       1
O              20.46420000      6.22164000     21.53560000      0.05581380      0.08495230      0.02457000       8
H              21.41530000      7.12732000     20.17140000     -0.00815652     -0.00804597      0.02574000       1
H              19.75540000      4.95050000     20.70360000     -0.04017610     -0.07726980     -0.04782330       1
O              11.91650000     15.64890000     14.65940000     -0.01544280     -0.05682760     -0.00020780       8
H              12.53220000     17.26900000     14.69690000      0.01578110      0.04896860     -0.01318150       1
H              11.65650000     15.09240000     12.91180000     -0.00821409      0.01400370     -0.00170692       1
O               0.74954100      9.98383000      3.18347000      0.08636910     -0.00759423      0.05249030       8
H              22.45770000     10.62240000      3.43733000     -0.10169800      0.03815250     -0.00411636       1
H               1.68738000     10.78170000      4.68625000     -0.00626124     -0.00847621     -0.03316240       1
O              14.44460000     12.85420000     19.69430000      0.05579160      0.02346810      0.00830367       8
H              12.98820000     12.68240000     18.80070000     -0.05164640     -0.01179410     -0.03620920       1
H              14.51130000     14.68670000     19.89530000      0.00440554     -0.01856740      0.01392700       1
O               5.70655000      3.01221000     20.45880000      0.00526192      0.02575990      0.03880740       8
H               3.95112000      3.19394000     21.25330000      0.02598890      0.00778242     -0.00824057       1
H               6.87400000      4.18224000     21.48670000     -0.04113140     -0.02221720     -0.03117310       1
O               1.93290000      3.89705000      0.22520300     -0.02670520      0.04713490      0.00124707       8
H               2.98313000      5.55639000      0.80493400     -0.01923510     -0.03758340     -0.00997538       1
H               0.17768300      4.61372000     23.02020000      0.04521520     -0.01320500      0.00242164       1
O              16.94110000     19.66400000     15.85990000      0.00789430     -0.01409240      0.04757900       8
H              18.72620000     19.86010000     16.34370000     -0.00806507     -0.00737627     -0.00610029       1
H              16.25730000     18.74030000     17.37240000      0.00725106      0.02275980     -0.03454920       1
O               1.21090000      9.26439000     18.66730000     -0.01850740     -0.02462700     -0.01447600       8
H               1.93633000     10.71510000     19.60400000     -0.00243673     -0.02641270      0.00349579       1
H               2.41501000      8.27491000     17.74600000      0.00338585     -0.00329935      0.00240564       1
O               5.83425000     22.22590000      6.83447000      0.02159120      0.00950234     -0.03092250       8
H               7.09087000     22.98220000      5.62523000     -0.01935850     -0.00863142      0.02364200       1
H               4.18858000     22.82030000      6.25173000      0.00424673      0.00333287     -0.00075601       1
O               9.71119000     23.27530000     21.53360000      0.07137120     -0.04260880     -0.01129460       8
H               8.14955000      0.71982500     21.34270000     -0.06173750      0.03222010     -0.00153669       1
H              10.64680000     24.01530000     -0.36926900     -0.00266732      0.00199637      0.01812810       1
O              20.28900000     13.02300000      1.45650000     -0.02972490     -0.16983300      0.12263800       8
H              19.47250000     13.10920000     23.30810000     -0.08608070      0.00552201     -0.14590200       1
H              21.13510000     14.34020000      1.63467000      0.11518200      0.16726800      0.01514940       1
O               0.60749100     17.02310000      0.99967000      0.02806150     -0.00898686     -0.00472318       8
H               2.24838000     16.78190000      1.87731000     -0.01863180      0.00705335     -0.00239297       1
H               0.92052700     18.26190000     22.90880000     -0.00995338     -0.00554840      0.01490270       1
O              13.29400000     10.84930000      3.64446000      0.05205950      0.02103360      0.20197400       8
H              14.65690000      9.70565000      4.57878000     -0.05434730      0.04629380     -0.02497340       1
H              13.53010000     10.22220000      2.19653000      0.01446360     -0.06569670     -0.17707000       1
O              18.07670000     18.44450000      7.77542000      0.03774910      0.02384800      0.01473300       8
H              18.24430000     16.54640000      7.62805000      0.01139450      0.04359270     -0.00541499       1
H              19.80860000     19.52620000      7.98903000     -0.05112610     -0.04896580     -0.00150329       1
O               5.36048000      7.24964000      8.22620000     -0.02456620     -0.06507740     -0.02357310       8
H               3.88258000      6.69962000      7.07000000      0.03930760      0.00991938      0.03426070       1
H               6.02001000      5.48954000      8.70432000     -0.01090440      0.04695180     -0.00670471       1
O               7.43963000     11.69110000     14.16280000     -0.06895210      0.02742720      0.05284850       8
H               5.71116000     12.73660000     14.93730000      0.02539800     -0.03233710     -0.01685020       1
H               8.88002000     12.36830000     15.15600000     -0.00198226      0.00912892     -0.00660577       1
O               0.59436000      0.66827300     16.99360000      0.00111965     -0.00824433      0.03102970       8
H              -0.87586900      1.70791000     17.26900000      0.01096960     -0.00425997     -0.00375734       1
H               0.66618000     22.75210000     20.22470000     -0.01513670      0.03286430     -0.06641060       1
O              13.38620000     20.20350000      5.77917000     -0.28603600      0.07155460     -0.10615100       8
H              14.57700000     19.68240000      6.56812000      0.22539000     -0.09186130      0.14971100       1
H              11.78300000     19.25930000      6.63916000      0.06634110      0.03037980     -0.04207280       1
O              14.75810000     16.01970000     23.24060000     -0.10112300     -0.05518340      0.01349990       8
H              12.88600000     16.42710000     22.87460000      0.06379840     -0.00343478      0.01226540       1
H              15.75350000     17.29600000     22.75820000      0.04286590      0.07357370     -0.01613980       1
O               2.67350000     12.88280000     20.66050000      0.00966860      0.05204570      0.03506640       8
H               1.61292000     13.90840000     21.84490000      0.01483550     -0.01229930     -0.01474190       1
H               4.39239000     12.89820000     21.29280000     -0.00937923      0.00631351      0.00622773       1
O              10.94100000      8.35833000     12.44450000      0.02422220      0.07672600     -0.07377640       8
H              10.84950000      7.08508000     13.47620000     -0.01192150     -0.10277100      0.07676270       1
H               9.54666000      9.41180000     12.61360000     -0.02148770      0.00596895     -0.00065741       1
O               8.81834000      7.75686000     21.56470000      0.00427589     -0.04364900     -0.05907230       8
H              10.19820000      6.53016000     21.62020000     -0.00747663      0.02812690     -0.00068789       1
H               8.77012000      8.49266000     23.12060000     -0.00114801      0.02293630      0.05759690       1
O              15.27770000      8.22624000     15.91680000      0.05488570      0.10022800     -0.06975900       8
H              14.61510000      9.01609000     14.27050000      0.01276940     -0.03262260      0.05104350       1
H              14.37750000      6.94638000     16.51490000     -0.06330400     -0.07061880      0.01931700       1
O              12.21190000      3.26735000     17.30080000     -0.04370710     -0.03120890      0.02847610       8
H              11.57000000      3.43312000     19.11360000      0.01202400     -0.00961907     -0.05265320       1
H              11.00200000      1.90469000     16.54880000      0.03261930      0.04242330      0.02521440       1
O              22.82400000     13.32880000     10.23270000      0.02222650      0.16206100     -0.13914400       8
H              21.91550000     13.62180000      8.47871000      0.02918780     -0.02138650      0.07248810       1
H              22.44850000     11.97680000     11.02280000     -0.05364570     -0.13532300      0.06762940       1
O               9.23361000      3.13442000     10.88990000      0.10193300      0.24149200      0.08595720       8
H              10.98310000      2.90540000     10.44320000      0.00822775      0.00551544      0.00473403       1
H               8.66944000      1.81003000     10.40740000     -0.11900100     -0.24736400     -0.08657080       1
O              14.02290000      8.45187000     21.86960000      0.02222680     -0.03859880     -0.00145631       8
H              15.27600000      7.14708000     21.42730000     -0.01310540      0.02015020      0.00881703       1
H              14.54710000      9.89716000     20.90050000     -0.00029766      0.01162170     -0.00210322       1
O              19.96480000      1.91238000      2.12203000     -0.07099540      0.02558490      0.04484180       8
H              21.25610000      1.76160000      1.06451000      0.07909570     -0.02947010     -0.05359850       1
H              19.63400000      3.66343000      1.80709000     -0.00889516      0.00666520     -0.00299354       1
O               4.39472000      5.05815000     15.01570000     -0.03594210     -0.02969810      0.07634180       8
H               4.94170000      4.05952000     16.60560000     -0.01552680      0.03248740     -0.04927520       1
H               5.78755000      5.48714000     14.09620000      0.04908000      0.00674904     -0.02686020       1
O               6.61247000     19.45630000     11.22530000     -0.00866227      0.00318053      0.03098550       8
H               6.97636000     19.67040000      9.49481000      0.00074631      0.00341964     -0.01811190       1
H               7.82949000     18.30490000     11.88850000      0.00576913     -0.00863851     -0.00725526       1
O              13.98140000      1.37467000      9.90050000     -0.10741500      0.16824600     -0.05015340       8
H              14.41040000      1.61551000      8.19989000      0.00796676      0.00540294     -0.02461150       1
H              14.81610000     23.37610000     10.42200000      0.09012710     -0.16858200      0.06745110       1
O               0.77466000      5.31307000      5.97375000     -0.00176378      0.03479410     -0.04166440       8
H               0.41670000      6.54825000      4.58243000      0.00470673     -0.02803020      0.01188020       1
H              23.88940000      6.52402000      7.27351000     -0.01270830     -0.00011417      0.03366100       1
O              19.37270000      1.22994000     12.21090000     -0.03478280     -0.03242830     -0.03086420       8
H              18.02600000      0.34497300     11.09060000      0.03801770      0.03344240      0.04610800       1
H              19.21070000      0.84863100     13.99240000     -0.00826734     -0.00621319     -0.00348591       1
O              16.88030000      3.76407000      5.71102000      0.01319150      0.05309800      0.04304020       8
H              18.18780000      3.30879000      4.55938000      0.00712815     -0.00964221      0.00745407       1
H              17.60560000      5.33363000      6.78945000     -0.01488290     -0.04861910     -0.03287410       1
O              12.20700000     19.19350000     18.74530000     -0.01340550      0.02979110      0.02416140       8
H              11.21270000     20.60670000     19.54060000      0.01964800     -0.01853360     -0.00922972       1
H              10.95590000     18.35390000     17.78820000     -0.00832512     -0.00946136     -0.00866173       1
O              18.19550000     14.28260000      6.05714000      0.00570183     -0.06215780      0.06365700       8
H              18.59620000     12.49060000      6.26291000     -0.00922754      0.01212100      0.00577543       1
H              18.34900000     14.44730000      4.36008000     -0.00154143      0.01287640     -0.07167820       1
O               8.95902000     14.44030000      9.68171000      0.05118020     -0.08889680     -0.01852490       8
H               7.26594000     12.19090000     12.39290000      0.02973950      0.02828730     -0.03783240       1
H              10.24860000     12.75310000      8.61358000     -0.06214110      0.07818240      0.05004030       1
O               7.48634000     23.43720000     16.78900000      0.05033360      0.01141700      0.18219100       8
H               6.75838000      0.02185000     15.40480000     -0.08110240     -0.02211720     -0.19801100       1
H               5.97556000      0.58319900     17.84240000      0.03048970      0.01975180     -0.00364290       1
O              18.43230000     19.28020000      2.08642000     -0.02849620     -0.01952560      0.05278860       8
H              19.67360000     17.89040000      2.58576000     -0.03881520      0.04618620     -0.00414967       1
H              16.94860000     19.47910000      3.51879000      0.07006870     -0.01994870     -0.05436010       1
O               1.47053000     21.96940000     21.65660000      0.07397880     -0.00893510      0.07582780       8
H               3.03443000     20.83600000     20.83080000     -0.02109070      0.02324790     -0.00139755       1
H               2.40718000      0.07680100     22.80730000     -0.03928330     -0.02939820     -0.03076520       1
O               2.44539000     13.33170000     15.27520000      0.08177490      0.11488400      0.17715900       8
H               2.18481000     12.59370000     17.20840000      0.00327728      0.03236660     -0.07507760       1
H               1.96735000     12.11340000     14.37830000     -0.06733330     -0.14487800     -0.10893400       1
