192
TotEnergy=-1103.44551000 cutoff=-1.00000000 nneightol=1.20000000 pbc="T T T" Lattice="23.41937000       0.00000000       0.00000000      -0.00000100      23.41937000       0.00000000      -0.00000100      -0.00000100      23.41937000" Properties=species:S:1:pos:R:3:force:R:3:Z:I:1
O               7.49166000      9.64902000     23.11200000      0.00491349     -0.00077557     -0.00162769       8
H               6.10485000     10.70560000     22.56360000      0.00135732      0.00040276      0.00347248       1
H               6.80146000      8.03327000     23.57780000      0.00006544      0.00406321     -0.00087813       1
O               0.48976100     17.59450000     16.96970000     -0.00452578      0.00172568     -0.00097828       8
H              22.32830000     17.91190000     17.83750000      0.00333624     -0.00519567      0.00674735       1
H               0.31020900     15.96280000     16.18390000      0.00204671      0.00449220     -0.00300328       1
O               7.29353000     16.49340000     16.98110000      0.00483637      0.00212514     -0.00604191       8
H               6.04537000     15.29430000     16.27130000     -0.00863169     -0.00743383      0.00286135       1
H               7.19094000     16.56840000     18.82830000     -0.00784758     -0.00276832      0.00226857       1
O              22.91360000      0.53548300      5.96411000     -0.02191630      0.00669318      0.02702760       8
H              23.22950000      1.39678000      7.55464000     -0.00360784      0.00166432     -0.00222923       1
H              22.31290000     22.17220000      6.31768000      0.01766690     -0.01114900     -0.00119286       1
O              12.02070000     14.75810000     16.92190000      0.00435105      0.00103880      0.01036410       8
H              11.97120000     13.52390000     18.27550000      0.00515745     -0.00076279     -0.00087701       1
H              10.35790000     15.53100000     16.88930000     -0.00460549     -0.00668150     -0.00395514       1
O               1.91567000      9.21642000     17.74480000     -0.00870232      0.00267741      0.00611360       8
H               0.10639400      9.29110000     17.42160000      0.00109492     -0.00052580      0.00176968       1
H               2.06360000      9.73312000     19.49690000      0.00260321      0.00013598     -0.00948729       1
O               9.71971000     21.49480000     19.86180000      0.04261980     -0.02196840     -0.01362330       8
H              11.38260000     20.62310000     19.32250000     -0.03486180      0.02109030      0.00795955       1
H               8.40038000     20.30540000     19.50950000     -0.00513149      0.00340018      0.00076981       1
O              21.86690000     11.28110000      2.04081000     -0.01493140     -0.00874494     -0.00852366       8
H              21.56420000      9.45745000      1.59441000      0.00082828      0.01684970     -0.00189947       1
H              20.82650000     11.57430000      3.57293000     -0.00324217      0.00337811     -0.00080383       1
O               7.86268000     15.55230000     21.88100000      0.00926264     -0.00019120      0.00223752       8
H               7.37317000     15.89930000     23.60440000     -0.00416309      0.00668725     -0.00823294       1
H               9.67797000     15.42630000     21.95720000      0.00219565     -0.00204893      0.00563563       1
O              17.47110000     16.06290000      9.10195000      0.00541093      0.00247427     -0.00512826       8
H              16.32290000     15.51120000     10.40370000     -0.00343566     -0.00190113     -0.00353174       1
H              16.36600000     16.81890000      7.78859000     -0.00124597      0.00396002     -0.00039389       1
O              15.52380000     20.67140000     12.77790000      0.00131078     -0.00514282      0.00068495       8
H              17.27800000     20.44630000     12.29770000     -0.00405999      0.00461302      0.00211154       1
H              14.62270000     19.36410000     11.90220000      0.00438020      0.00207734     -0.00327809       1
O               5.11665000     22.35590000     10.45040000     -0.00851674     -0.00016415      0.00021063       8
H               6.27634000     21.76700000     11.74940000      0.00220082     -0.00436148     -0.00088578       1
H               5.81327000     21.96150000      8.82078000      0.00703755      0.00286770     -0.00147649       1
O               4.49054000     18.40520000      2.10510000      0.00023971     -0.00526447      0.00535446       8
H               5.19296000     19.83760000      2.98122000      0.00262116     -0.00340352     -0.00101425       1
H               4.45598000     17.08470000      3.40341000     -0.00929359      0.00628334     -0.00821076       1
O              21.60440000      5.75464000      0.52498100     -0.00004071     -0.00082619     -0.00128995       8
H              23.27940000      5.01991000      0.62004300     -0.00895903      0.00317208      0.00548342       1
H              20.40020000      4.42368000      0.90887200      0.00178604      0.00544526      0.00270854       1
O               4.99267000      1.75354000     16.24650000     -0.00233414     -0.00195451     -0.00414678       8
H               4.67331000     23.44030000     16.86740000      0.00372877      0.00268667     -0.00194708       1
H               3.47876000      2.25972000     15.35810000     -0.00049909     -0.00230403      0.00318460       1
O              12.96640000      7.27004000      7.00973000      0.00441891     -0.00337670     -0.00489924       8
H              11.93250000      7.92903000      5.66606000     -0.00267792      0.00342095      0.00591213       1
H              14.29260000      8.49970000      7.26034000     -0.00393917     -0.00342353      0.00192366       1
O               7.12176000      6.57235000      5.77573000      0.00264764     -0.03300280     -0.04598480       8
H               7.53064000      5.77579000      4.00795000     -0.01073610      0.02348780      0.05887940       1
H               3.79753000      3.54983000      3.12858000     -0.00682760     -0.00367067     -0.00143910       1
O              17.16890000     11.66510000      5.13244000      0.00540707      0.00785899      0.02186980       8
H              16.60870000     12.61820000      3.62556000      0.00206926      0.00354792      0.03635750       1
H              16.98900000     12.39860000      6.97461000      0.00194377     -0.01008850     -0.06915830       1
O               3.12844000      4.12521000      9.46048000      0.00527381     -0.00314539     -0.00768429       8
H               4.45370000      4.56965000      8.22050000     -0.00425913      0.00543267      0.00489122       1
H               3.15917000      2.31620000      9.63356000      0.01107970     -0.00153958      0.00484671       1
O              14.24580000      7.70628000      1.28505000      0.00215947      0.00210494      0.00450667       8
H              15.57900000      8.37706000      2.31417000     -0.00303939      0.00046567      0.00390826       1
H              14.12650000      8.88129000     23.30770000     -0.00029420      0.00257328     -0.00332742       1
O              19.92830000      5.16701000     18.68080000     -0.01437920     -0.00368110      0.00171897       8
H              19.98690000      5.34598000     20.50030000      0.00027641      0.00239050     -0.00769797       1
H              18.18210000      4.72675000     18.26850000      0.01504910     -0.00155702      0.00494110       1
O              13.02510000     10.71220000     20.68960000      0.00119748     -0.01801770     -0.03780160       8
H              11.40660000      9.86792000     20.87730000      0.00173413      0.00620852      0.00061456       1
H              13.71270000     10.02500000     19.02690000     -0.01241240      0.01150360      0.03062760       1
O              21.40720000     14.44170000     13.01140000     -0.00407646     -0.00010360      0.00584880       8
H              20.57130000     14.81100000     11.44270000     -0.00229011      0.00093746     -0.00016281       1
H              21.69590000     12.64790000     12.99100000      0.00603273     -0.00345997     -0.00554718       1
O              10.36310000      1.68205000     14.00670000      0.00247164     -0.00284145      0.00066987       8
H               8.81577000      2.02629000     14.91370000      0.00143073      0.00236454     -0.00260335       1
H              10.28350000      2.36398000     12.31610000     -0.00186303     -0.00236457      0.00034319       1
O              10.26500000     18.10650000      9.02499000     -0.00520234      0.00260664     -0.00260927       8
H               9.48759000     16.46130000      9.53568000      0.00665054     -0.01826850     -0.01195600       1
H              10.22290000     19.15190000     10.56400000      0.00289418     -0.00057164      0.00311497       1
O               2.13084000      9.29054000      7.09109000      0.00820244      0.01062050      0.02079540       8
H             -17.15030000    -19.91840000    -10.65920000     -0.01599950      0.01492430      0.00871410       1
H               2.68021000     10.62510000      5.99170000     -0.00154788     -0.00067089     -0.00520189       1
O               9.24344000     13.33030000      9.75196000     -0.00693784      0.00469066     -0.00094278       8
H               9.72792000     12.24110000      8.36535000      0.00542354      0.00688676     -0.00751010       1
H               7.42167000     12.64880000     10.03220000     -0.00123773     -0.00475581      0.01059080       1
O               9.59212000      4.56054000      1.70336000      0.01249990      0.00253399     -0.00446710       8
H              10.78430000      5.95476000      1.83437000     -0.00078362     -0.00773149     -0.00137205       1
H              10.40850000      3.12668000      2.50635000     -0.00545753      0.00534152     -0.01054500       1
O              20.59310000      6.24301000      6.38162000      0.01019550     -0.00186135     -0.00366840       8
H              20.15220000      5.31157000      4.88289000     -0.00114175      0.00185189      0.00444982       1
H              22.40800000      6.46922000      6.32672000     -0.00080172      0.00653218     -0.00076483       1
O               8.51540000     19.69560000     13.71510000     -0.00491552     -0.01558260      0.01582160       8
H               7.89927000     18.31160000     15.44860000      0.01175520      0.03312330     -0.03450270       1
H               9.40150000     21.21500000     14.23390000     -0.00304839     -0.00853778      0.00736078       1
O              23.28130000     21.98840000     22.96280000     -0.00986937      0.00038462     -0.00185835       8
H              -0.42095000     21.36970000      1.22186000      0.00425560     -0.00473021     -0.00073999       1
H              22.02280000     21.01630000     22.03700000      0.00347677      0.00176527     -0.00079146       1
O               4.13085000     14.27320000      5.18404000      0.00911993      0.01210560      0.00816607       8
H               4.06517000     15.12330000      6.84205000      0.00122882     -0.00990106     -0.00949066       1
H               5.91120000     14.15990000      4.78727000     -0.00311608     -0.00978021      0.00759645       1
O              14.45810000      9.08503000     15.86120000      0.00432801      0.00410646      0.00858908       8
H              14.71220000      7.34331000     15.39600000     -0.00379241     -0.00844603     -0.00071999       1
H              14.69410000     10.05570000     14.36490000     -0.00755423      0.00457507     -0.00227160       1
O              20.08540000     16.82410000      2.87040000     -0.00072232     -0.00189776     -0.00016682       8
H              20.59630000     17.76410000      4.32845000      0.00307028     -0.00248383      0.00040594       1
H              18.29180000     17.05470000      2.77276000     -0.00016317     -0.00083275     -0.00065441       1
O              19.50310000     17.99050000     20.61410000      0.00087330     -0.00465013     -0.00324098       8
H              18.35180000     18.18460000     19.22610000     -0.00673367      0.00350345      0.00099406       1
H              19.02990000     16.24940000     21.34190000      0.00387207      0.00286290      0.00202664       1
O              22.59040000     19.20620000      7.01185000     -0.00105225      0.00327941      0.00962577       8
H              21.22980000     18.65010000      8.10311000      0.00062174      0.00077317      0.00153890       1
H               0.71138500     18.66000000      7.87891000     -0.00824163     -0.00073687     -0.00459006       1
O              16.64960000      0.18012100      7.44560000      0.00413160      0.00266433      0.00402474       8
H              14.83840000      0.25696000      7.63010000     -0.00079322      0.00558445      0.00603683       1
H              16.97790000      1.46155000      6.20422000     -0.00051842     -0.00138932     -0.00952473       1
O              16.48740000     10.12770000     10.20110000      0.00180374     -0.00271470      0.00394577       8
H              15.89060000     11.28760000     11.48240000     -0.00061996      0.00150796     -0.00877635       1
H              17.51830000      8.85562000     10.96650000      0.00533582      0.00164337     -0.00132948       1
O               3.56481000     16.86860000      9.77907000     -0.00148129      0.00222483     -0.00074413       8
H               4.04662000     18.49510000     10.43500000      0.00194949      0.00134726      0.00290038       1
H               3.63813000     15.69910000     11.17300000     -0.00503862     -0.00094927     -0.00004037       1
O              14.18650000     18.51790000      5.79936000     -0.02121230     -0.00831251      0.02047910       8
H              14.84310000     20.20870000      6.01364000     -0.00239743     -0.00846682     -0.00093020       1
H              11.86000000     17.98060000      7.73331000      0.02209810      0.01664650     -0.00579254       1
O              16.72700000      3.12040000      2.66269000      0.00637285     -0.00166896      0.00714171       8
H              16.11760000      1.88008000      1.45954000      0.00060179     -0.00096685      0.00337625       1
H              15.31830000      4.11753000      3.23944000      0.00186394     -0.00008191     -0.00923664       1
O              18.17490000     13.50470000     22.30770000      0.01468540      0.00183827      0.00725788       8
H              17.96820000     12.74130000     20.66070000      0.00374403     -0.00187617      0.01320270       1
H              21.08670000     12.49490000     24.06540000     -0.02224250     -0.01259240      0.00175288       1
O              19.91100000     10.58990000     17.61170000      0.00115975     -0.00049232     -0.00627582       8
H              19.58060000     11.93290000     16.44430000      0.00161561      0.00471896     -0.00073025       1
H              18.62410000      9.36448000     17.24490000      0.00173452     -0.00225700      0.00264028       1
O              13.70210000     13.91570000     12.11870000      0.01003030      0.00308582      0.00242557       8
H              11.96270000     13.51420000     11.63250000     -0.00066130      0.00047241     -0.00122165       1
H              13.66090000     14.68640000     13.76300000     -0.00928143     -0.00547883      0.00483870       1
O               3.04209000      4.09885000     21.09680000     -0.00047020     -0.00097536      0.00332185       8
H               1.35113000      3.85304000     20.50800000     -0.00140810      0.00133961     -0.00440578       1
H               4.07526000      3.73164000     19.63930000      0.00140222     -0.00142889      0.00031481       1
O              15.73470000      4.17444000     14.75500000     -0.00220773      0.00517247     -0.00001361       8
H              16.78350000      4.83383000     13.41680000      0.00509598     -0.01105950     -0.00348267       1
H              14.75440000      2.82123000     14.04150000     -0.00036665     -0.00038034     -0.00258096       1
O              13.97590000      2.91795000     19.83630000     -0.01464310      0.01029020     -0.00919907       8
H              13.86600000      3.28299000     18.03070000     -0.00026524     -0.00522057      0.01771800       1
H              12.41510000      3.59613000     20.54640000      0.01341150     -0.00732186     -0.00369948       1
O              19.65000000      4.04071000     10.87420000     -0.00267464      0.00136706      0.00783584       8
H              18.71280000      2.68329000     10.10780000     -0.00161067     -0.00397189     -0.00037330       1
H              20.21860000      5.08201000      9.47715000     -0.00500914      0.00063484     -0.00308360       1
O              10.24350000     11.80220000      4.60747000     -0.00148675      0.00249096     -0.00117893       8
H               9.25922000     11.09830000      3.25050000     -0.00113333     -0.00478813     -0.00042930       1
H              11.62660000     12.66020000      3.79844000     -0.00016739      0.00372238     -0.00371953       1
O              15.78560000     21.97910000     23.08490000     -0.00278164     -0.00021397      0.00239983       8
H              16.71460000     20.50740000     22.54040000      0.00210354      0.00244585     -0.00167321       1
H              14.82310000     22.50750000     21.63730000      0.00345137      0.00097944     -0.00164818       1
O               2.19932000      2.69654000      2.79055000      0.00593781     -0.00429651      0.00271390       8
H               0.83012300      1.03332000      4.72200000      0.01038010      0.00542592     -0.01612400       1
H               2.26333000      1.95702000      1.11527000      0.00829032      0.00140743      0.00102028       1
O               3.91750000     13.28330000     15.01510000      0.01240400     -0.01210340     -0.02224740       8
H               4.65924000     12.29130000     13.50130000     -0.00978979      0.00752507      0.00639943       1
H               2.91501000     11.98250000     15.84340000      0.00547406      0.00657348      0.00508379       1
O              22.97380000      2.96627000     14.86280000     -0.00490506      0.01452870     -0.00317561       8
H              22.53210000      3.31735000     16.59720000     -0.00449653     -0.00084875      0.00133343       1
H              21.78810000      4.08036000     13.96560000      0.01013790     -0.01446290     -0.00279534       1
O               4.94049000      6.72751000     13.82300000      0.00193442     -0.00884320     -0.00201059       8
H               3.24046000      6.28350000     13.40300000     -0.00132993     -0.00660599     -0.00720971       1
H               4.68465000      7.87273000     15.23430000      0.00759885     -0.00752118      0.00450484       1
O               7.50880000     21.56500000      5.40061000      0.02247160     -0.00156013      0.00684056       8
H               8.36288000     22.14110000      3.82544000     -0.00398778     -0.00134355      0.00425282       1
H               8.84652000     20.58310000      6.23474000     -0.01686940      0.00601751     -0.01155780       1
O              21.42740000     21.68660000     13.20660000      0.00066791      0.05045340     -0.00798356       8
H              22.09080000     23.45670000     13.86770000     -0.01429920     -0.06013280     -0.00759391       1
H              21.95620000     20.20230000     14.07220000      0.01396800      0.00505871      0.01285640       1
O              14.40930000     19.13950000     17.91140000     -0.02212050     -0.04211960     -0.00528777       8
H              13.58340000     17.33410000     17.72260000      0.02469550      0.04501120      0.00324973       1
H              14.73120000     19.68100000     16.18240000      0.00010005      0.00228712      0.00403613       1
O              11.45910000      2.09706000      8.22515000     -0.00190578      0.00021947      0.00255034       8
H               9.98398000      1.49931000      7.35596000     -0.00215599      0.00336169     -0.00051251       1
H              11.48750000      3.91560000      7.97505000      0.00246355      0.00036127     -0.00364970       1
O              13.40330000     15.39290000      1.04107000     -0.00477587     -0.00450490     -0.00081657       8
H              14.90610000     14.66970000      0.26422700      0.00535774     -0.00013898     -0.00719719       1
H              13.93770000     16.81730000      2.03964000     -0.00133903      0.00109352      0.00705523       1
O              22.50840000      9.26696000     11.53240000     -0.00247894     -0.00140888     -0.00123264       8
H              22.64140000     10.05530000      9.89765000     -0.00220672      0.00096062     -0.00563520       1
H               0.65643800      8.36591000     11.48460000      0.00272432     -0.00043223      0.00455841       1
O               2.97718000     12.70220000     22.57840000     -0.01455730     -0.05008490      0.01721110       8
H               1.99767000     12.00060000      0.58762300      0.01819370      0.01500890     -0.01886220       1
H               2.84301000     14.44640000     22.75230000     -0.00104245      0.03475130      0.00203276       1
O              10.27930000     22.69110000      1.24039000     -0.00499531     -0.01433450     -0.01337350       8
H              11.53910000     21.42760000      1.60842000      0.00449169      0.00415977      0.00140265       1
H               9.84924000     22.27390000     22.82740000      0.00431648      0.00845701      0.02099450       1
O               4.25010000     20.64600000     18.77990000      0.00379448      0.00566932     -0.00076693       8
H               3.14385000     19.37400000     18.05190000     -0.00360400     -0.00159683     -0.00114857       1
H               3.42364000     21.13790000     20.31590000     -0.00214258     -0.00075668      0.00429151       1
O               5.22500000     10.93370000     10.72300000      0.00382633      0.00924456     -0.00242794       8
H               3.37701000      9.69861000      8.55650000     -0.01370030     -0.00455976     -0.01594130       1
H               6.39983000      9.54688000     10.70890000     -0.00616656     -0.00076419      0.00459512       1
