192
TotEnergy=-1103.62109000 cutoff=-1.00000000 nneightol=1.20000000 pbc="T T T" Lattice="23.93451000       0.00000000       0.00000000      -0.00000100      23.93451000       0.00000000      -0.00000100      -0.00000100      23.93451000" Properties=species:S:1:pos:R:3:force:R:3:Z:I:1
O              19.71130000     19.54340000      2.27808000     -0.00541152     -0.00466835     -0.00057126       8
H              19.17580000     21.29180000      2.16838000      0.00664797     -0.00511714      0.00177838       1
H              18.96320000     18.61780000      0.89254200      0.00186752      0.01000700     -0.00155405       1
O               4.62533000     23.53270000     13.90430000      0.00129154      0.00338650      0.00144130       8
H               5.75695000     22.11990000     13.59540000     -0.00365918     -0.00040283     -0.00179894       1
H               3.08727000     23.24520000     12.95350000      0.00627640     -0.00031911     -0.00613586       1
O              16.40280000     13.56940000     19.37900000      0.00037709     -0.00046203     -0.00263672       8
H              17.08920000     15.27240000     19.48460000     -0.00355092     -0.00194694      0.00964018       1
H              15.53840000     13.34250000     20.97210000     -0.00051693     -0.00127549     -0.00956937       1
O               2.01527000      7.89235000      2.73521000     -0.00552934     -0.00659740     -0.00526188       8
H               0.98559800      9.15118000      1.88388000      0.01164540      0.00355136      0.00695916       1
H               3.60167000      8.64167000      3.22071000     -0.00486252      0.00225765     -0.00182732       1
O              11.72040000     11.19460000      5.07154000      0.00691861      0.00391991     -0.00590833       8
H              12.97080000     10.23600000      4.16927000     -0.00502986     -0.01153780      0.00373832       1
H              12.15650000     12.81860000      4.37059000     -0.00272469      0.00155826      0.00734778       1
O               1.77646000      7.37346000     11.33010000     -0.00455857     -0.00008561     -0.00673630       8
H               1.68842000      6.50747000      9.68689000      0.00140466      0.00692691      0.01030870       1
H               3.50664000      7.78253000     11.71910000     -0.00259992     -0.00106468     -0.00689738       1
O               4.76996000      4.04198000     21.90410000     -0.00127971      0.00050435      0.00460515       8
H               3.44954000      4.47921000     23.07830000     -0.00101764     -0.00576437      0.00401696       1
H               3.88913000      4.21040000     20.30050000      0.00799786      0.00242769     -0.00191685       1
O              12.99920000     20.14420000     22.56760000     -0.00847182     -0.00135107     -0.00307136       8
H              11.79680000     18.97150000     23.25910000     -0.00004081      0.00321842      0.00106637       1
H              12.14770000     21.07200000     21.24880000     -0.00299441     -0.00104807      0.00005218       1
O               1.42554000     22.85020000      9.37157000      0.00414895     -0.00686863      0.01044850       8
H               2.68202000     23.25290000      8.12263000     -0.00902021      0.00869450     -0.00524546       1
H              -0.09443500     23.83790000      9.11012000      0.00461702     -0.00538083     -0.00196121       1
O               0.08011700      4.99239000      6.68547000      0.00634765     -0.00087296     -0.00174971       8
H               0.85201600      3.35850000      6.42607000      0.00130142      0.00078482     -0.00198715       1
H               0.34921600      5.83258000      5.06738000      0.00534219      0.00429122      0.00441280       1
O               7.80463000      9.11704000     10.86710000     -0.00006306     -0.00332105      0.00359644       8
H               9.60635000      8.94092000     10.94850000      0.00256015     -0.00233128      0.00294105       1
H               7.59616000     10.83870000     10.31710000      0.00049703     -0.00160876     -0.00181776       1
O               1.61038000     17.48100000      8.49413000     -0.01300900     -0.00607427      0.01829420       8
H               2.27801000     16.01930000     10.32500000      0.02227410      0.00210533     -0.01054380       1
H               2.91588000     18.76610000      8.16486000     -0.01960330     -0.00340889      0.00788815       1
O               8.88075000      7.11120000     22.83480000      0.00385447     -0.00346571      0.01085990       8
H               7.32051000      6.30277000     23.29640000     -0.00753814     -0.00082957     -0.01311420       1
H               9.46800000      7.61090000     24.48340000      0.00423839      0.00633717      0.00172414       1
O              18.53260000      0.95638000      3.28058000      0.00673936     -0.00710331     -0.00274909       8
H              18.61250000      2.15012000      4.66540000     -0.00642859     -0.00195946     -0.00630447       1
H              16.84250000      0.93308700      2.56578000     -0.00317197      0.01332960      0.01382510       1
O               0.05149700     16.43350000     19.84300000     -0.00092048      0.00372632     -0.00253955       8
H              -0.95113100     14.90420000     19.59450000      0.00486803     -0.00328970      0.00331694       1
H               1.82028000     16.00000000     19.91900000     -0.00741862     -0.00606824     -0.00082033       1
O              24.12600000     17.25030000      3.48987000      0.00604318     -0.00342742      0.00135476       8
H              22.52430000     18.07030000      3.11870000     -0.00665804      0.00511779      0.00903764       1
H              24.42940000     17.17590000      5.27598000     -0.00374075     -0.00290010     -0.00290240       1
O               3.69983000     14.47910000     11.27190000      0.00327257     -0.01284600      0.00144094       8
H               4.98731000     13.82410000     10.05950000     -0.01230010      0.00653186     -0.01639990       1
H               4.73225000     14.34580000     12.82070000     -0.01242540      0.01394280      0.01103260       1
O               9.97482000     22.53030000     17.47310000     -0.00841655     -0.00845582     -0.00587941       8
H               8.89505000     21.27520000     16.70780000      0.00610964     -0.00265945      0.00326540       1
H               9.25331000     24.03620000     16.77000000      0.00634776      0.01199920      0.00702154       1
O              17.98080000     11.55780000      1.78011000     -0.00149697     -0.00281568     -0.00113461       8
H              19.79720000     11.63630000      2.02782000     -0.00889880     -0.00284795     -0.00549027       1
H              17.26910000     10.20480000      2.86564000      0.01900410      0.01016630      0.00632022       1
O              16.45370000      8.48901000      5.39547000      0.01216250     -0.01639570      0.02552310       8
H              17.44080000      7.27912000      6.49718000     -0.01384920      0.00199028     -0.02546610       1
H              15.76910000      9.53289000      6.71626000     -0.00506684      0.00873782     -0.00191339       1
O               2.50908000      0.51990300      4.31235000     -0.01348320     -0.00172785      0.00428358       8
H               1.29787000      0.65641000      2.91011000      0.01042760      0.00446849      0.00328981       1
H               4.12109000      0.27054800      3.56031000      0.00825017      0.00080451     -0.00086341       1
O              20.31960000     24.31600000     10.13440000      0.00079533      0.00269880      0.01922860       8
H              19.24020000     22.87420000      9.97906000     -0.00293613     -0.00264879      0.00003349       1
H              20.44930000     24.50460000     11.97310000     -0.00042526     -0.00051914     -0.01613700       1
O               7.70942000     18.51060000      7.69209000     -0.00042418      0.01557310      0.00944243       8
H               8.55243000     20.12830000      7.05778000     -0.00465590     -0.00077441     -0.01098180       1
H               7.59839000     18.77630000      9.51213000      0.00335624     -0.00097099     -0.00718191       1
O              21.74880000      7.28887000     18.31170000     -0.01478390     -0.00090826     -0.00122639       8
H              20.42480000      7.20465000     16.91370000      0.00357542      0.00269107     -0.00030156       1
H              20.95740000      6.60568000     19.81090000      0.00521323     -0.00240856     -0.00754797       1
O               1.48866000     19.74360000     23.57370000      0.00693490      0.00605738     -0.00376132       8
H               0.14214400     18.71500000     22.88310000      0.00662688      0.00387228     -0.00087461       1
H               1.69384000     19.16710000     25.30640000     -0.00790481      0.00065550     -0.00272550       1
O              21.34660000     16.27230000     11.77890000      0.01458770     -0.00239112      0.00028030       8
H              23.79710000     18.11500000      8.91746000      0.02922280     -0.00120572      0.00612114       1
H              21.55210000     17.53180000     13.09150000      0.00436915     -0.00552411     -0.00678079       1
O              14.89210000      2.47835000     19.48930000     -0.01036880      0.03247700     -0.02379220       8
H              15.27640000      1.29148000     18.17450000      0.00531054     -0.00736434     -0.00264437       1
H              14.08540000      3.83670000     18.42040000      0.00698430     -0.02789710      0.02991340       1
O              17.50760000     17.26580000      8.47607000      0.00065252      0.00433335      0.00040254       8
H              19.09060000     17.70480000      9.31113000     -0.00215998     -0.00861655      0.00094328       1
H              17.01540000     15.84760000      9.49483000      0.00191854      0.00043340     -0.00722651       1
O              12.86430000     19.17780000     12.19130000     -0.00183455      0.00028668     -0.00042515       8
H              13.75620000     19.71020000     10.68690000      0.00309422      0.00039634     -0.00002718       1
H              13.77370000     17.74850000     12.86550000      0.00667444      0.00199299     -0.00160061       1
O              10.41770000      4.35584000     18.44860000      0.00049555      0.01035910     -0.00044085       8
H               9.62596000      5.27563000     17.10140000     -0.00742018     -0.00782191      0.00087888       1
H               9.68280000      5.00475000     19.98450000      0.00391697     -0.00053541      0.00147651       1
O               7.95703000     19.59250000     13.11190000     -0.00153919     -0.00357456     -0.00133251       8
H               9.77807000     19.80480000     12.78500000     -0.00006031     -0.00507495     -0.00034460       1
H               7.77640000     17.85010000     13.63300000      0.00125450      0.00174347      0.00404416       1
O              16.70920000     15.23270000     13.84870000      0.00319855      0.00289655     -0.01965260       8
H              16.52340000     14.95330000     15.60940000      0.00325953     -0.00466284      0.00984831       1
H              18.43510000     15.92300000     13.45900000     -0.01161070     -0.00766064      0.00209564       1
O              19.16780000      3.37441000     22.35270000     -0.00310524      0.00639337      0.00359165       8
H              18.45730000      2.56794000     23.82680000      0.00720789      0.00521446     -0.00004561       1
H              17.68290000      3.76108000     21.34880000      0.00619118     -0.00935716     -0.00421289       1
O              14.06580000      5.13357000     12.82900000      0.00247987      0.00050349      0.00478885       8
H              15.70850000      6.02946000     13.21360000      0.00367186     -0.00788978     -0.00301823       1
H              12.92610000      5.74560000     14.09560000      0.00206442      0.00138658     -0.00234989       1
O              15.10720000      0.09323000     14.23360000      0.00270250      0.00043389      0.00365725       8
H              13.67430000     -1.00866000     14.40760000     -0.00169960      0.00298560     -0.00448637       1
H              14.60330000      1.63074000     13.34960000      0.00050146     -0.00161130      0.00737330       1
O              17.08420000     11.93700000      9.37644000     -0.01362030      0.00516897      0.01128150       8
H              18.64250000     11.01200000      9.21838000     -0.01280830      0.00637753      0.00327376       1
H              16.69150000     12.52950000     11.10990000      0.01278810     -0.01479690     -0.01460130       1
O               1.01032000      0.39519500     17.43760000     -0.00301510     -0.00838512     -0.00345135       8
H               0.41365300      1.79999000     18.40070000      0.00766684      0.00820185     -0.00289144       1
H               2.63021000      0.67722100     16.65210000     -0.00467842      0.00339889      0.00648882       1
O               6.49523000     18.73950000     23.27350000      0.00556878      0.00518808     -0.00396134       8
H               7.20373000     17.66030000     24.59930000     -0.00444781      0.00215649     -0.00231818       1
H               4.66961000     18.44310000     23.08600000      0.00897122      0.00961738      0.00917647       1
O              24.01770000     12.79690000      0.99832400      0.00416717      0.00000508     -0.00401458       8
H              24.19660000     14.54720000      1.53207000      0.00023710     -0.00819431      0.00673779       1
H              24.08660000     12.83900000     -0.81844900     -0.00858340     -0.00199124      0.00361172       1
O               7.22421000     13.43870000      8.05563000     -0.00225042     -0.00147910      0.00233087       8
H               7.62263000     12.26590000      6.71983000      0.00157279      0.00606342     -0.00332068       1
H               7.70612000     15.15600000      7.56908000      0.00049225     -0.00502288      0.00120177       1
O              18.55410000      7.39048000     14.28600000     -0.00850216      0.01109960     -0.00111382       8
H              17.28000000      8.65745000     14.61240000      0.00796752      0.00094746      0.00306248       1
H              20.25930000     11.18770000     11.86230000     -0.00144890      0.00350122      0.01775210       1
O              22.00270000     11.54900000     11.44610000     -0.02433810     -0.01431520     -0.01110910       8
H              22.89880000     10.00750000     11.46710000      0.03683580     -0.02582090      0.00570115       1
H              22.58180000     13.31800000     11.65110000     -0.00869203      0.03914240      0.00972471       1
O              14.30490000     15.71930000      3.71155000      0.00756458      0.00275923      0.00522091       8
H              15.19560000     15.86430000      5.31486000     -0.00179076      0.00332519     -0.00666932       1
H              15.62400000     15.33940000      2.51723000     -0.00203275     -0.00507921      0.00295469       1
O               9.58376000     22.73080000      5.19325000     -0.00224777     -0.00301966     -0.00945726       8
H               9.22374000     23.97470000      1.88989000     -0.00764455      0.00286622      0.02102820       1
H               9.86226000     24.22850000      6.19037000      0.00283825     -0.00831818     -0.00624206       1
O               7.41939000      4.02019000     14.33090000     -0.00605032     -0.00752660      0.01803870       8
H               7.98980000      5.16543000     13.07630000     -0.00841353     -0.00495197     -0.01520480       1
H               6.35171000      2.56989000     13.86250000      0.00994913      0.01092840     -0.01257250       1
O               5.22011000     14.57520000     20.16160000      0.00690460      0.00829374     -0.00613735       8
H               6.15003000     16.16670000     20.32480000     -0.00236832     -0.01420400      0.01224430       1
H               6.14446000     13.29100000     21.08910000     -0.00227768      0.00818154     -0.00633110       1
O               7.37013000      3.79067000      7.97245000     -0.02054450      0.01706620      0.02079320       8
H               6.59395000      4.76361000      9.36552000      0.01468390     -0.01546660     -0.02400320       1
H               8.71562000      2.80032000      8.67776000      0.00400510     -0.00000503      0.00020664       1
O              19.28690000     20.67380000     14.76890000     -0.00176334      0.00520478     -0.00074584       8
H              17.84070000     21.75250000     14.46420000      0.00126635     -0.00037897      0.00105023       1
H              20.18260000     21.40030000     16.20260000     -0.00193823     -0.00566963      0.00101381       1
O              12.45950000     10.27350000     14.27640000      0.00411335      0.00010190     -0.00180912       8
H              12.17790000     11.92030000     13.57950000      0.00481181     -0.00007688      0.00318761       1
H              13.01010000     10.52870000     15.99750000     -0.00658485      0.00291615     -0.00526369       1
O              21.56570000     12.03960000     20.32050000     -0.00028647     -0.00783409     -0.00991445       8
H              19.76150000     11.84850000     20.09810000      0.00012508      0.00892044      0.00230331       1
H              22.17630000     10.49560000     19.51800000     -0.00131581     -0.00227538     -0.00180811       1
O              17.35680000     18.34880000     21.07000000      0.00006793      0.01499780     -0.01606380       8
H              17.67310000     19.45280000     19.62090000      0.00867364     -0.00814374      0.01306350       1
H              15.72780000     19.00450000     21.65640000      0.00063521     -0.00687849      0.00062910       1
O              13.71410000     10.87390000     23.20970000      0.00649573     -0.00979337      0.00211346       8
H              15.49100000     10.92220000     23.77450000     -0.00643495      0.00403150     -0.00104636       1
H              13.46120000      9.12018000     22.79820000     -0.00049527      0.00334243     -0.00002436       1
O               7.07582000     14.49460000     15.26750000     -0.00166258     -0.00902841      0.00300394       8
H               8.15478000     13.04430000     15.64960000     -0.00525082      0.00759592     -0.00340888       1
H               6.16343000     14.69500000     16.86950000      0.00228010     -0.00456686     -0.00377296       1
O              14.04630000      0.92004000     24.60370000      0.00223845      0.00335456      0.00024345       8
H              13.76770000      1.71154000     22.96930000      0.00771206     -0.00570656      0.00134528       1
H              14.81880000     -0.69179200     24.23990000     -0.01509930      0.00198983     -0.00559122       1
O              15.33300000     21.97870000      7.60690000     -0.00253213      0.00398523      0.00152353       8
H              13.96520000     21.79070000      6.39789000      0.00247695      0.00108986     -0.00035596       1
H              16.84270000     21.23740000      6.91043000     -0.01272410     -0.00274022     -0.00382723       1
O               7.78096000      7.73630000      4.30410000      0.01755570     -0.00843412      0.01785150       8
H               7.55772000      5.96015000      4.64635000     -0.01062860     -0.00296508      0.00000216       1
H               9.05092000      8.01196000      5.63361000     -0.01212780      0.01004450     -0.01854560       1
O              19.03050000      4.89217000      7.88072000      0.01288080     -0.00735522     -0.00195442       8
H              20.85450000      5.18854000      7.74313000     -0.00845782     -0.00271490     -0.00357062       1
H              19.00220000      3.22885000      8.67765000     -0.00441126      0.00989894      0.00318699       1
O               7.88063000      0.14570200     24.41320000      0.00411063     -0.00931319     -0.00117692       8
H               7.20961000      1.60348000     23.44070000      0.00253446     -0.01037040      0.00387720       1
H               7.36517000     -1.58674000     23.97430000     -0.00740119      0.00130792     -0.00674269       1
O              21.74460000     21.15330000     19.30320000     -0.00380304     -0.00011877      0.00198714       8
H              23.30110000     21.92290000     18.70230000     -0.00184191      0.00362512      0.00056663       1
H              22.17730000     19.40320000     19.52020000      0.00217967     -0.00310815     -0.00158225       1
O               2.68822000      5.86132000     17.14450000      0.00335927      0.00252057     -0.00372265       8
H               1.24849000      6.79744000     16.50260000      0.00154506     -0.01064610      0.00920974       1
H               3.57149000      5.19510000     15.70800000      0.00073600      0.00457319      0.00085454       1
O              24.33540000      1.31366000     23.71790000     -0.00722262     -0.01121190      0.00343972       8
H              22.58360000      1.73500000     23.45260000     -0.00043015      0.00165715     -0.00298549       1
H              24.41300000     -0.52035200     23.57370000     -0.00012743      0.00320510     -0.00894420       1
O               9.01380000     16.02880000      3.14669000     -0.00461631      0.00239124      0.00880671       8
H              10.81310000     15.71340000      3.31836000     -0.00397991      0.00908133     -0.00440280       1
H               8.55476000     16.90610000      4.70764000      0.00514506     -0.00108752     -0.01426840       1
O              12.56910000      2.47942000      8.45502000     -0.00622598      0.00175879      0.00283004       8
H              12.62570000      3.61948000      9.87499000      0.01195390      0.00098593     -0.00031564       1
H              14.03560000      1.39937000      8.57302000     -0.00464592      0.00057283     -0.00072713       1
O               9.93961000     10.74690000     18.95490000     -0.01753440     -0.04703110      0.00982436       8
H              11.05360000     11.23680000     20.29790000      0.00160007      0.00149984      0.00349373       1
H               9.40492000      8.94471000     19.46560000      0.01382950      0.05567050     -0.00920509       1
