192
TotEnergy=-1103.75213000 cutoff=-1.00000000 nneightol=1.20000000 pbc="T T T" Lattice="23.30089000       0.00000000       0.00000000      -0.00000100      23.30089000       0.00000000      -0.00000100      -0.00000100      23.30089000" Properties=species:S:1:pos:R:3:force:R:3:Z:I:1
O               8.99319000     11.05580000     20.49630000     -0.00220294     -0.00138665      0.00052524       8
H               8.64772000     10.76260000     22.26300000      0.00410195     -0.00268079     -0.00489287       1
H               8.44725000      9.55747000     19.60090000      0.00716192     -0.00456410      0.00045456       1
O               3.97445000     11.82740000     19.38670000     -0.00228455     -0.00071728     -0.00443107       8
H               5.80194000     11.84780000     19.37510000     -0.00160029      0.00375332      0.00437999       1
H               3.43380000     13.54030000     19.54930000      0.00171919      0.00385727     -0.00074539       1
O              11.05730000     15.78490000     18.24100000     -0.00203446     -0.00432448     -0.00459421       8
H              11.55400000     14.60330000     16.90740000     -0.00165159      0.00589498      0.00618247       1
H              11.01490000     14.80470000     19.76570000      0.00234636     -0.00621605     -0.00267644       1
O               2.87298000      3.96576000      3.18663000      0.00007135     -0.00451776      0.00014119       8
H               1.37712000      3.61372000      2.22809000     -0.00171719      0.00408707     -0.00290304       1
H               2.45975000      3.43435000      4.88351000     -0.00000617     -0.00733454      0.00119031       1
O              17.36320000     11.77340000     21.95340000     -0.00008045      0.00734076     -0.00102663       8
H              18.14500000     11.53840000     20.27080000      0.00029012     -0.00151571      0.00248701       1
H              16.46730000     13.36340000     21.80170000     -0.00379688     -0.00784373     -0.00354446       1
O               2.31329000     12.76160000      2.19416000      0.00549313     -0.00010884      0.00213554       8
H               2.36747000     11.21420000      3.18281000      0.00755242      0.00107163      0.00166512       1
H               3.99453000     13.13880000      1.69950000      0.00998071     -0.00360606     -0.00740582       1
O               5.40477000     17.32630000     17.98050000     -0.00019529      0.00055745     -0.00807277       8
H               4.90547000     18.44580000     19.34970000     -0.00279272     -0.00051492      0.00104096       1
H               7.08215000     16.72180000     18.37080000     -0.00070732      0.00167163     -0.00249549       1
O              17.11580000      7.27741000      5.67607000     -0.00301613     -0.00618407     -0.00098277       8
H              16.55650000      7.43429000      3.92791000     -0.00221321     -0.00136096     -0.00059473       1
H              15.58840000      7.38266000      6.65144000      0.00181770      0.00385705      0.00055321       1
O               8.07355000     15.64410000      1.18338000      0.02254020     -0.00598212     -0.01093710       8
H               8.23566000     17.40630000      1.63160000     -0.00849319      0.00309944     -0.00695405       1
H               9.67100000     15.31710000      0.27279900     -0.01840150     -0.00191202      0.01640020       1
O              16.47250000     16.88010000     12.69630000      0.00080391      0.00027187      0.00780140       8
H              16.08760000     16.78320000     14.48850000      0.00163436      0.01102930     -0.00821540       1
H              15.36590000     15.55770000     12.08310000      0.01156340      0.00639666     -0.00050011       1
O              19.36240000     21.45110000     10.89770000     -0.00117890     -0.00563485     -0.00245091       8
H              20.75970000     20.37840000     11.31200000      0.00521444      0.00282899     -0.00125563       1
H              17.96900000     20.30450000     11.17040000     -0.00012976     -0.00555240     -0.00491787       1
O               2.89206000     19.71720000      8.47300000     -0.00077918     -0.00603185     -0.01279230       8
H               4.63294000     20.26140000      8.50225000      0.00202665      0.00864418     -0.00618419       1
H               2.57047000     19.22570000      6.67547000     -0.00210825      0.00490145      0.01135900       1
O               1.87073000     18.19540000      3.65751000      0.00646699      0.00597580      0.00744938       8
H               2.49188000     19.08220000      2.19511000      0.00232834      0.00232754     -0.00159432       1
H               2.86307000     16.68130000      3.76994000     -0.00838520     -0.00611683     -0.00500257       1
O              21.92730000      6.35595000      0.10715300      0.00640210     -0.00347864      0.00167539       8
H              22.04960000      8.14450000      0.44134300     -0.00542038     -0.00450524      0.00051390       1
H              20.45410000      6.08506000     22.38580000     -0.00689355      0.00792390      0.00038993       1
O               7.59602000      6.70680000     17.15370000      0.00097501      0.00183631     -0.00239174       8
H               8.56220000      5.22796000     16.67050000      0.00074272      0.00052671      0.00419320       1
H               5.92679000      6.33366000     16.44780000      0.00360990      0.00080585      0.00660768       1
O              12.88290000     12.28080000      8.87642000      0.00215184     -0.00940124     -0.00608194       8
H              12.85830000     13.35450000      7.39636000      0.00246471      0.00657301      0.00145953       1
H              14.72820000     11.91100000      9.00817000     -0.00611495      0.00024640      0.00917283       1
O               9.73565000     10.25840000      3.15102000      0.00030145      0.00212392      0.00304786       8
H               8.12764000      9.56293000      2.59182000      0.00199509     -0.00115863      0.00487516       1
H               9.55804000     12.01880000      3.50598000     -0.00820377      0.00278212     -0.00146134       1
O              21.46680000     14.59030000      8.19409000      0.00708955     -0.00790246      0.00533799       8
H              25.16980000     16.87880000     10.87760000      0.00153483      0.00979436      0.01929120       1
H              21.23270000     15.74000000      6.78008000     -0.00123314     -0.00798082      0.01817560       1
O               4.88372000      3.80091000     10.63940000     -0.02198700     -0.01050390     -0.00816034       8
H               5.40942000      2.46819000     11.74520000      0.00321890     -0.00986891     -0.00650530       1
H               3.32972000      3.17881000      9.74126000      0.02253430      0.01068470      0.01084410       1
O              13.98890000      7.95709000      1.49033000      0.01298710     -0.00240460      0.00125519       8
H              13.38240000      9.09923000      2.75905000     -0.01397750      0.00130215     -0.00511853       1
H              14.43860000      9.04676000      0.09223600      0.00511955     -0.00470124      0.00133498       1
O              20.47430000      2.48364000     17.43050000     -0.00489786     -0.00202147     -0.00136197       8
H              19.58750000      3.70288000     18.46290000      0.00037200      0.00543678     -0.00131615       1
H              19.18470000      2.06136000     16.19600000     -0.00115564     -0.00140917      0.00304913       1
O              14.03050000      8.03754000     15.76870000      0.00250292     -0.00008556      0.00289843       8
H              12.36200000      7.49283000     16.20990000     -0.00048680      0.00035592     -0.00015357       1
H              14.60810000      6.86543000     14.47200000     -0.00313834      0.00231183     -0.00089158       1
O              21.48600000     15.02660000     14.72300000      0.00280493      0.00749116     -0.00045765       8
H              20.31720000     15.51920000     13.39530000      0.00152589     -0.00357253     -0.00201247       1
H              23.06590000     14.65320000     13.92520000     -0.00784343     -0.00607073     -0.00321298       1
O              11.75320000     23.01110000     11.23470000      0.00006583     -0.00325427      0.00135416       8
H              13.14800000     22.39090000     10.24080000      0.00093634      0.00210346      0.00013323       1
H              11.38300000     21.60560000     12.33150000     -0.00068975     -0.00261853      0.00056171       1
O               7.77211000     22.46920000      7.69829000     -0.00325228      0.00062971      0.00058425       8
H               8.23496000     -0.27132600      9.36278000      0.00075470      0.00423430     -0.00147877       1
H               9.34847000     21.80980000      7.09761000     -0.00421933     -0.00563677      0.00172950       1
O               2.53991000      9.11006000      5.74838000     -0.00690674     -0.00226559      0.00766480       8
H               0.69927700      9.45305000      5.46836000      0.00682518      0.00276201      0.00275092       1
H               2.72867000      7.31189000      5.71770000      0.00263140      0.00168433     -0.00610863       1
O              10.91080000      7.01391000      8.27324000      0.00235212      0.04060650     -0.01275900       8
H               9.36635000      6.74601000      9.20532000     -0.00563449     -0.00012002     -0.00304019       1
H              10.79240000      8.89938000      7.83053000      0.00820136     -0.04727820      0.00899093       1
O              10.86570000      3.16735000      4.17934000      0.00883374      0.00137765      0.00551216       8
H              11.82280000      4.27546000      3.10253000      0.00380404      0.00265412     -0.00184105       1
H              10.74910000      4.16806000      5.72541000     -0.00637863     -0.00173947     -0.00734494       1
O              19.15690000      2.80699000      7.28526000     -0.00359405      0.00132275     -0.00289496       8
H              17.84800000      1.76525000      7.98837000      0.00497548      0.00081521      0.00557094       1
H              18.32790000      4.36299000      6.75434000      0.00389015      0.00250290     -0.00019446       1
O               9.32602000     17.99630000     13.02660000     -0.00538920     -0.00256583      0.00814767       8
H               9.33713000     17.09180000     11.45590000      0.00178438      0.00085773      0.00076120       1
H               9.73520000     16.67300000     14.23350000      0.00035791      0.01214990     -0.00561624       1
O              18.84310000     22.81300000      2.56769000     -0.00905832      0.00319602     -0.00037442       8
H              18.60260000      1.30723000      2.71775000      0.00582245     -0.00195609     -0.00025459       1
H              18.47340000     22.38030000      0.81580300      0.00317476     -0.00188158      0.00042045       1
O               9.27389000     17.36120000      6.67216000     -0.00443791      0.00257579     -0.01056520       8
H               8.24237000     17.18840000      5.16996000      0.00700637     -0.00093344      0.01009090       1
H               8.61527000     16.11130000      7.82091000      0.00258450     -0.00728592     -0.00261413       1
O              14.87130000      4.91307000     11.59640000     -0.00214895     -0.00896042     -0.00342723       8
H              14.49770000      3.13680000     11.85550000      0.00244265      0.00797448      0.00202431       1
H              13.70150000      5.48778000     10.32680000     -0.00556863      0.00310275      0.00040714       1
O              19.13670000     17.47760000      4.65915000     -0.00488926      0.00625059     -0.00639605       8
H              19.58540000     19.23250000      4.72595000      0.00271341     -0.00254189     -0.00707897       1
H              19.78220000     16.75130000      3.10823000      0.00674005      0.00207728      0.00221938       1
O              21.74990000     17.56860000     20.30240000      0.00371163      0.00199705     -0.00261023       8
H              22.19320000     16.77270000     18.72480000     -0.00705165     -0.00061169      0.00195773       1
H              21.54250000     16.21790000     21.62170000      0.00556293      0.00033639     -0.00144186       1
O               0.93446300      2.06672000      7.68322000      0.00370191      0.00166866      0.00486646       8
H              22.39950000      2.25195000      7.61634000     -0.00084268     -0.00370888     -0.00029820       1
H               1.29926000      0.33173500      8.09284000     -0.00299830     -0.00463531     -0.00364489       1
O              13.22090000     20.18000000      0.92562300      0.00160457      0.00721249      0.00492327       8
H              11.76440000     19.87700000      1.97326000     -0.00271038      0.00600522     -0.00380224       1
H              14.20710000     21.39690000      1.86266000      0.00223782     -0.00945141     -0.00017962       1
O              17.47460000     11.57860000     10.54700000      0.00311795     -0.01210680     -0.00488996       8
H              18.92460000     12.42360000      9.75019000      0.00337051      0.00840680     -0.00322405       1
H              17.90820000      9.80481000     10.64870000      0.00489176      0.00830725      0.00135876       1
O               3.31891000     16.53040000     12.12760000      0.02026580      0.00167456      0.00389950       8
H               3.74579000     17.40040000     13.78010000     -0.02852820     -0.00595442     -0.01455930       1
H               4.76721000     17.02370000     11.10320000      0.00074767     -0.00211607     -0.00230810       1
O               8.00571000      2.56444000     22.71650000     -0.00172693     -0.00647391     -0.00086370       8
H               9.22519000      2.68652000     21.39900000      0.00035537      0.00605405     -0.00174210       1
H               8.93764000      3.02414000      0.91768500     -0.00818140      0.00045339      0.00320167       1
O              13.35340000      1.39292000     20.66750000     -0.00199814      0.00290211      0.00591918       8
H              13.40640000     23.19110000     21.68530000      0.00213443     -0.00181067     -0.00061175       1
H              11.70100000      1.33915000     19.92930000      0.00930324     -0.00170166     -0.01260570       1
O              21.45300000     14.31940000      0.60297500     -0.04105840      0.03118480     -0.01565040       8
H              19.92260000     13.38500000     23.39790000      0.02202040     -0.01463890      0.00722383       1
H              23.01520000     13.45570000      0.97622000      0.00215940     -0.01316270      0.00708375       1
O              17.10240000      6.04775000     19.88100000      0.00047364     -0.00321971      0.00230567       8
H              16.39600000      7.26585000     18.71070000      0.00225588     -0.00162238     -0.00126251       1
H              15.79960000      4.79381000     20.07960000     -0.00094193     -0.00047006      0.00152649       1
O              12.84670000     13.48700000     13.74670000     -0.00628443     -0.01008550     -0.00189196       8
H              12.70070000     13.27360000     11.80340000      0.00991599     -0.01542810      0.03786600       1
H              13.87500000     12.21030000     14.66650000     -0.01417360      0.00829163     -0.03356380       1
O               0.52065400      8.23419000     18.57510000      0.00307463     -0.00929989     -0.00048909       8
H              23.68310000      7.05437000     19.96070000     -0.00199999      0.00670268     -0.00088160       1
H               1.85774000      9.41845000     19.04120000     -0.00195112      0.00077730     -0.00180272       1
O              16.37970000      0.53619900     14.21180000      0.00417705      0.00397332     -0.00407269       8
H              17.47100000     23.80710000     12.74260000      0.00260356     -0.00149651      0.00524899       1
H              16.10580000     22.06370000     14.51400000     -0.00486664      0.00153215      0.00763516       1
O               3.08026000      1.66599000     20.25910000      0.00116724     -0.00622982      0.00692149       8
H               2.33697000      3.00232000     19.30050000      0.00112289      0.00040332     -0.00809426       1
H               4.59494000      2.28271000     21.04740000      0.00129596      0.00457712      0.00281811       1
O              21.96640000      7.29133000     10.51090000     -0.00084639      0.00058639     -0.00007305       8
H              23.00940000      8.02321000      9.22007000      0.00190487      0.00313369      0.00126675       1
H              21.72530000      5.57722000      9.99040000     -0.00224101     -0.00117928      0.00045127       1
O              14.51010000     15.70870000      5.54166000      0.00134892      0.00267897     -0.00097483       8
H              13.37610000     17.03140000      6.02652000     -0.00183668      0.00197406     -0.00068462       1
H              16.22540000     16.38560000      5.75170000     -0.00320474     -0.00335877     -0.00489423       1
O              10.33290000      2.23974000     16.08780000     -0.00522934     -0.00762473     -0.00430733       8
H               9.16132000      0.87951700     15.73680000     -0.00087766      0.00697974     -0.00037138       1
H              11.58840000      1.98088000     14.79000000      0.00386136      0.00234873      0.00477513       1
O               5.82294000      7.43494000      0.91528300     -0.00321820     -0.00198378     -0.01439410       8
H               5.81983000      6.88142000     22.46990000      0.00363846      0.00394434      0.01214210       1
H               4.78165000      6.17430000      1.77916000      0.00343950      0.00503450      0.00192982       1
O               7.70849000     13.78830000     10.11680000     -0.00407456     -0.00029315      0.00407623       8
H               8.48375000     12.32290000     10.86630000      0.00180978      0.00194861     -0.00452204       1
H               5.94675000     13.47980000     10.35990000     -0.00344244     -0.00978676     -0.00320762       1
O               3.22323000      4.59440000     15.60270000      0.00198004      0.00018025      0.00930925       8
H               1.83365000      5.75347000     15.56450000     -0.00691848      0.00390780      0.00051243       1
H               3.25844000      3.71804000     14.02600000     -0.00610027      0.00415389     -0.00545331       1
O               5.83884000     22.46810000     13.98260000      0.00892292      0.00274831      0.00277196       8
H               6.59329000     20.84720000     14.29980000      0.00369261     -0.00181686     -0.00041815       1
H               5.00056000     22.93920000     15.52180000     -0.00929903     -0.00248860     -0.00096217       1
O               7.73670000     20.78480000      1.79264000      0.00285745      0.00004065      0.00224061       8
H               7.51157000     21.61750000      0.18859000     -0.00116503      0.00015174      0.00497380       1
H               7.69491000     22.12810000      3.01025000     -0.00283781      0.00161722      0.00127054       1
O               0.67872700     21.89740000     15.96770000     -0.00204754     -0.00733837     -0.00937924       8
H              22.43300000     -0.44696900     16.07410000      0.00734027      0.00128720      0.00465917       1
H               1.15039000     21.54800000     17.67330000     -0.00294170      0.00095795      0.00257508       1
O              14.52270000     19.49310000     17.26070000      0.00206560      0.00226700      0.00425822       8
H              15.33440000     20.48430000     18.56110000      0.00138771     -0.00056902     -0.00223286       1
H              13.47050000     18.26380000     18.11430000     -0.00171532      0.00136261     -0.00406130       1
O              15.18700000     22.28640000      6.96299000     -0.00380675      0.00086328      0.00003097       8
H              13.87780000     23.27590000      6.19506000     -0.00057831      0.00498261     -0.00445739       1
H              16.66240000     22.51600000      5.90805000     -0.00362794     -0.00648409     -0.00294736       1
O              13.72980000     14.92850000      0.06652900      0.00126634      0.00716777      0.00116124       8
H              14.70570000     14.11720000      1.36783000     -0.00907253     -0.00081364      0.00571360       1
H              13.88810000     16.68890000      0.53670200      0.00087849      0.00261798     -0.00251824       1
O              19.55610000     11.19210000     17.59900000     -0.00291399     -0.00611811     -0.00685533       8
H              20.86180000      9.91506000     17.62790000      0.00328801     -0.00101713      0.00377254       1
H              20.13150000     12.43370000     16.38660000     -0.00050747      0.00295831      0.00067092       1
O              21.33770000     10.65840000      4.72761000     -0.00380096     -0.00522973      0.00618302       8
H              20.23670000      9.27795000      5.15032000     -0.00638990      0.00627715      0.00296813       1
H              21.05400000     12.03790000      6.01568000      0.00910183      0.00166190      0.00108474       1
O               2.88872000     20.16060000     21.67530000      0.03295850     -0.01043150      0.00891522       8
H               2.64939000     21.91490000     21.24870000     -0.01182020      0.00459499     -0.00065781       1
H               1.45924000     19.08520000     21.49140000     -0.02500270      0.00206159     -0.00829276       1
O              18.25130000     21.50620000     20.62310000      0.00377477      0.00111759      0.00392077       8
H              19.11190000     19.91740000     20.27800000      0.00467314     -0.00105772      0.00422481       1
H              19.48640000     22.75950000     20.14270000     -0.00532627      0.00159843     -0.00704545       1
O               7.04218000      8.33086000     11.57730000      0.00539006      0.00450907     -0.00078261       8
H               6.03496000      6.95528000     12.23680000      0.00056629      0.00335036     -0.00734605       1
H               8.66666000      8.18595000     12.35290000     -0.00144084     -0.00061146      0.01192820       1
