192
TotEnergy=-1103.95215000 cutoff=-1.00000000 nneightol=1.20000000 pbc="T T T" Lattice="23.03897000       0.00000000       0.00000000      -0.00000100      23.03897000       0.00000000      -0.00000100      -0.00000100      23.03897000" Properties=species:S:1:pos:R:3:force:R:3:Z:I:1
O               0.42427600      9.04930000     17.51510000     -0.00690420      0.00013341     -0.00199235       8
H               1.28774000      8.38971000     16.08060000      0.01386480     -0.00093406     -0.00168036       1
H               0.42875200      7.62748000     18.68180000      0.00296612      0.00246572      0.00133910       1
O              16.03210000      0.22638700     17.29150000      0.00149776      0.00037807      0.00238184       8
H              15.30340000     22.50950000     18.76560000      0.00129033     -0.00297777      0.00553581       1
H              15.52650000     22.12630000     15.96550000      0.00345029      0.00044176     -0.00348480       1
O              13.16630000     16.64110000     10.26700000     -0.00532010     -0.00365363      0.00055669       8
H              11.68570000     16.85050000      9.23874000      0.00146509      0.00672543      0.00359952       1
H              12.66520000     15.44550000     11.58230000     -0.00026777     -0.00710022     -0.00660462       1
O              22.87380000     21.38160000      1.32481000     -0.00370103     -0.00452294      0.00327148       8
H              22.32960000     19.69370000      1.80829000     -0.00194725      0.00846797      0.00379400       1
H              22.87970000     21.23440000     22.54630000      0.00330729     -0.00029336      0.00196463       1
O               6.55461000     12.49440000     21.47740000      0.00316274      0.02139490      0.00017714       8
H               7.75228000     12.60860000     20.09230000     -0.00363233     -0.00161378      0.00697462       1
H               6.48455000     14.28510000     22.04620000     -0.00036037     -0.02061610     -0.00081639       1
O              14.34080000      9.30505000      9.98480000     -0.00233154     -0.00088227      0.00185423       8
H              15.46300000     10.67860000      9.59868000      0.00051330      0.00358708      0.00325274       1
H              15.32330000      7.81621000      9.61556000      0.00226064     -0.00375397     -0.00426999       1
O              22.65360000      8.11054000     11.26810000     -0.00947171     -0.01183180      0.00230766       8
H              23.32490000      9.58314000     10.45630000      0.00281068      0.00176520      0.00505274       1
H              -0.66139300      8.34187000     13.04320000      0.00061113      0.01547410     -0.00267788       1
O               5.31211000     20.51040000     12.88490000     -0.00477502     -0.00738123     -0.00447328       8
H               3.63110000     20.16000000     12.23780000     -0.00027278     -0.00161959      0.00096753       1
H               5.33463000     22.39640000     12.91120000      0.00428028      0.00240045      0.00332639       1
O              10.89500000     14.29650000     18.89320000      0.00064772     -0.00192000      0.00597300       8
H              11.55640000     12.77560000     18.18460000     -0.00008515     -0.00022758     -0.00654932       1
H              11.09750000     15.59610000     17.63720000     -0.00253854     -0.00062646     -0.00013074       1
O              17.49860000     18.24150000      8.26657000      0.00054327     -0.00062549      0.00284501       8
H              17.99240000     17.87700000      6.53483000     -0.00003658      0.00458863     -0.00409209       1
H              15.72910000     17.78070000      8.49781000      0.00914514     -0.00241624      0.00160889       1
O              20.80970000     20.38470000     14.86540000     -0.00768923     -0.01299440     -0.00743667       8
H              21.25660000     19.40520000     13.38550000      0.00490727      0.00615526      0.00270504       1
H              19.00110000     20.15750000     15.00220000      0.00568469      0.00234054     -0.00005148       1
O               6.57406000      0.53338200      6.17347000     -0.00758904     -0.00527330     -0.00344990       8
H               7.38266000     22.46710000      7.41816000      0.00107521      0.00600114     -0.00384214       1
H               7.57667000      2.05933000      6.07293000      0.00251839     -0.00164238      0.00751032       1
O               0.87342500     19.05240000     10.33720000      0.00179301      0.00701287      0.00413943       8
H               0.80622100     20.53080000      9.25018000      0.00230751     -0.00099152      0.00089257       1
H               2.24351000     18.04350000      9.69975000     -0.00809515     -0.00846580     -0.00664323       1
O              19.13000000     13.86120000     15.57930000      0.00157858     -0.00317472     -0.00138355       8
H              18.05280000     15.20230000     14.98860000     -0.00092345     -0.00051256      0.00528404       1
H              19.59570000     13.01230000     14.03260000     -0.00679674      0.00296276     -0.00239691       1
O              10.09460000     19.59080000     18.01460000      0.00315001      0.00092545     -0.00381073       8
H               8.30331000     19.37030000     18.29290000     -0.00128149     -0.00156878     -0.00091044       1
H              10.64010000     20.91000000     19.13480000      0.00182684     -0.00009686      0.00633241       1
O               2.70281000     14.43260000      8.19918000      0.00250286     -0.00190583     -0.00137349       8
H               4.32679000     14.59210000      7.38449000     -0.00318463      0.00447808     -0.00110875       1
H               1.51931000     14.35110000      6.82066000      0.00065725     -0.00211909      0.00433686       1
O              19.72780000      2.70713000      1.40110000      0.00402519     -0.00671316      0.00259293       8
H              18.63660000      2.40379000      2.82070000     -0.00560626     -0.00663524      0.00045382       1
H              20.97680000      1.34039000      1.52870000     -0.00659091     -0.00146115     -0.00320893       1
O              15.37340000      0.33205100      5.21478000      0.00175822      0.00017584     -0.00265156       8
H              15.10000000     -0.37180900      6.86406000      0.00212534      0.00239148     -0.00045211       1
H              14.96300000     21.98720000      4.11032000     -0.00326013      0.00059672      0.00080404       1
O              17.75300000      5.08950000      9.59158000      0.01152420      0.00799320      0.01226700       8
H              18.83810000      5.76695000     10.90560000     -0.00806351     -0.00362290     -0.00331551       1
H              18.88090000      5.29463000      8.16669000      0.00082190     -0.00626748     -0.01054810       1
O               7.99536000      8.41267000      1.75895000      0.02287300      0.00584301      0.01029520       8
H               9.73339000      8.68414000      2.35323000     -0.01655910     -0.01415490     -0.00704587       1
H               7.82585000      9.75260000      0.53756100     -0.00532766      0.00447590     -0.00991247       1
O              10.21990000      8.14177000     19.44220000     -0.01200480     -0.00256924      0.00356632       8
H               8.79250000      6.99649000     19.58920000      0.00160530      0.00262820      0.00027679       1
H              10.36540000      8.46740000     17.66070000      0.00400825     -0.00386106     -0.00166029       1
O               4.74369000     18.90890000     17.89830000      0.00102900      0.00047131      0.00953441       8
H               4.90939000     18.92140000     16.06580000     -0.00502460      0.00481263      0.00246963       1
H               3.53060000     17.63520000     18.37650000      0.00521267      0.00016765     -0.00929778       1
O               2.86594000      0.51511900     20.10910000     -0.00440672      0.00294894     -0.00143262       8
H               1.67352000      0.99727500     18.81920000     -0.00225641     -0.00032295     -0.00288828       1
H               3.22664000     21.79850000     19.78430000      0.00608130      0.00084037     -0.00545675       1
O               0.78665000      5.38908000     21.17790000     -0.00035153      0.00693158     -0.00435096       8
H               2.12730000      4.45261000     22.00560000     -0.00735473     -0.00085242      0.00405924       1
H              22.34930000      4.34669000     21.12370000      0.00300022     -0.00278174      0.00423518       1
O              14.80440000     18.26490000     15.13320000     -0.00249592      0.00483051      0.00080504       8
H              14.29840000     17.94750000     13.40370000     -0.00042007      0.00639857      0.00208205       1
H              13.28950000     18.87340000     15.97560000      0.00223690     -0.00762249     -0.00327200       1
O              19.60550000      8.01853000      1.23690000      0.00248058      0.00578200      0.00523627       8
H              18.65120000      6.57071000      0.73399300      0.00698328     -0.00314667     -0.00100221       1
H              19.59040000      9.09547000     22.80280000     -0.00295108      0.00093489     -0.00274021       1
O              14.50690000     13.34240000     22.06050000      0.00967937     -0.00388430      0.00510960       8
H              15.94590000     14.45380000     22.17640000     -0.00509453      0.00997382     -0.00308269       1
H              13.32380000     14.17820000     20.91150000     -0.00312224      0.00044731      0.00208489       1
O              11.34300000      2.62644000     16.59440000      0.02026230     -0.00096871      0.00969365       8
H              11.45020000      4.30710000     15.94730000     -0.00583700      0.00834446     -0.00457267       1
H              12.99800000      2.50861000     17.44350000     -0.01615030     -0.00846511     -0.01192080       1
O               4.00421000      4.17473000      2.08039000      0.00458983      0.00145707     -0.00159407       8
H               5.10310000      5.62455000      1.97085000      0.00055588      0.00097014      0.00480610       1
H               2.76504000      4.53489000      3.36101000      0.00448846     -0.00141577     -0.00143735       1
O              16.67900000     18.19420000     21.96850000      0.02030240      0.01316530     -0.00597380       8
H              18.08300000     19.27950000     21.32980000     -0.01913330     -0.01926050      0.00831504       1
H              15.46990000     19.25690000     22.80310000     -0.00203718      0.00508449     -0.00124501       1
O              12.48990000     22.64380000     22.29020000     -0.00820359      0.00373195     -0.00060491       8
H              10.88650000     22.83530000      0.15674000      0.00348260     -0.01668030      0.00107629       1
H              12.77950000      1.37712000     21.94930000      0.00740359      0.00309512     -0.00219477       1
O               6.32624000     17.37030000      0.81539300     -0.00306679      0.00486371     -0.00082233       8
H               6.34510000     19.08770000      0.19456700      0.00179115     -0.00133311     -0.00291798       1
H               6.75753000     17.58160000      2.58308000     -0.00265294     -0.00921156      0.00185768       1
O               7.71232000     22.45570000      1.25856000     -0.00151896      0.00442319      0.00499664       8
H               7.35534000     22.24100000      3.05588000      0.00261754     -0.00006744      0.00170572       1
H               7.04427000      1.09406000      1.08625000     -0.00757803      0.00160332     -0.00825276       1
O              18.16720000     10.40670000     20.08850000     -0.00918941      0.00668572     -0.00068686       8
H              16.69880000     11.22240000     20.88910000      0.00238488     -0.00842267     -0.00377387       1
H              18.36460000     11.38200000     18.56740000      0.00931789      0.00476392     -0.00513910       1
O              21.69830000      4.88610000      5.74935000     -0.00090354     -0.00321395     -0.00346807       8
H              22.89470000      6.26377000      6.07950000     -0.00490544     -0.00069600      0.00062756       1
H              21.41840000      4.88786000      3.93715000     -0.00304133      0.00223292      0.00682860       1
O               2.02020000     10.28060000      0.77009400      0.00282952     -0.00420565      0.00380796       8
H               3.65526000     10.26330000     -0.05330300     -0.00734624      0.00584345     -0.00056479       1
H               1.02777000      9.02501000     22.94750000     -0.00068068     -0.00352755     -0.00245562       1
O              16.84020000     22.59210000     10.88010000     -0.00962962      0.00298248      0.01041900       8
H              17.59060000      1.16241000     10.51310000      0.00394845      0.00009615     -0.00627668       1
H              17.53880000     21.25100000      9.84345000      0.00234090      0.00052147     -0.00255371       1
O               1.89438000      8.60450000      5.94427000     -0.00447905     -0.00267809      0.00558235       8
H               3.48300000      8.20400000      6.75113000      0.00486608      0.00394790     -0.00194522       1
H               2.03212000      8.62460000      4.12655000      0.01120430      0.01051830     -0.00039506       1
O               5.82476000     13.36070000     13.34520000     -0.00247234      0.00104357     -0.00121502       8
H               4.35186000     14.32120000     13.87490000      0.00665736     -0.00558372      0.01059890       1
H               5.61506000     13.27960000     11.55900000     -0.00183556     -0.00271771     -0.01036880       1
O               5.46568000      2.33960000     12.91030000     -0.04253060     -0.01461980     -0.07623630       8
H               6.01707000      2.79094000     14.43920000      0.02546150      0.02537180      0.07649740       1
H               3.57096000      3.02852000     12.64400000      0.03809040     -0.01471710      0.00430461       1
O               9.88763000      4.39157000      7.49111000      0.00402127     -0.00022104     -0.00048522       8
H              11.52840000      4.58763000      6.75526000      0.00409905      0.00751120     -0.01418270       1
H              10.35050000      3.52671000      9.01988000     -0.00303338     -0.00870850      0.01013170       1
O              14.59210000     13.33610000      4.07973000     -0.00767452      0.00176727     -0.01764270       8
H              13.15480000     12.57970000      4.89249000      0.00016642     -0.00211084      0.00520776       1
H              14.06470000     13.35680000      2.26559000      0.01204440     -0.00379605      0.01778710       1
O               0.93604100     15.70980000      0.48400600     -0.00006430     -0.00059997      0.00144516       8
H               1.05190000     13.97940000      1.02827000      0.00345896     -0.00234848     -0.00428484       1
H               2.60401000     16.42350000      0.69215200      0.00015449     -0.00222172     -0.00033541       1
O              11.24990000     13.38460000     13.68420000      0.00029964      0.00243332     -0.00011848       8
H              11.86740000     11.79640000     14.29430000      0.00543128     -0.00700269     -0.00642945       1
H               9.48207000     13.16350000     13.34120000     -0.00525727      0.00260667      0.00392766       1
O               6.57213000      3.93243000     18.39930000      0.00491292     -0.01218750     -0.00064419       8
H               7.59577000      2.39387000     18.41710000     -0.00144399      0.01782900     -0.00157547       1
H               4.93530000      3.29009000     18.89990000      0.00057702     -0.00033634      0.00292733       1
O              19.02460000     13.46350000     10.15670000      0.00413801     -0.00222241     -0.00032999       8
H              18.86780000     15.13080000      9.40486000     -0.00583785      0.00359699      0.00661309       1
H              20.03950000     12.59890000      8.92971000     -0.00077740     -0.00446585     -0.00374276       1
O              12.99140000      8.15827000     15.33910000     -0.00764542      0.00280597      0.00112693       8
H              14.19670000      7.57547000     16.58610000      0.00758844     -0.00222968     -0.00665629       1
H              13.65870000      7.74726000     13.70350000      0.00289687      0.00613286     -0.00513532       1
O              20.20980000     12.10820000      4.94320000     -0.00636656     -0.00140094     -0.00381539       8
H              18.41770000     11.97410000      4.53818000      0.00529221      0.00228816      0.00392869       1
H              20.96830000     10.79840000      3.93917000     -0.00069063     -0.00147452      0.00304155       1
O               7.21479000     16.66130000      6.01354000      0.00808931      0.00384555      0.00362359       8
H               8.13089000     15.09410000      6.22158000      0.00332867     -0.00136794     -0.00145363       1
H               8.20638000     17.91830000      6.94887000     -0.00775258     -0.00268805     -0.00252935       1
O              16.96650000      5.87114000     17.89320000      0.00467706     -0.00086783      0.00315146       8
H              18.08020000      4.54508000     17.35600000     -0.00035658     -0.00650249     -0.00363307       1
H              18.04990000      7.18393000     18.54420000     -0.00295663      0.00695323      0.00245907       1
O              13.21500000      4.61465000     21.70900000      0.00026416      0.00190212     -0.00138393       8
H              12.37140000      5.81333000     20.57280000      0.00441299     -0.00124870      0.00557558       1
H              15.00310000      4.74010000     21.41890000     -0.00164266      0.00310604     -0.00935397       1
O               5.48656000      7.78964000     14.22930000      0.00439993     -0.00014051      0.00608986       8
H               6.48655000      6.92395000     15.49440000     -0.00704458      0.00367554     -0.00403674       1
H               5.97317000      9.54480000     14.20950000     -0.00411219      0.00386899      0.00928577       1
O               9.01544000     20.20260000      9.26720000      0.00035040      0.00164523      0.00024775       8
H               7.65953000     20.02070000     10.50170000     -0.00132610      0.00205067      0.00856514       1
H              10.22480000     21.38160000     10.02780000     -0.00412396     -0.00240964     -0.00326316       1
O               6.46813000      8.06824000      9.17658000      0.00337386      0.00488240     -0.00656308       8
H               7.53080000      6.68152000      8.65908000      0.00341096     -0.00131222     -0.00416193       1
H               6.70735000      8.12260000     10.98430000     -0.01006730     -0.00699887     -0.00265861       1
O               1.12795000      3.31365000     11.77440000     -0.01312120     -0.00172075      0.01602900       8
H               0.67121700      5.06495000     11.71080000      0.00100188      0.01055500     -0.00977711       1
H               1.21211000      2.69085000     10.06930000     -0.00446973     -0.00863254     -0.01428710       1
O              21.80260000      2.24474000     16.66440000     -0.00028732      0.00377998      0.00201780       8
H              22.07760000      1.87678000     14.88590000     -0.00063928     -0.00213260      0.00905234       1
H              20.95940000      0.78756000     17.35170000     -0.00294527      0.00088473     -0.00973873       1
O               1.41934000      0.54271200      7.58327000      0.00465063     -0.00210881     -0.00633326       8
H               3.02555000      0.87812900      6.75270000      0.00640192     -0.00714572      0.00446042       1
H               0.20936200      0.66131900      6.24036000     -0.00426147      0.00435122      0.00069245       1
O              13.06190000     18.38430000      4.43436000      0.00039869      0.00146070      0.00116151       8
H              14.00300000     16.83420000      4.70302000     -0.00279973     -0.00193443     -0.00458197       1
H              11.62280000     17.85880000      3.46921000      0.00052951      0.00149834     -0.00036904       1
O              13.82540000      6.57349000      3.38715000     -0.00149437      0.00185586      0.00127291       8
H              15.59510000      6.19273000      3.27803000     -0.00281067      0.00506824      0.00768913       1
H              13.20170000      5.88294000      1.81019000     -0.00129046     -0.00206577      0.00010514       1
O               9.33352000     11.88360000      5.81918000      0.00647182      0.00490716     -0.00661704       8
H               8.39955000     11.57890000      4.28396000      0.00000445     -0.00650377      0.00692654       1
H               9.73118000     10.25620000      6.53350000     -0.00739298      0.00243667      0.00384265       1
O              11.79610000      1.17053000     11.37970000     -0.00293818     -0.01054160      0.01193180       8
H              13.50220000      0.46660300     11.51720000     -0.00180717      0.00533110     -0.00433437       1
H              11.11640000      1.16818000     13.09860000      0.00746690      0.00339270     -0.00836080       1
O              19.47930000     17.17670000      3.55792000      0.00076553      0.00748961      0.00684990       8
H              18.39270000     16.87350000      2.13504000      0.00132945      0.00258454     -0.00255604       1
H              20.36310000     15.62250000      3.89710000     -0.00190164     -0.00394247     -0.00374085       1
O              21.57810000     18.90600000     19.89940000     -0.00016790      0.00381266     -0.00038849       8
H              21.74740000     17.12580000     20.21390000      0.00500987      0.00196899      0.00324343       1
H              22.04280000     19.15330000     18.15930000     -0.00682484     -0.00099462     -0.00686995       1
O               1.58429000     14.72170000     16.55020000      0.03129690     -0.00991499      0.03996960       8
H               1.53635000     13.42220000     17.88670000      0.00566327      0.01339940     -0.01485170       1
H              23.31390000     14.18490000     15.52990000     -0.03800930     -0.00422850     -0.02358720       1
