192
TotEnergy=-1102.68576000 cutoff=-1.00000000 nneightol=1.20000000 pbc="T T T" Lattice="24.42244000       0.00000000       0.00000000      -0.00000100      24.42244000       0.00000000      -0.00000100      -0.00000100      24.42244000" Properties=species:S:1:pos:R:3:force:R:3:Z:I:1
O               1.62234000      3.47180000     19.30560000      0.14240000     -0.05201430     -0.06051210       8
H               3.97279000      4.15075000     18.94340000     -0.10416600     -0.02114730      0.02415050       1
H               0.69666200      4.65225000     20.10350000     -0.02941140      0.06813910      0.03583740       1
O              18.47100000      2.99897000     23.13950000      0.01516350      0.01249360      0.07088110       8
H              17.55250000      3.00573000     21.68580000     -0.02815870     -0.00988750     -0.05625040       1
H              17.34550000      3.84701000     -0.06220900      0.01849510     -0.00304266     -0.00716452       1
O              17.52230000     19.54600000     23.16260000      0.02138310      0.03038750      0.10875400       8
H              18.05430000     20.40590000      0.96105900     -0.00840896     -0.02994840     -0.08922550       1
H              16.65610000     21.05640000     22.69110000     -0.00494137      0.00755809     -0.01681410       1
O              19.06530000     22.98270000      3.18356000     -0.00004509      0.06195770     -0.06781760       8
H              19.39010000      0.14675000      1.66536000     -0.01890240     -0.07193280      0.06787770       1
H              17.26670000     23.13140000      3.63737000      0.01211430      0.00518467     -0.00829858       1
O               2.28196000     19.08490000     11.61730000      0.00927749      0.09465070      0.05902220       8
H               2.12376000     17.77430000     10.42820000     -0.00610365     -0.02926250     -0.02677900       1
H               3.28264000     18.80120000     13.18720000     -0.01132310     -0.02846270     -0.02493720       1
O              15.47500000     19.05540000      7.74949000     -0.01944370     -0.00260672      0.01517090       8
H              13.76380000     19.09240000      8.50611000      0.01373750     -0.00715425     -0.00549553       1
H              16.39610000     20.05580000      8.96265000      0.01403300      0.00238326      0.00474074       1
O              14.26320000     16.08420000      2.00729000      0.02806560      0.02829320      0.03969510       8
H              15.01970000     17.77600000      1.62637000     -0.01128680     -0.03265530      0.00069098       1
H              14.90510000     15.67770000      3.76063000     -0.01802600      0.00506812     -0.03793590       1
O              23.61450000     20.07470000      6.39775000     -0.00936085      0.01700310     -0.02790410       8
H              22.25370000     21.31090000      6.15269000      0.00868183     -0.01191200      0.00747950       1
H              -0.28960000     19.87820000      4.60050000      0.00199468     -0.00253515      0.02090610       1
O              19.36760000     14.47290000      5.96245000     -0.11207700      0.05898520      0.04601550       8
H              20.53540000     13.83280000      7.06258000      0.04496430     -0.02546010      0.02757520       1
H              17.87530000     15.06390000      7.51422000      0.06556640     -0.02627490     -0.08002560       1
O              22.30210000     11.06900000     16.44340000     -0.00251107     -0.00525376     -0.08001100       8
H              22.16140000     10.54380000     14.36530000     -0.00183551      0.03610330      0.08692740       1
H              22.49850000     13.00200000     16.66900000      0.00799732     -0.04778880     -0.01207660       1
O               3.67031000      6.31458000     10.78720000     -0.01230780      0.10546000      0.04498490       8
H               3.58445000      4.88040000      9.95049000     -0.00088746     -0.09940990     -0.05488260       1
H               2.91858000      7.50995000      9.54697000      0.01945420     -0.01164330      0.01082200       1
O              21.62620000     23.39190000     16.61040000      0.03692140     -0.02669120      0.05551310       8
H              23.28430000     -0.19589600     16.39130000     -0.02141680     -0.00694454      0.00240422       1
H              21.97000000     22.26560000     18.21510000     -0.01609580      0.04275320     -0.04915990       1
O               4.35850000     23.38280000     14.54610000     -0.00240923     -0.05709270     -0.05485120       8
H               3.56363000     -0.02029900     15.71650000     -0.02457650      0.02553470      0.02422780       1
H               2.08804000     21.65600000     12.31860000      0.03606610     -0.00809717      0.00755177       1
O              21.63030000      3.67972000      6.10065000      0.04954190     -0.02909420      0.01738110       8
H              20.21630000      4.11294000      5.07976000     -0.01400380      0.03096230      0.01147810       1
H              22.32630000      4.56294000      7.59677000     -0.03720290      0.00643837     -0.02699220       1
O               9.11605000      8.81285000      4.58283000     -0.01140030      0.02900350      0.02922370       8
H               7.28852000      8.55511000      5.05664000      0.02795180      0.00149658     -0.00193842       1
H               9.76657000     10.28690000      5.73026000     -0.00488913     -0.03890950     -0.03328190       1
O              17.30270000      8.49150000      8.90610000     -0.05712110      0.06380760      0.08247800       8
H              17.76980000      7.19210000      7.93311000      0.01799230     -0.06717570     -0.04793170       1
H              15.78350000      7.99306000      9.98973000      0.04391460     -0.00017440     -0.03023170       1
O              11.30740000     19.06880000     11.07910000     -0.02222420     -0.09976960     -0.04660400       8
H              11.45370000     16.99460000     11.19520000     -0.01427520      0.07389860     -0.00392901       1
H              12.27240000     19.39130000     12.46990000      0.03292330      0.02493320      0.05690030       1
O              13.20080000     11.72720000      7.09051000     -0.01247080     -0.01504250      0.04570080       8
H              13.62750000      9.87472000      7.13938000     -0.00243545      0.04261010      0.00516341       1
H              12.85390000     12.82010000     10.40050000     -0.02394710     -0.01228230     -0.01521260       1
O              18.25210000     22.98870000     10.03730000     -0.00305158     -0.02335700     -0.01227800       8
H              17.99560000     -0.44257400     11.56150000     -0.00158888      0.01282140     -0.00979030       1
H              17.63010000     -0.63741600      8.51976000      0.00608414      0.01032740      0.01511680       1
O              -0.45335300     15.59190000     17.41080000      0.07620760     -0.00486267      0.03436550       8
H               1.70111000     15.87970000     17.34850000     -0.08946800     -0.00345197     -0.02459170       1
H              22.91210000     16.63620000     16.36650000      0.01979280      0.02169390     -0.01235160       1
O               8.50454000     10.37250000     23.60940000      0.00816119     -0.05021500      0.09031320       8
H               7.69948000     11.72700000      0.22884100      0.02342850     -0.00829180     -0.01843490       1
H               9.12926000      9.13607000      0.90830200     -0.02514630      0.05538100     -0.06995210       1
O              13.75370000     22.03890000      4.42300000      0.01068090      0.02828990      0.07102040       8
H              13.23630000     23.12420000      5.91278000     -0.00775173     -0.00411140     -0.04828250       1
H              14.74290000     21.07040000      5.75601000     -0.00164647     -0.02399550     -0.03286690       1
O               7.41375000     19.65780000     17.90190000      0.01646070      0.01392390     -0.10369600       8
H               6.48404000     21.05360000     17.13690000      0.00492679      0.00125570      0.00088547       1
H               6.92929000     19.61630000     19.51260000     -0.02594960     -0.00780648      0.09539600       1
O               7.59103000     -0.39450400     10.17820000      0.06296920      0.00746531     -0.09547650       8
H               8.74066000     22.62250000     10.00600000     -0.00982062      0.00424511      0.01148820       1
H               6.72965000     23.98800000     11.61020000     -0.05724810     -0.01617090      0.09471440       1
O              11.42940000     13.67330000     12.33330000     -0.04409960     -0.05641500     -0.02191330       8
H              11.93320000     12.93530000     14.06740000      0.00289917      0.00669270     -0.03313640       1
H               9.08095000     12.47180000     11.97790000      0.05935260      0.03402030      0.02865470       1
O              21.79890000     10.59800000     10.59040000     -0.03986710      0.04118330      0.01645830       8
H              19.93030000     11.39410000     10.61600000      0.07313240     -0.02997240     -0.00300064       1
H              23.09320000     11.94210000     10.68640000     -0.02733230     -0.00601492     -0.00782796       1
O               2.24877000      0.84221500      0.01473300      0.00554529      0.01169070     -0.05400130       8
H               2.45694000      1.05963000     22.56180000     -0.00325551     -0.01678360      0.02616390       1
H               2.09795000      2.63200000      0.25545000     -0.00377619      0.00694767      0.02612830       1
O              23.59320000     12.59210000      0.77117000      0.05951120     -0.05047660      0.01673010       8
H              22.79000000     13.95190000     -0.05381000      0.00615531      0.02460620     -0.02045410       1
H               0.93437500     12.06960000     24.46800000     -0.05997320      0.01936440      0.00001959       1
O              17.55820000      7.43561000     18.56410000      0.05701250      0.03145070      0.02048870       8
H              16.08190000      7.59855000     17.64070000     -0.02955950      0.00965239     -0.02459890       1
H              18.50490000      9.10758000     18.38450000     -0.02319960     -0.04487850      0.00205023       1
O               1.13402000      0.51013300      8.82346000     -0.02190610     -0.10293700     -0.00118800       8
H               1.51006000     22.32550000      8.93072000     -0.02574100      0.11241500     -0.01666950       1
H              -0.69146900      0.60258000      8.17810000      0.04557290     -0.00610043      0.01172220       1
O              21.96840000     19.09200000     14.16150000      0.02771250      0.04474570     -0.03688040       8
H              23.27940000     19.81300000     12.86530000     -0.04482880     -0.03663180      0.04091780       1
H              21.39240000     20.74200000     14.90430000      0.00489384     -0.01878350     -0.00547793       1
O              12.76490000     20.00270000     16.78260000      0.07895080      0.01674710     -0.00613594       8
H              11.04130000     19.87320000     16.55670000     -0.03984900     -0.02374440      0.01533170       1
H              13.90230000     18.69190000     17.53070000     -0.03768470      0.00346607     -0.00833982       1
O              16.00080000     15.99390000     18.08150000     -0.02157390      0.09515730     -0.02474330       8
H              15.83880000     14.56820000     18.95950000     -0.00318037     -0.08096350      0.04506120       1
H              17.15700000     15.99630000     16.76660000      0.02274330     -0.01642700     -0.02076700       1
O               5.60101000     23.10510000      5.60319000      0.06910090     -0.05387280     -0.09533210       8
H               5.62515000     23.92070000      7.03298000      0.01097290      0.06331260      0.11022100       1
H               3.96899000     22.76630000      5.33499000     -0.08109060     -0.01607630     -0.02263300       1
O               6.16038000     19.04860000     23.19890000     -0.01777660     -0.01311830     -0.00096027       8
H               7.26392000     20.37790000     23.85800000     -0.02602830     -0.00306143      0.00561298       1
H               4.42500000     18.77780000     -0.40838700      0.05065730      0.02791520     -0.00495499       1
O               7.93735000      4.34143000     18.39060000     -0.01270140      0.04518520     -0.09520920       8
H               9.24215000      3.62630000     19.30680000      0.03644600     -0.02311900      0.03278390       1
H               8.71325000      4.75769000     16.56370000     -0.02890700     -0.02396400      0.06128610       1
O               3.80709000      8.51335000      6.08378000     -0.00463381      0.09464830     -0.08805090       8
H               3.84734000     10.65300000      5.64066000     -0.00034864     -0.07963570      0.02722100       1
H               3.25432000      8.11048000      4.14338000      0.00391307     -0.00913662      0.06294730       1
O               9.45654000     23.18380000      1.75725000      0.01805400     -0.04752460      0.00529593       8
H              10.96000000     22.04910000      1.91073000     -0.01392830      0.02952390     -0.00697027       1
H               8.39173000     22.23090000      2.90629000     -0.00856985      0.02249190     -0.00159851       1
O              12.96480000      4.35458000      5.80024000     -0.08600430      0.02126430     -0.04676320       8
H              11.92210000      2.75043000      5.94814000      0.01997770      0.04408050     -0.00849372       1
H              11.58560000      5.76681000      4.65986000      0.05327510     -0.05960040      0.05816490       1
O              13.16270000     10.20720000     16.01240000      0.02071040      0.06061960      0.03406800       8
H              11.51000000      9.96793000     16.59240000     -0.02861280     -0.01687800      0.01419630       1
H              13.58890000      9.28484000     14.63120000      0.00871747     -0.04447770     -0.05066190       1
O              15.37250000     23.80800000     19.73920000     -0.06634400      0.02879490      0.05471580       8
H              14.36720000     22.83280000     18.62810000      0.00055079     -0.02117290     -0.02738400       1
H              13.72450000     -0.09831900     20.81340000      0.06327130     -0.00286717     -0.02443450       1
O               3.06651000      8.55099000     16.74520000     -0.04099460      0.00565020     -0.04055650       8
H               2.87719000      6.98654000     15.76630000      0.01136390      0.00969580      0.01025560       1
H               1.28461000      9.21831000     16.39200000      0.02868550     -0.00062743      0.02146530       1
O               8.73443000      9.72563000     18.55460000     -0.00650742     -0.00562241     -0.07367760       8
H               9.01433000     10.25960000     20.16800000      0.01040020      0.02851720      0.06895990       1
H               8.47429000      7.95416000     18.74190000     -0.00909392     -0.01845120     -0.00064342       1
O               6.66328000     12.02940000     14.01330000     -0.02026320     -0.06253420      0.06906260       8
H               4.93587000     10.75470000     14.53230000      0.05594130      0.03536240     -0.02178370       1
H               7.63521000     11.43690000     15.71870000     -0.02448430      0.01840720     -0.04497990       1
O              14.54620000     12.45760000     22.86270000     -0.05139000      0.09692830     -0.05013120       8
H              15.34500000     11.16490000     23.54350000      0.05566740     -0.07065690      0.05143090       1
H              14.52010000     13.94370000     24.03330000      0.00121764     -0.02696490     -0.00805766       1
O               3.35943000     10.78620000     22.17790000     -0.06813220      0.02230390      0.00673290       8
H               3.54320000     11.28170000     20.49700000     -0.01540980      0.01064570     -0.03177510       1
H               4.95209000     10.24480000     22.40190000      0.08077560     -0.03354630      0.03097100       1
O              -0.07617200     15.23120000      8.43825000      0.06211030     -0.09389070      0.02773870       8
H              23.47370000     16.70130000      8.38951000     -0.02677820      0.05763010     -0.03607910       1
H               1.08011000     14.50770000      7.11558000     -0.02688730      0.03910970      0.00955273       1
O               1.51203000     20.16680000      1.27804000     -0.00720625     -0.01994900     -0.02382430       8
H               1.52765000     21.78830000      0.48309800      0.00688735      0.02520610      0.01164230       1
H               0.67345300     19.27030000     -0.10176500     -0.00973588     -0.00863131      0.01739070       1
O               7.90826000     17.59290000      6.01932000     -0.01047550      0.04629620     -0.00986971       8
H               8.43973000     17.74670000      7.71763000      0.00866361     -0.00946753      0.01585270       1
H               7.57505000     19.43490000      5.70891000     -0.00307427     -0.03172680     -0.00173364       1
O              22.22140000      7.14038000     23.02340000      0.03914450      0.08809800      0.01006170       8
H              21.35190000      5.69239000     22.81100000     -0.05141190     -0.05986900     -0.00447678       1
H              21.08840000      8.57603000     23.41200000      0.01201600     -0.02901070     -0.00825118       1
O              18.73220000     10.90720000      2.07925000      0.03725280      0.09932120      0.02509420       8
H              18.52140000     13.05400000      2.61374000      0.00498715     -0.09767420     -0.01424690       1
H              20.71860000     10.95190000      2.09066000     -0.05356260     -0.00588119      0.00295274       1
O              14.41620000      5.74485000     12.49750000     -0.06282230     -0.02094880     -0.00615359       8
H              12.59270000      5.11461000     12.25770000      0.04275490      0.02344960      0.00412570       1
H              15.32930000      4.16844000     12.49410000      0.01311210      0.00600737      0.00553617       1
O              22.60950000      5.59975000     11.29830000     -0.07386160      0.02643540      0.00148920       8
H              -0.19580100      5.13126000     11.39630000      0.08370930     -0.02973590      0.00762557       1
H              22.65680000      7.38761000     11.75520000     -0.01369220     -0.00877778     -0.01370370       1
O              11.34810000      2.53395000     22.44050000      0.03164210      0.06578680      0.03500670       8
H              10.23990000      2.31288000     23.92010000      0.01419590     -0.00409957     -0.01767080       1
H              12.48820000      4.32304000     22.95340000     -0.04814570     -0.05889140     -0.02555350       1
O               7.92077000     14.78120000      1.51909000      0.00905725      0.02960930      0.03453050       8
H               8.65699000     15.60220000      3.02982000     -0.00471999     -0.02767210     -0.00238683       1
H               8.02774000     16.30460000      0.55383200     -0.01097220     -0.00053440     -0.02756660       1
O              22.53930000     16.98690000     22.54620000      0.01518870     -0.02199730     -0.08408410       8
H              20.79300000     16.97220000     21.85520000      0.01903850      0.01031460      0.01897950       1
H              23.52930000     16.47770000     20.79020000     -0.03706750      0.01457650      0.05889140       1
O               3.27258000     13.76160000      4.39299000     -0.00778294     -0.01672450      0.06513650       8
H               4.53716000     14.60000000      3.53203000      0.03668060      0.02054100     -0.02667580       1
H               2.06062000     13.15060000      3.29930000     -0.03464900     -0.00700196     -0.03475880       1
O               1.38073000      6.32831000      2.23472000      0.02357540      0.04329670     -0.08527610       8
H               0.39131600      7.07225000      0.66024100      0.01796360     -0.02538710      0.04648950       1
H               0.19330600      5.68069000      3.31085000     -0.04328110     -0.02144500      0.03471130       1
O              13.83590000      7.14965000     22.43200000     -0.00426658     -0.08048810      0.04808120       8
H              15.16390000      6.59302000     21.40690000      0.02133830      0.02070670     -0.02538750       1
H              13.07430000      8.67085000     22.20410000     -0.01710890      0.05687080     -0.02059080       1
O               4.25443000     16.33130000     15.15620000      0.04563260     -0.01467630     -0.01357260       8
H               5.26273000     17.89650000     15.51230000      0.00086268     -0.03669360      0.01238220       1
H               5.53653000     14.78340000     14.54510000     -0.03869760      0.04712970      0.02240230       1
O              17.31410000      6.41002000      3.72456000     -0.00427403      0.05899760      0.00760757       8
H              15.72640000      5.52170000      4.06455000      0.00941370      0.01765750      0.00479846       1
H              17.20780000      9.07064000      4.01839000      0.01559280     -0.08465430     -0.02785340       1
O               8.82493000      4.47743000     12.52030000      0.02384840      0.09643450      0.02039340       8
H               8.52589000      2.82834000     12.44940000     -0.01876400     -0.09260210     -0.01029560       1
H               7.24167000      5.34713000     12.37840000     -0.00339575      0.00037899     -0.00856326       1
O              18.39750000     15.59140000     12.22780000      0.06518700     -0.05239880      0.00143979       8
H              16.74010000     15.72830000     11.89950000     -0.06805250      0.02269510     -0.00799091       1
H              19.30160000     16.94570000     12.92920000      0.00393964      0.03109140      0.00466388       1
O              18.48470000      2.40173000     13.42960000     -0.00715583      0.02873450     -0.10653000       8
H              18.98470000      1.96137000     14.97900000      0.03077000     -0.01854910      0.07954080       1
H              19.94580000      3.06458000     12.39540000     -0.02485160     -0.00537360      0.02929180       1
