192
TotEnergy=-1102.68101000 cutoff=-1.00000000 nneightol=1.20000000 pbc="T T T" Lattice="23.84683000       0.00000000       0.00000000      -0.00000100      23.84683000       0.00000000      -0.00000100      -0.00000100      23.84683000" Properties=species:S:1:pos:R:3:force:R:3:Z:I:1
O               5.81522000     20.67960000     22.06550000     -0.08292900     -0.04938600      0.00233288       8
H               7.50190000     20.06490000     21.32480000      0.02096250      0.02062830      0.00763134       1
H               4.40957000     19.18530000     21.71150000      0.04652610      0.01351720      0.00063942       1
O              19.55430000      1.43975000      3.99697000      0.03622480     -0.02783680      0.03017690       8
H              20.62070000      2.95668000      3.74306000     -0.00867633     -0.02493530      0.01068080       1
H              20.54000000      0.05063000      5.01938000     -0.02133900      0.05298380     -0.03823350       1
O              13.38240000      0.94581600     13.35760000     -0.05907940      0.04503140      0.01507770       8
H              11.67690000      0.72734700     12.29310000      0.03887450      0.01159770      0.02231000       1
H              13.03060000      2.48286000     14.55630000      0.00872624     -0.04807920     -0.04236400       1
O              12.89010000     17.91630000      9.79311000     -0.04160070      0.00092217     -0.01674940       8
H              14.51460000     18.03510000     10.37650000      0.04347790      0.00610861      0.02270680       1
H              12.90540000     18.89500000      8.21636000     -0.01143600     -0.01220280      0.00814663       1
O              16.79970000     13.15830000     15.75100000      0.04232130     -0.04456420     -0.05980890       8
H              17.66200000     11.76120000     14.48350000     -0.04357080      0.04902590      0.05238910       1
H              18.21150000     13.24720000     16.92450000     -0.00866643     -0.00253904      0.00611909       1
O              23.30850000     11.85350000     22.81730000     -0.00570588      0.04499650      0.02781690       8
H              24.94940000     11.12450000     23.26410000     -0.00048916     -0.01257460      0.00293999       1
H              23.26830000     13.53990000     23.72260000      0.00802947     -0.03193290     -0.02330150       1
O               9.39559000     13.82600000      9.95707000     -0.15316300     -0.01396500      0.00286796       8
H               8.41376000     15.41700000      9.94694000      0.00761092     -0.03095660     -0.01300350       1
H              10.92200000     14.37810000     10.10520000      0.14721300      0.04190930      0.00338794       1
O              16.07290000     19.60930000      3.01879000      0.00037057     -0.03930510      0.01280560       8
H              17.05870000     18.89060000      4.41992000     -0.01281180     -0.00369148     -0.00328717       1
H              16.68580000     21.24350000      2.91336000      0.00715065      0.03979630     -0.00564618       1
O              17.71870000     20.45750000     11.83450000     -0.05649310     -0.04256360     -0.01879380       8
H              19.04480000     21.54650000     11.55400000      0.04115850      0.03682000      0.00228911       1
H              18.05050000     19.28200000     13.12020000      0.01058550     -0.00012482      0.01693520       1
O               2.67952000      7.96348000      5.12726000      0.00574850      0.00950057      0.03034630       8
H               3.78689000      8.17825000      6.66661000     -0.01874200     -0.01520290     -0.03094330       1
H               1.71386000      6.41645000      4.96347000      0.02039370      0.00356887      0.01499460       1
O              15.60240000     12.99400000      7.14709000     -0.06001540     -0.01766200     -0.06252430       8
H              14.54970000     12.03860000      5.72824000      0.03685290      0.03503460      0.04222300       1
H              16.39980000     11.68050000      7.98577000      0.01731550     -0.03164950      0.01966240       1
O              23.53160000     16.39600000     16.01160000      0.17912100     -0.04381200      0.08789300       8
H              22.31570000     16.66340000     15.06100000     -0.18202700      0.04203880     -0.11772800       1
H              24.84310000     16.28210000     14.68850000     -0.00855890      0.00777305      0.02944600       1
O               6.84260000      5.13541000     11.44400000      0.04243110      0.01089640      0.05323330       8
H               7.16234000      5.49976000     13.32940000     -0.00004451     -0.01573660     -0.04773670       1
H               8.60477000      4.63251000     10.88560000     -0.04379090      0.00001960      0.00722855       1
O              11.66230000      8.35957000      3.04210000      0.03146310     -0.01727180     -0.00857486       8
H              10.36790000      7.13299000      2.58440000      0.00796078      0.00345595      0.01118430       1
H              13.39230000      7.39089000      3.13841000     -0.04426890      0.02121150     -0.00133745       1
O              20.93910000     12.34150000     18.49800000      0.00288095      0.02066670     -0.07843090       8
H              22.07370000     13.50970000     17.49900000     -0.01730980     -0.02249190      0.02126050       1
H              21.61180000     12.36330000     20.09370000      0.02760720     -0.00121237      0.05234730       1
O               2.17847000     22.67640000      0.92049800      0.00666502     -0.00297993     -0.06058880       8
H               3.73859000     21.75190000      0.29800800     -0.05150000      0.03311740      0.04678360       1
H               1.11847000     23.34350000     -0.68589700      0.02237400     -0.02674350      0.04521880       1
O               2.46405000     12.99680000     11.98500000      0.01548000     -0.00940201      0.01694720       8
H               2.58925000     13.60630000     13.69220000     -0.00304554     -0.00119227     -0.00281431       1
H               2.96721000     11.18680000     12.32550000     -0.02462930      0.00989166     -0.01841470       1
O               7.02412000     16.00440000      4.91066000     -0.02522740     -0.06225740     -0.04292340       8
H               6.42546000     14.17360000      4.25152000      0.03529900      0.06021290      0.02352550       1
H               7.90824000     16.62760000      3.40857000     -0.00321064     -0.00818150      0.01822910       1
O              16.06550000      6.09410000      2.92582000     -0.02202130     -0.01541100      0.02265470       8
H              17.16460000      5.76845000      4.35718000     -0.00145431      0.00830258     -0.02189090       1
H              16.73980000      6.53963000      1.33484000      0.02302390      0.00098760     -0.00179089       1
O               0.71246300      1.28062000     14.55060000      0.06932960     -0.04205060     -0.04928860       8
H               0.54603300      2.09157000     16.06790000     -0.00836923      0.02606600      0.04578520       1
H               2.64683000      0.86880800     14.57680000     -0.05719230      0.01688120      0.00385625       1
O               4.13426000      2.00054000      4.62345000     -0.05941610     -0.01092720     -0.03725840       8
H               3.90076000      0.40052900      5.47034000      0.00548039      0.01002980     -0.00080044       1
H               2.75023000      1.89830000      3.22178000      0.05071790      0.00143085      0.03938670       1
O              13.17850000     21.43010000     17.10830000      0.02756020     -0.02339120      0.05189810       8
H              13.39340000     22.70920000     15.86440000     -0.00323413      0.01829430     -0.02201160       1
H              14.88500000     21.33810000     17.97030000     -0.02835470     -0.00426424     -0.02924300       1
O              11.13600000     19.76780000     21.56310000      0.01942340      0.06646600     -0.00040202       8
H              12.19910000     20.66680000     20.13870000     -0.03579320     -0.02279350      0.01885940       1
H              11.50500000     21.11660000     22.91650000     -0.00573520     -0.02457830     -0.02229900       1
O              22.75850000      7.74368000     16.06460000     -0.01944100      0.03111250      0.04879160       8
H              23.11970000      6.29755000     17.09380000      0.00122802     -0.00996816      0.00312873       1
H              22.18900000      9.05455000     17.44070000      0.01549160     -0.02691780     -0.04777540       1
O               3.96033000      4.75131000     21.97120000      0.03855370      0.02931260      0.00508915       8
H               5.40769000      3.54841000     22.28820000     -0.00386260      0.00383005     -0.00678489       1
H               4.93516000      6.41645000     22.10790000     -0.03622820     -0.04120780      0.00434429       1
O              12.20110000      0.92309200      5.21371000     -0.08342610     -0.02807480     -0.13002200       8
H              12.77720000      1.40429000      6.65209000      0.06475460      0.04898470      0.12933900       1
H              10.83770000      2.15437000      4.77126000      0.01079730     -0.00916726      0.01421880       1
O               8.42527000      2.46555000     22.41130000      0.00719453     -0.03369030      0.00465903       8
H               9.67030000      1.15768000     22.95510000     -0.02353880      0.03403900     -0.01216050       1
H               4.53859000     -1.58694000     21.76270000      0.05900540     -0.00323520     -0.00971990       1
O               7.02271000     11.32190000     14.91880000      0.01315880      0.02466280     -0.04122690       8
H               6.23318000     10.96500000     13.28290000      0.01031220     -0.00507925      0.01622130       1
H               7.96569000     12.86300000     14.49630000     -0.00200111     -0.01662930      0.00626835       1
O               6.94291000     20.22200000     10.60090000     -0.05738640      0.07910490     -0.05500470       8
H               5.31430000     19.52300000      9.71156000      0.02754720     -0.00337294      0.02040420       1
H               7.99547000     19.10360000     11.33190000      0.04909360     -0.04301830      0.02767960       1
O               9.16297000      1.00903000      9.64027000     -0.03641750     -0.04190250      0.04673200       8
H               7.78380000     -1.68073000      9.93401000      0.01571100      0.02129510      0.01247750       1
H              10.11270000      0.31459300      8.36401000      0.02392100     -0.01281890     -0.03483310       1
O               4.12108000     19.28040000     14.95690000     -0.01967780     -0.01311300      0.00522865       8
H               5.85798000     18.92300000     14.99780000      0.03125550     -0.01405690      0.00468749       1
H               4.18017000     20.86340000     14.14700000     -0.01044580      0.02117760     -0.00268653       1
O              -0.03657800     17.13490000     22.73070000     -0.00180838      0.01008210     -0.04527720       8
H               0.76878400     17.02570000     20.98290000     -0.01006140     -0.00744362      0.03816670       1
H               1.26537000     17.50210000     23.91120000      0.00157135     -0.00460709      0.00694595       1
O              18.77340000      9.74719000      0.22134500      0.09272940      0.02299620     -0.03585900       8
H              17.28940000     10.66680000      0.70338500     -0.00741182      0.01694790      0.00015228       1
H              20.30520000     11.03880000     -0.50289000     -0.05881170     -0.05856120      0.03458220       1
O              22.94070000     22.38240000     20.79780000     -0.08061630      0.11764500     -0.03708190       8
H              23.19660000     20.89790000     21.38540000      0.04263080     -0.15274400      0.05007990       1
H              21.01310000     22.22200000     21.20170000      0.03481650      0.03029090     -0.01063540       1
O              18.57340000      4.99414000     21.04680000      0.04729110     -0.06588020     -0.04291600       8
H              20.29590000      4.18978000     20.37260000     -0.04414150      0.02904740      0.01719500       1
H              19.11120000      6.51982000     21.70160000      0.00988251      0.04713950      0.02008270       1
O              17.23900000      7.02951000      8.32366000     -0.03173560     -0.01137420      0.02454900       8
H              17.18430000      5.22273000      8.78555000     -0.00939524      0.00997373     -0.00505127       1
H              18.85490000      7.31682000      7.75132000      0.04632530      0.00695659     -0.01952010       1
O              22.50010000     20.71680000      6.04991000     -0.03456110     -0.04346350     -0.00629141       8
H              23.38940000     19.64400000      4.87795000      0.01704880      0.01571100     -0.00863342       1
H              21.02750000     19.50690000      6.06922000      0.01149610      0.02443470      0.01517600       1
O              21.11230000     24.02040000     10.86490000     -0.03414280     -0.02053660     -0.10496000       8
H              21.62240000     22.94550000      9.33017000     -0.00856461      0.03407990      0.03812180       1
H              22.18660000     23.46790000     12.07260000      0.05267490     -0.00805190      0.05981100       1
O               3.13315000     17.93000000      9.22415000      0.03720370      0.01907110      0.05467070       8
H               2.40466000     16.61530000     10.14200000     -0.00358769     -0.02946760      0.02858230       1
H               2.34999000     17.84200000      7.74762000     -0.04048120      0.00583098     -0.08830080       1
O              10.98940000     19.50290000      5.54499000     -0.01351320     -0.02111230      0.00192978       8
H              11.55820000     18.59760000      4.11094000      0.00925098     -0.01373160     -0.00584883       1
H              11.45850000     21.13140000      5.07161000      0.00812575      0.04501360     -0.00301238       1
O              15.89560000      2.15192000      9.15779000     -0.01519020      0.11594700     -0.26264600       8
H              17.21330000      1.27347000      9.39249000      0.15299300     -0.09448690      0.00180500       1
H              15.31680000      1.95771000     10.55080000     -0.13563000     -0.02341560      0.26176200       1
O               3.78918000      9.38720000      0.70726900     -0.08429440     -0.08745990     -0.04826730       8
H               3.35627000      9.00420000      2.39253000     -0.00083217     -0.01044570      0.03044490       1
H               4.70655000     10.73820000      0.66168700      0.08758430      0.10564700      0.00071311       1
O               3.66897000     16.30710000     19.51190000      0.01081780     -0.00957969      0.00354646       8
H               3.71748000     17.25040000     17.96650000     -0.00270554      0.00192198     -0.00787068       1
H               3.74754000     14.37830000     19.08820000     -0.00245122      0.03150640      0.02041210       1
O              12.98450000      0.56733100      0.50131900     -0.00166561     -0.01170080      0.01198440       8
H              14.77010000      0.79801300      0.74340500     -0.00006656      0.00055974     -0.01387100       1
H              12.38640000      0.85784000      2.23688000      0.01142410     -0.00379602     -0.02166730       1
O              17.67400000      7.89276000     13.86740000      0.00075657      0.01103650     -0.05502870       8
H              18.95090000      6.81874000     14.52420000      0.01854430     -0.00006660      0.00176199       1
H              17.93210000      7.86903000     11.95840000     -0.01099980     -0.00479869      0.04103020       1
O              14.66620000      5.87173000     17.17870000     -0.09383260     -0.16445700      0.26513900       8
H              15.38190000      6.52975000     16.05160000      0.13140200      0.16519300     -0.27238900       1
H              16.31290000      5.25527000     17.91540000     -0.04245970     -0.00113093      0.01776240       1
O               8.05535000      5.27316000      4.82489000     -0.02817910     -0.02643470      0.00124862       8
H               6.36788000      4.36574000      4.61613000      0.04247720      0.01751480      0.00852744       1
H               8.14656000      5.81871000      6.57231000     -0.00460752      0.00138001     -0.01229910       1
O              23.51000000      3.41895000     19.62110000      0.00125134      0.02086390     -0.00345197       8
H              25.10390000      3.97248000     20.39960000      0.00597326      0.01393550      0.00682870       1
H              23.84470000      1.67642000     19.48040000     -0.00818076     -0.02623960     -0.00122627       1
O               2.48415000      7.89372000     12.44590000     -0.00684245     -0.00382777      0.02439910       8
H               1.30969000      7.41702000     13.87230000      0.01568530      0.01644690     -0.02338110       1
H               3.90352000      6.75065000     12.53100000     -0.00607156     -0.00297661     -0.00849465       1
O              18.63130000     18.54290000     22.36000000      0.00779863     -0.02597610      0.00169750       8
H              19.74140000     17.07480000     22.57780000     -0.00915853      0.02018680     -0.00137631       1
H              17.54960000     18.55500000     23.83390000     -0.00018021      0.00331342      0.00205028       1
O              17.58750000     18.98800000     17.47640000     -0.01224540     -0.05337900      0.00734215       8
H              17.09370000     17.78750000     16.10780000      0.00163275      0.01690820      0.02972170       1
H              17.21370000     17.96390000     19.08220000      0.01802530      0.02938630     -0.03405090       1
O              11.54280000     14.90170000     22.53470000     -0.01383140     -0.02788160     -0.05564720       8
H              11.64780000     16.68680000     22.49950000      0.00050629      0.02257360     -0.00103421       1
H              11.14600000     14.43050000     20.61230000      0.01608570      0.00409242      0.05479570       1
O               8.12238000     11.94830000      1.00617000      0.02869840     -0.00770594      0.04620180       8
H               9.38792000     12.73500000     -0.08337800     -0.00635663      0.00366726      0.01152850       1
H               9.14826000     11.27960000      2.54415000     -0.02456890      0.00887922     -0.05047200       1
O               7.00964000      9.45795000      8.40498000      0.07232730      0.10634200     -0.06585440       8
H               6.38713000      8.92096000      9.87786000     -0.02342940     -0.03047280      0.07586080       1
H               8.34111000     11.48510000      8.88383000     -0.05024480     -0.07162940     -0.01161390       1
O               2.27482000     15.70070000      3.01178000      0.02523970      0.02023670     -0.01192210       8
H               4.04538000     16.21120000      3.26901000     -0.00024912      0.00763221     -0.02177340       1
H               2.27639000     15.23360000      4.69256000     -0.02885310     -0.02728610      0.04412270       1
O              14.83230000     11.98190000      1.28143000     -0.04477560     -0.04741880     -0.01822060       8
H              13.44760000     11.02920000      0.26801800      0.03991890      0.02348400      0.04065650       1
H              14.35230000     13.65760000      1.05862000     -0.00770711      0.03300950     -0.01054660       1
O              18.38830000      0.31136400     22.88010000      0.00675091      0.04839780     -0.06550520       8
H              18.89160000      2.18735000     22.58750000     -0.02650650     -0.04390480     -0.00731208       1
H              18.68560000      0.39694900     24.56570000      0.01520280     -0.01118890      0.07475870       1
O               9.76565000      5.05892000     16.59920000     -0.02244240      0.01433870      0.05115500       8
H               9.17325000      5.44360000     18.39570000      0.00544580     -0.02071660     -0.04270830       1
H              11.55460000      5.08448000     16.95090000      0.00700877      0.00250167     -0.00532035       1
O               3.80891000     11.70460000     18.19790000      0.01853830     -0.06066220      0.00392378       8
H               4.57376000      9.87916000     18.25830000     -0.03360360      0.05735520      0.01154390       1
H               4.94460000     12.26080000     16.86340000      0.00031306     -0.00480026     -0.00542988       1
O               5.45695000      0.96283300     17.47140000     -0.00892775     -0.05730250      0.01833270       8
H               5.99317000     -2.44653000     19.28360000     -0.00552196      0.06108190     -0.06568470       1
H               7.25269000      0.95122100     17.25920000      0.00842948      0.00785180      0.00349934       1
O              21.64790000      7.26635000      4.25186000     -0.14109100     -0.16841000     -0.06512780       8
H              20.81980000      8.24488000      3.06677000     -0.03165330      0.02142520     -0.04203290       1
H              22.66030000      8.24550000      4.89524000      0.16128800      0.14583900      0.10363500       1
O              11.16250000     12.40110000     18.26190000      0.00491027     -0.04393390      0.00828354       8
H              12.31230000     11.03600000     18.84600000     -0.00149898      0.02754690     -0.01078350       1
H               9.73882000     11.29340000     17.92350000     -0.00177347      0.01320630     -0.00326135       1
O              18.21680000     17.02000000      7.25108000     -0.01527400      0.00907405      0.05955430       8
H              16.94890000     15.46220000      7.36464000      0.02990270      0.03238600     -0.00896736       1
H              18.19980000     17.90510000      9.03826000     -0.00289213     -0.02515580     -0.05837090       1
O               9.03954000     17.40720000     15.54150000      0.04479790     -0.00241579     -0.00970093       8
H              10.05010000     18.31380000     16.90880000     -0.01375100     -0.02093330     -0.04262290       1
H              10.28610000     16.75160000     14.20010000     -0.02466360      0.02458110      0.04716670       1
