192
TotEnergy=-1103.72228000 cutoff=-1.00000000 nneightol=1.20000000 pbc="T T T" Lattice="23.04124000       0.00000000       0.00000000      -0.00000100      23.04124000       0.00000000      -0.00000100      -0.00000100      23.04124000" Properties=species:S:1:pos:R:3:force:R:3:Z:I:1
O               4.67852000     10.19990000      5.00840000      0.00334943     -0.00339486     -0.00138755       8
H               4.68572000     11.99900000      5.12889000      0.00653229      0.00075251      0.00745333       1
H               5.06138000      9.38749000      6.66088000      0.00518845      0.00766354     -0.00603482       1
O               0.84677200      0.82402700     16.58560000     -0.00239892      0.00305809     -0.00136462       8
H               1.77091000     22.62540000     15.65550000      0.00276265     -0.00322607     -0.00298646       1
H              22.17750000      0.24470800     16.49470000      0.00259713      0.00013486      0.00554243       1
O               8.95078000     14.56830000      6.81806000     -0.00684008      0.00486036     -0.00539943       8
H               8.14358000     14.91530000      5.16247000      0.00752857     -0.00016858      0.01412200       1
H              10.00060000     13.11570000      6.66595000      0.00343379     -0.00770902     -0.00837313       1
O              15.50470000     19.87580000      9.38218000      0.01950930     -0.01181680      0.00275308       8
H              16.05520000     18.41170000      8.38011000     -0.01212030      0.02031570     -0.00104927       1
H              16.86000000     19.91180000     10.61540000     -0.00478103      0.00068501     -0.00000814       1
O               7.69455000     16.14170000     21.25100000     -0.00038078     -0.00091188     -0.00959917       8
H               7.12072000     17.67600000     20.48350000     -0.00368743      0.00010423     -0.00080865       1
H               8.07556000     15.04720000     19.79650000     -0.00298027     -0.00197735      0.00429778       1
O              19.20620000     11.26100000     17.70900000     -0.00969130      0.00581664     -0.00327050       8
H              19.27730000     11.92310000     16.01060000      0.00777873      0.00001058      0.00300255       1
H              17.61860000     11.99290000     18.30630000      0.00504368     -0.00394441     -0.00275465       1
O               5.50763000      8.32311000     15.77260000      0.01258530      0.01087620      0.00205070       8
H               3.69362000      8.25008000     15.63800000     -0.00548512     -0.01393530     -0.00843060       1
H               6.06969000      6.64813000     16.15630000     -0.00131692      0.00100542     -0.00113139       1
O               1.35356000     17.40740000     12.05830000      0.00087703     -0.00061118     -0.00235587       8
H               1.73544000     16.23810000     13.44560000     -0.00252494      0.00036252     -0.00298595       1
H               1.22496000     16.34140000     10.56660000      0.00501015     -0.00118196      0.00531222       1
O              12.66240000     18.61830000     22.11640000     -0.00340945      0.01386080     -0.00076673       8
H               9.97313000     22.47550000     21.57840000      0.01663210      0.00945915     -0.02996800       1
H              11.79000000     17.26120000     21.26440000      0.00224303      0.00620862      0.00776106       1
O              21.91970000     20.34230000      6.93846000      0.01233960     -0.00896634      0.00523067       8
H               0.33274300     20.19420000      8.06739000     -0.01002920      0.00748054     -0.00684609       1
H              -0.33647300     20.01630000      5.33080000     -0.00066711      0.00090031     -0.00076484       1
O              17.76130000     14.77310000     11.80700000     -0.02858670     -0.04099420     -0.01260330       8
H              18.12260000     16.30260000     12.62140000      0.01363380      0.03160930      0.01424480       1
H              16.09310000     14.29930000     12.45030000      0.01736960      0.00040638     -0.00570205       1
O               8.48338000     23.11450000      3.85233000      0.01514020     -0.02085350     -0.00380586       8
H               9.71370000     21.68940000      4.07647000     -0.00530486      0.00722530      0.00678534       1
H               8.24845000     -0.12661900      2.06725000     -0.00835753      0.01079800      0.00219447       1
O               0.69732400     15.07920000      2.99286000     -0.00240550      0.01250090      0.00131739       8
H               0.61855300     13.79740000      1.70047000      0.00008810     -0.00306004     -0.00672073       1
H               1.61216000     14.43280000      4.42235000     -0.01265160     -0.00357407      0.00442480       1
O              22.15710000     10.74200000     12.16480000      0.00403085      0.00286778     -0.00308508       8
H              22.29000000      8.99154000     11.66790000     -0.00614246      0.00761691      0.00402555       1
H              20.59090000     11.48020000     11.66940000     -0.00648290     -0.00270265     -0.00747153       1
O               4.08503000     20.21540000     20.06730000      0.00427241      0.00247757     -0.00350272       8
H               2.67296000     19.33760000     19.25620000      0.00023268     -0.00288734      0.00437082       1
H               4.43362000     21.54860000     18.88210000      0.00282127      0.00109290      0.00039689       1
O               5.85971000      7.93032000      9.25706000      0.01718180      0.00463502      0.00318583       8
H               7.49286000      7.08924000      9.01763000     -0.00924013      0.00560107     -0.00197162       1
H               6.14731000      9.38079000     10.36440000     -0.00186478     -0.00645658      0.00345452       1
O              22.33550000      4.57733000     22.68010000     -0.00072551      0.00916572     -0.00580759       8
H              22.40650000      3.84664000      1.28196000     -0.00082061     -0.00886434      0.00067169       1
H              22.75950000      3.32975000     21.44700000     -0.00123855     -0.00373197      0.00111628       1
O              14.99780000      1.98631000     20.27310000     -0.00409908     -0.01493540     -0.01216930       8
H              14.85520000      0.46356000     21.28090000      0.00525235      0.00780522      0.01221860       1
H              14.56150000      1.28261000     18.65210000      0.00365859      0.00390119     -0.00244015       1
O              20.63130000      3.76772000      9.35891000     -0.01325980      0.00266445     -0.00655403       8
H              19.51060000      4.94841000     10.18510000      0.00404069     -0.00138742     -0.00291172       1
H              19.80310000      3.41987000      7.73894000      0.01274030      0.00490661      0.00626536       1
O              11.50450000      5.11278000      1.77539000     -0.04304830     -0.01236740     -0.01556810       8
H              12.77050000      5.46290000      2.96236000      0.02744860      0.00705786      0.01176120       1
H              11.99770000      5.50808000      0.08512400      0.01273630      0.00599581      0.00218698       1
O               4.95788000     11.43870000     19.74180000      0.00629186     -0.02030280     -0.00794204       8
H               5.84596000     10.15810000     20.70880000     -0.00140373      0.01104420      0.00699673       1
H               5.26462000     10.69490000     18.04590000      0.00033199      0.00507596      0.01385780       1
O              22.92060000     17.92330000     18.60630000     -0.00668279     -0.00805448      0.03568130       8
H               0.26977200     16.14450000     18.60230000     -0.00075971     -0.00082273     -0.01181760       1
H              22.45350000     18.11810000     20.46770000     -0.00136991      0.00701183     -0.02670900       1
O              19.86740000     19.10060000     13.21420000      0.00218081      0.00740287      0.00375383       8
H              19.97620000     19.08130000     15.02050000     -0.00527260     -0.00170624      0.00476792       1
H              21.54420000     18.47610000     12.69690000      0.00202429      0.00139887     -0.00324632       1
O              18.19100000      7.74418000     23.00630000     -0.00289008     -0.00072118      0.00048700       8
H              18.63790000      9.48641000      0.14145300     -0.00300960      0.00269860      0.00436841       1
H              19.73600000      6.83726000     22.59380000     -0.00077531     -0.00359580     -0.00496210       1
O              12.59470000     11.91530000     11.37730000      0.00233358      0.00538083     -0.00803475       8
H              12.26560000     11.15780000      9.74947000      0.00570189     -0.00332890     -0.00151173       1
H              12.64970000     13.70650000     11.03170000     -0.00849558     -0.00075452      0.00956208       1
O               6.06177000     16.67780000      3.29699000      0.00263909      0.00275268      0.00031039       8
H               5.96862000     16.97600000      1.48599000      0.00448985     -0.01163060      0.00493270       1
H               4.39310000     16.34400000      3.88909000     -0.00389677      0.00744088     -0.00781015       1
O               9.02438000     13.65430000     16.50300000      0.00592988     -0.01059200      0.00136469       8
H               9.72840000     15.18420000     15.75530000      0.00095546     -0.01953560     -0.00017256       1
H              10.44680000     11.24550000     16.24750000     -0.01426850      0.04295300      0.00288407       1
O               6.31306000      3.10249000     21.85860000      0.00554627      0.01108400      0.01442750       8
H               4.87599000      2.92637000     22.98990000      0.00249996     -0.00242388     -0.00777205       1
H               7.29214000      4.27897000     22.87690000     -0.00199391     -0.00255185     -0.00651681       1
O               3.49824000      3.21869000      3.48377000     -0.00689807      0.00645289     -0.00982301       8
H               3.66075000      2.74178000      5.24219000     -0.00292389      0.00813869      0.00263914       1
H               2.02056000      4.31680000      3.43395000      0.01356320     -0.00490073      0.00394361       1
O              12.82810000     22.37440000     13.82440000      0.02049980      0.01876050     -0.00505494       8
H              14.39740000     23.39070000     13.70110000     -0.01632870     -0.01433980      0.00686080       1
H              12.83000000     21.52790000     12.21160000     -0.00187907     -0.00064872     -0.00264712       1
O               0.98993500      6.79486000     14.30460000     -0.00276769     -0.00342208     -0.00539650       8
H              22.61270000      6.86775000     15.49780000      0.00742603     -0.01267010     -0.00193441       1
H               1.15591000      5.06892000     13.75610000     -0.00211491      0.00210292      0.00737364       1
O               4.38130000     21.26780000      7.36324000      0.00002150      0.01059790     -0.01358300       8
H               4.70269000     21.39510000      5.56097000      0.00508976     -0.00697441      0.00861597       1
H               4.63536000     22.99730000      7.91925000     -0.00521805     -0.00772787      0.00386812       1
O               9.94482000     23.27830000     19.80490000      0.00542342     -0.01826510      0.03863140       8
H               8.75872000     22.20360000     18.89830000     -0.00703856     -0.00174276     -0.02133510       1
H               9.11853000      1.89125000     19.83430000     -0.00586509     -0.00338462      0.01120030       1
O               0.39085600      8.52499000      3.31109000     -0.01170600     -0.01361120      0.00414782       8
H              -0.06049700      9.66341000      1.98383000      0.00452338     -0.00027263     -0.01017630       1
H               2.04907000      9.01691000      3.90348000      0.00411836      0.00580961     -0.00035759       1
O              21.09620000     18.99820000      0.31356600      0.00761072     -0.00388634      0.00415235       8
H              21.91560000     17.64080000      1.25315000     -0.00478243      0.00550972     -0.00050627       1
H              22.19280000     20.47270000      0.66801400     -0.00330939     -0.00577257     -0.00076934       1
O              12.36700000     10.10190000      6.19103000      0.02571970     -0.01202840      0.00840189       8
H              13.53130000      8.76497000      6.77057000     -0.01806310      0.01293690     -0.00427719       1
H              13.55280000     11.15160000      5.25200000     -0.00386172     -0.00070953     -0.00460196       1
O              18.11080000     15.88900000      6.28598000     -0.01127990     -0.00224806     -0.00834279       8
H              19.79490000     16.26250000      5.78775000      0.00967829      0.00778916      0.00442178       1
H              18.08340000     15.38240000      8.02396000      0.00569036     -0.00650455      0.00950381       1
O              15.41470000      7.19951000     10.50360000     -0.00003817     -0.00784449     -0.01540940       8
H              14.74380000      5.50097000     10.30550000      0.00768245      0.00311607      0.01050610       1
H              15.26680000      7.68201000     12.21880000     -0.00236256     -0.00088007      0.00747199       1
O               6.24642000     13.30370000     11.43650000      0.01885010      0.00132082     -0.01262260       8
H               7.06103000     13.73700000     13.04250000      0.00128012     -0.01039410     -0.00200920       1
H               7.54866000     13.65070000     10.12120000     -0.02223640      0.00220575      0.01637560       1
O              17.17960000     19.09520000     18.39070000      0.00093602      0.00453224      0.01832850       8
H              16.23370000     19.44450000     19.94620000     -0.01505440     -0.00705567     -0.00947564       1
H              18.81550000     18.86330000     19.14230000      0.00483969     -0.00399899     -0.00582328       1
O              11.96410000     19.09790000      3.94037000     -0.00853859     -0.00809841     -0.00720724       8
H              11.20020000     17.86530000      5.06396000      0.00539450      0.00530960     -0.00954802       1
H              11.98570000     18.41490000      2.07507000      0.00627927      0.01405780      0.00874357       1
O              14.72390000     14.11210000     17.23170000     -0.00725996      0.01384620      0.00087158       8
H              15.41090000     15.79420000     17.55030000     -0.00073171     -0.00631255      0.00266429       1
H              12.92840000     14.28310000     17.68630000      0.01226500     -0.00519419     -0.00400719       1
O               0.37271400     11.97390000     22.00160000      0.00515095      0.00023935     -0.00320275       8
H               2.08482000     11.83060000     21.29330000      0.00339829     -0.00268253      0.00010916       1
H              22.39440000     11.60230000     20.55360000     -0.01101840     -0.00029697     -0.00212409       1
O              11.68970000      9.74481000     15.69100000      0.01000380     -0.02539760     -0.01209100       8
H              12.82860000      8.84976000     16.81600000     -0.00550170      0.00196689      0.01445360       1
H              12.51690000     10.19280000     14.08720000     -0.01023690      0.01388880      0.00036413       1
O               8.17688000      9.13376000      1.06768000      0.00715575     -0.01149050      0.00434455       8
H               9.08316000      7.72407000      1.85635000      0.00201756      0.00752400     -0.00937444       1
H               7.21104000      9.75448000      2.47523000     -0.00658881      0.00392197     -0.00054167       1
O              20.21990000      6.11999000     17.61000000     -0.00228149      0.01607940     -0.00890779       8
H              19.62610000      7.87811000     17.24770000     -0.00362069     -0.02528450      0.01051940       1
H              19.30360000      4.86736000     16.65530000     -0.00274127      0.01066740      0.00044034       1
O              13.72560000      7.02411000     19.85150000      0.00641328     -0.02032290      0.00726350       8
H              14.95100000      7.60361000     21.10180000      0.00384703      0.00031785     -0.00721798       1
H              14.11980000      5.18181000     19.86210000     -0.00211732      0.01816710     -0.00335064       1
O              19.35690000      8.81624000      6.26040000      0.00304405      0.00439577     -0.00569548       8
H              20.83410000      8.23934000      5.27880000     -0.00412463      0.00672559      0.00594067       1
H              18.70440000     10.16940000      5.21624000     -0.00146778     -0.00496468      0.00382038       1
O               9.46465000      4.04444000      7.82573000     -0.00275881      0.00742422      0.00526858       8
H              11.14970000      3.84484000      8.42246000      0.00758465     -0.00297410      0.00794471       1
H               9.50320000      2.99785000      6.35149000     -0.01112360     -0.00610549     -0.01247310       1
O              12.48630000     12.26530000     22.05470000     -0.00289694     -0.00491710      0.00070690       8
H              11.01880000     11.30620000     22.58110000      0.00001515      0.00254941      0.00166276       1
H              13.26510000     11.24650000     20.78190000     -0.00160174      0.00330753      0.00085262       1
O              20.91020000      2.04590000      4.55527000     -0.00136171     -0.00054785     -0.00661671       8
H              19.83420000      1.61117000      3.15110000     -0.00970532      0.00190871      0.00232820       1
H              20.92060000      0.46896500      5.46868000      0.00883697     -0.00222143      0.00475935       1
O               9.14207000      3.41624000     13.61070000     -0.00269356      0.00487213      0.01411500       8
H               8.64296000      3.60689000     11.89020000      0.00096255     -0.00383427     -0.00757269       1
H              10.25990000      1.97181000     13.72890000      0.00173254      0.00002589     -0.00782478       1
O               6.82938000     19.43140000     11.39040000      0.00326614     -0.00157467      0.00986591       8
H               6.31040000     19.53260000      9.62655000      0.00226086      0.00711569      0.00286005       1
H               5.55185000     18.36750000     12.11220000     -0.00362952     -0.00347846     -0.00144835       1
O              14.57680000      2.33769000      8.82130000     -0.00138378      0.01125880     -0.00497730       8
H              14.89120000      3.22433000      7.24434000      0.00549001     -0.00710193     -0.00466616       1
H              15.54250000      0.80541700      8.69465000     -0.00629957     -0.00805411     -0.00234656       1
O               3.00763000      3.56623000      8.52109000      0.00714157     -0.00760915      0.00019191       8
H               4.10142000      5.00177000      8.73479000     -0.00474241      0.00522785      0.00509074       1
H               1.28536000      4.14395000      8.55831000     -0.00620637     -0.00101896      0.00401557       1
O              18.24180000      1.47779000     13.67900000      0.00124059     -0.01038270     -0.01184330       8
H              18.40950000      1.00577000     11.90630000     -0.00165936      0.01534420      0.00727598       1
H              19.52490000     23.39670000     14.30280000     -0.00715398     -0.00070082      0.00504845       1
O              16.08930000      5.29001000      4.58855000      0.00293345      0.00828668     -0.00141888       8
H              16.88230000      5.66263000      2.94969000     -0.00663092     -0.00276522      0.01203710       1
H              17.05190000      6.41251000      5.71914000     -0.00026030     -0.00041421     -0.00959065       1
O              11.31930000     17.16550000     13.12670000      0.00070609     -0.00507517      0.00065362       8
H               9.88298000     18.16650000     12.59610000     -0.00021019      0.00004850     -0.00610887       1
H              12.41480000     18.24440000     14.07500000      0.00027751      0.00271087      0.00106741       1
O              16.27840000     12.56340000      2.68090000      0.01518570      0.04063670      0.01607300       8
H              17.03200000     14.14540000      3.46011000     -0.01591980     -0.03633170     -0.00752523       1
H              15.00630000     13.28680000      1.57923000     -0.00338617     -0.01067120     -0.00689964       1
O               1.15181000     13.82200000      7.91048000      0.01899550     -0.02107750      0.00327877       8
H              22.46060000     13.35370000      7.68396000     -0.00289754     -0.00537404      0.00124144       1
H               1.99628000     12.21030000      8.35871000     -0.01612780      0.02660890      0.00140034       1
O               6.63243000     22.66340000     16.29700000     -0.00390043     -0.00958860     -0.00356420       8
H               7.02806000     21.64750000     14.81970000     -0.00256393      0.00447250      0.00064667       1
H               6.42823000      1.31962000     15.67870000      0.00594563      0.00204533     -0.00473673       1
O              16.85010000     22.45020000      2.00760000      0.01368630     -0.05062600      0.00646596       8
H              17.65830000     20.69440000      1.96492000     -0.01837900      0.04424220     -0.00544144       1
H              15.33330000     22.08040000      2.97424000      0.00372996      0.00246980     -0.00460435       1
O               1.75545000     22.17500000      1.07945000      0.00290311      0.00415557      0.00851082       8
H               2.87259000     21.55720000     22.80370000      0.00191383     -0.00082136     -0.00332465       1
H               2.58791000      0.49493300      2.02762000     -0.00839289     -0.00355086     -0.00297824       1
O               2.02614000     13.57670000     15.42570000      0.02268380     -0.00630695      0.00051264       8
H               3.43749000     13.31960000     16.57520000     -0.00655995      0.00857908     -0.00515443       1
H               2.57306000     12.65880000     13.92400000     -0.01043630      0.00175937      0.00929134       1
