192
TotEnergy=-1102.88646000 cutoff=-1.00000000 nneightol=1.20000000 pbc="T T T" Lattice="23.78655000       0.00000000       0.00000000      -0.00000100      23.78655000       0.00000000      -0.00000100      -0.00000100      23.78655000" Properties=species:S:1:pos:R:3:force:R:3:Z:I:1
O               2.78068000      0.37036300      9.43417000     -0.03941120      0.03719040     -0.04918890       8
H               1.36070000      0.98608100     10.35330000      0.00077693      0.01399250      0.00874595       1
H               3.50220000     -0.74832900     10.50160000      0.04468350     -0.04627290      0.03896770       1
O               0.35128800      3.17339000     13.20260000      0.01088830     -0.00429275     -0.03126730       8
H              -0.30422800      2.79879000     14.78450000     -0.00951779     -0.01364480      0.03771310       1
H              -0.78983700      4.47347000     12.63800000     -0.00106956      0.01442350     -0.00341215       1
O              13.22600000      6.84168000      3.17087000     -0.00464996     -0.00407683     -0.08799630       8
H              13.15370000      6.60727000      1.12195000      0.00123138      0.01482970      0.08143020       1
H              15.01400000      6.95124000      3.51392000     -0.00504346     -0.01089500     -0.00105624       1
O              12.37860000      0.96080700     22.01030000      0.00686790      0.03713290      0.01954700       8
H              14.05530000      0.86927900     22.67080000      0.00664497      0.00684698      0.00826912       1
H              12.01770000     -0.65938000     21.46930000     -0.00276762     -0.03801280     -0.00940428       1
O               9.45237000     12.10220000     20.54360000      0.04905720      0.02427460     -0.03830410       8
H               8.05058000     12.62990000     21.43940000     -0.03903970      0.01608720      0.03272190       1
H              10.15000000     13.76270000     19.71260000     -0.00917522     -0.04976050      0.01418000       1
O              21.51880000      7.52412000     12.84200000     -0.02237670      0.05383730      0.03008950       8
H              21.74010000      8.96863000     11.60470000      0.00051252     -0.02677370      0.03453310       1
H              20.78220000      8.38684000     14.47970000      0.02573080     -0.01936770     -0.05286400       1
O              16.60440000     20.92120000     18.53870000     -0.06159810      0.08293570      0.03627950       8
H              16.55490000     22.96510000     19.22430000      0.00328392     -0.09430610     -0.04157150       1
H              14.64040000     20.56320000     18.61380000      0.05635940      0.01736360     -0.00359808       1
O              13.17830000     17.64010000     11.89470000     -0.01038300     -0.02911580      0.02132990       8
H              12.98820000     15.86900000     12.44360000      0.00210123      0.01626550      0.00000223       1
H              13.71940000     17.32150000     10.23080000      0.01109340      0.00865685     -0.02412130       1
O              14.23770000     21.44050000      4.35260000     -0.02953610      0.06991940      0.02856020       8
H              15.06710000     20.06870000      3.79116000      0.02592010     -0.06918840     -0.03368870       1
H              15.20950000     22.76920000      3.61480000     -0.00667042      0.00709500      0.00784643       1
O               3.09433000      4.74480000      6.05695000     -0.05727490     -0.05262790      0.08019680       8
H               3.42281000      3.46072000      7.57681000     -0.02461010      0.03455440     -0.04671500       1
H               4.73766000      4.96038000      5.72813000      0.09238870      0.01899080     -0.02874150       1
O               5.91556000     15.20770000     23.20800000     -0.03469070     -0.12604100      0.09015660       8
H               5.58069000     16.40490000     22.11980000     -0.02024520      0.08557430     -0.07105930       1
H               4.08892000     14.52740000     23.64120000      0.06410640      0.01850350     -0.01960980       1
O              18.36570000      7.27131000     20.24370000      0.12454700     -0.02153310     -0.01557250       8
H              19.18830000      5.52256000     19.83250000     -0.03641430      0.05080620      0.01237450       1
H              16.72360000      6.96545000     20.35290000     -0.09702080     -0.01712530      0.00727686       1
O              22.25590000     20.12460000     12.53680000      0.01222050      0.03558220      0.04213490       8
H              22.20070000     19.26470000     11.03950000     -0.00231418     -0.02920210     -0.04831870       1
H              23.30610000     21.57580000     12.15420000     -0.00803012     -0.00834132      0.00513143       1
O               4.89181000      6.15063000     22.10970000      0.06363120     -0.01137610     -0.09064250       8
H               5.41689000      6.21145000     20.13640000     -0.02057700      0.00895742      0.07305050       1
H               3.14276000      6.10033000     22.02660000     -0.04653700      0.00565649     -0.00108799       1
O              15.65800000     18.92290000     23.90280000      0.00291464      0.01825240     -0.01254600       8
H              15.37150000     17.20640000     23.45990000     -0.00245821     -0.00731665     -0.00547653       1
H              15.61480000     19.92460000     22.34040000      0.00412178     -0.01956140      0.01696250       1
O              18.82380000     17.18050000     15.80580000     -0.00464974      0.04218810     -0.00864330       8
H              20.38360000     17.55430000     14.90520000     -0.01506100      0.00101849      0.00094598       1
H              17.89120000     18.91790000     15.74490000      0.02639280     -0.05031910      0.01140490       1
O               6.39431000     21.04390000     18.79060000     -0.02289970      0.04703430      0.01919010       8
H               5.69000000     22.77380000     18.41010000      0.01556500     -0.03656200     -0.00304736       1
H               5.48357000     20.64160000     20.41570000      0.01046350     -0.00691220     -0.02136970       1
O               1.15192000     13.02290000     21.45980000     -0.00236786     -0.00435968      0.01899560       8
H               1.52197000     12.15020000     19.97190000      0.02523210     -0.01395980     -0.02167820       1
H              -0.37280500     13.77520000     20.90800000     -0.02373170      0.01782550      0.00976546       1
O              23.83580000      7.61740000     22.89290000     -0.02536020     -0.06768340      0.03977930       8
H              22.25210000      6.97587000     23.73310000      0.02861290      0.02181450     -0.02666930       1
H              23.53980000      9.13510000     22.09840000     -0.01152820      0.04480470     -0.01460370       1
O              16.59590000     17.94790000      6.85546000     -0.02193880     -0.18533500      0.00982075       8
H              16.55360000     19.53670000      6.91602000     -0.00732314      0.17711200     -0.00066545       1
H              18.23790000     17.45730000      6.50354000      0.04203970     -0.00434738     -0.01241640       1
O               1.68609000     13.69200000     15.92560000     -0.09820760      0.00458412     -0.02028010       8
H               1.60324000     11.85890000     15.96690000      0.00538743      0.00782084     -0.00101123       1
H              -0.36726500     14.04450000     15.56010000      0.09431590     -0.01619920      0.01441640       1
O              22.71970000     19.79560000      0.08076900      0.10990800      0.16161000      0.01932730       8
H              22.17630000     20.46610000      1.65077000     -0.00645922      0.01030310      0.01616660       1
H              21.91610000     18.45350000     -0.13686900     -0.10385200     -0.16925800     -0.03335510       1
O              18.39200000      6.16898000      3.27532000     -0.03612030      0.07301460     -0.01047750       8
H              18.83430000      8.01347000      3.38135000     -0.01200470     -0.03564840     -0.00619489       1
H              19.82250000      5.31538000      3.70834000      0.04616060     -0.03031480      0.01250670       1
O               7.02474000     20.70250000     11.11510000      0.01601660     -0.02729720      0.02279430       8
H               8.27383000     19.95480000      9.85825000     -0.01955250      0.01771020      0.01634080       1
H               7.19003000     19.73770000     12.74260000     -0.00126390      0.00866716     -0.04057480       1
O              15.76900000     12.56290000     22.79110000     -0.14310700      0.15433900     -0.30209600       8
H              14.16500000     11.66800000     22.26630000      0.03953490      0.02543850      0.00590756       1
H              16.19530000     11.84120000     24.00210000      0.10920400     -0.17330800      0.29877900       1
O              10.38640000      3.93188000     18.69150000     -0.00874811      0.00923253     -0.11115100       8
H              10.16340000      3.86116000     20.35740000     -0.00140604     -0.01618480      0.09372060       1
H               8.72605000      3.60090000     17.98760000      0.00458047      0.00296692     -0.00087371       1
O              19.91480000     11.20400000     17.04670000     -0.01991970      0.06100460     -0.00355590       8
H              18.99540000     10.22310000     18.42130000      0.01191740      0.02864860     -0.02156100       1
H              19.41400000     13.23390000     16.78290000      0.00615073     -0.09464610      0.02274620       1
O               8.52372000     11.91520000      3.79238000     -0.01384130     -0.14010400      0.05708000       8
H               6.92140000     10.97870000      3.25088000      0.03326730      0.00380995      0.01514110       1
H               8.22742000     13.31470000      3.04548000     -0.01633470      0.14417000     -0.07715500       1
O              -0.21274400      1.39360000     18.59380000     -0.02276240     -0.08324350     -0.04715560       8
H              -0.17577000     -0.65144000     18.32950000     -0.00140081      0.06530500      0.00503172       1
H               0.94107200      1.56203000     19.86870000      0.03493460      0.01206710      0.03940520       1
O              11.01620000     15.24570000     17.23690000      0.06385750      0.02041220     -0.01662820       8
H              12.36880000     15.50880000     15.88620000     -0.03128020     -0.01765440      0.04194590       1
H               9.49071000     15.38550000     16.32010000     -0.01679300      0.00897714     -0.01460640       1
O              11.63170000     20.58030000     19.65320000     -0.03746620      0.06139320      0.00448703       8
H              11.49700000     19.01840000     18.91850000     -0.01373400     -0.05806360     -0.02034830       1
H               9.93082000     21.45000000     19.27210000      0.03327130     -0.03004080      0.00333186       1
O               7.91145000     11.78370000     13.24050000     -0.01415000      0.03653180     -0.06321720       8
H               7.43451000     12.86090000     11.61390000      0.02345250     -0.03164550      0.05169810       1
H               9.54440000     11.13890000     12.71330000     -0.00990350      0.00256318      0.00035804       1
O               2.44240000     15.23570000      9.43298000      0.06839340     -0.00144704      0.02932140       8
H               3.17121000     13.89040000     10.73500000     -0.02086650      0.05826140     -0.04758870       1
H               3.87917000     16.58300000      9.00833000     -0.04705830     -0.05504050      0.02163480       1
O              13.80090000      3.43197000     14.05200000     -0.02700560     -0.05266770     -0.00662586       8
H              13.69250000      1.81867000     13.08010000     -0.00389582      0.00128394      0.00546784       1
H              12.74780000      3.25626000     15.64170000      0.02436160      0.01303510     -0.00895846       1
O              16.99520000     12.71650000      8.89225000     -0.00766720     -0.01644000     -0.03164710       8
H              17.39110000     14.24080000      8.03274000      0.00505135      0.02322250      0.01034660       1
H              15.74060000     12.17250000      7.57416000     -0.00034424      0.00252122      0.02658820       1
O              11.49340000      8.01690000     13.35080000      0.01765170     -0.02603150      0.06237970       8
H              12.77650000      6.57403000     13.58700000     -0.04466320      0.04607120     -0.00921129       1
H              10.74460000      8.31442000     15.12940000      0.02074240     -0.01411940     -0.04964160       1
O               6.52892000     22.53530000      3.41938000     -0.01592710      0.00068489      0.08245420       8
H               6.71329000     23.33500000      1.95484000      0.01116140      0.02694740     -0.09166600       1
H               6.60700000     24.14340000      4.35006000     -0.00103171     -0.02140240      0.01299160       1
O               7.99802000      3.19886000     24.45250000      0.00798597     -0.04626150     -0.03050160       8
H               6.86192000      3.72029000     23.06260000      0.00631470      0.00026606      0.02141220       1
H               8.78586000      1.52390000     23.93420000     -0.00670047      0.04815060      0.01051150       1
O               8.68005000     14.90610000      8.76853000     -0.01466150     -0.00318273     -0.00669653       8
H               8.23059000     14.46200000      7.04826000      0.00314123     -0.00600389      0.00843168       1
H              10.38160000     15.47380000      8.60039000      0.00201055      0.00304494      0.00170808       1
O              17.60830000      4.71121000     10.72330000     -0.08241410     -0.10210900     -0.02126060       8
H              18.29200000      5.98118000     11.54850000      0.05328870      0.07949170      0.04788210       1
H              15.30290000      4.16399000     12.94690000      0.04910240      0.02091880     -0.01676140       1
O              22.34790000     16.06080000      5.79955000     -0.07819650      0.05464830     -0.09768580       8
H              22.45370000     15.07370000      4.25272000     -0.00120826      0.00458645      0.01660060       1
H              23.22900000     15.31710000      6.97334000      0.07643390     -0.05067520      0.07784230       1
O              17.40210000      2.11326000      0.29584100     -0.01405980      0.01320610     -0.00140243       8
H              17.01170000      3.82685000      0.93129600      0.00881380     -0.02068140     -0.00668917       1
H              17.29600000      1.05829000      1.75839000      0.00699143     -0.00174102      0.00430346       1
O              12.57920000      8.10970000     21.10540000      0.03680850      0.05818140      0.04645510       8
H              11.77880000      6.88058000     20.27960000     -0.03454400     -0.06781570     -0.04775620       1
H              11.25410000      9.37670000     21.20720000      0.00085986      0.01115970      0.00097853       1
O               8.72794000      4.42528000      5.71970000      0.05394100      0.01648870      0.00343811       8
H              10.09550000      4.84351000      7.10431000     -0.04280490     -0.01044120     -0.06243850       1
H               9.51564000      4.71747000      3.93514000     -0.01626960     -0.00811155      0.06221080       1
O               7.82715000      1.90103000     11.95160000     -0.02532970     -0.03537240      0.08472990       8
H               8.51695000      2.07708000     10.45290000      0.04320870      0.01208320     -0.10181700       1
H               7.61365000      0.01181500     12.10440000      0.00025112      0.02558410     -0.00734963       1
O               9.57552000     20.20260000      6.74088000      0.06682520      0.03678040     -0.00808872       8
H              11.15610000     21.41680000      6.13825000     -0.06482000     -0.05465890      0.01608650       1
H               8.28818000     20.25880000      5.45968000      0.00727193      0.00874043     -0.00433030       1
O              14.48230000      2.33698000      6.99899000     -0.06750040     -0.02921210      0.01360310       8
H              13.07030000      1.71510000      8.22190000      0.05680080      0.01792050     -0.03943120       1
H              15.74190000      3.13177000      7.96601000      0.01454040      0.01590290      0.02469280       1
O               5.90568000      9.75918000     17.44350000     -0.00389873     -0.00860891     -0.03278310       8
H               5.80361000      9.86778000     15.52850000      0.01487950      0.00454602      0.04602440       1
H               7.47577000     10.59350000     17.99260000     -0.01460760     -0.00247949     -0.00611442       1
O              20.33640000     15.64160000     21.36710000      0.00793095     -0.05734830      0.09801820       8
H              18.79400000     14.74690000     21.91970000      0.01817540      0.00912907     -0.00987008       1
H              19.98200000     16.35350000     19.90430000     -0.03135900      0.04851030     -0.09231480       1
O              22.10660000     11.90270000     10.26710000     -0.03146190     -0.00465310     -0.02156970       8
H              20.45750000     11.73490000      9.37057000      0.01317870      0.00612763      0.02230200       1
H              22.88230000     13.20190000      9.27913000      0.01274740     -0.00116376      0.00651713       1
O              20.40660000     22.76550000      4.12932000      0.01008790      0.11664900     -0.02476990       8
H              21.02030000     24.56030000      2.81362000     -0.02013680     -0.08247750      0.05599780       1
H              20.15910000     23.82900000      5.83663000      0.01133570     -0.03931140     -0.04329620       1
O               7.03554000     17.11350000     15.20070000      0.00198687     -0.03470010     -0.02683770       8
H               6.07435000     15.68610000     15.76120000     -0.00999868     -0.00629938     -0.00934180       1
H               6.47809000     18.37080000     16.26530000     -0.01360960      0.04239800      0.03691260       1
O               4.61397000      9.31591000      2.19738000     -0.00058426      0.16515300      0.07093000       8
H               3.47453000      8.57946000      3.19401000     -0.06087030     -0.02264500      0.05514440       1
H               5.00358000      8.09942000      1.25736000      0.05982810     -0.13632000     -0.12826000       1
O              -0.58444100      3.58884000      2.48030000      0.00019091      0.02039830      0.01948390       8
H              -0.46512900      4.36155000      4.18822000      0.01159560     -0.01722430     -0.02530710       1
H               0.61114800      4.57914000      1.49274000     -0.00755867     -0.01087460      0.01023400       1
O               5.56156000      2.76576000     15.71640000      0.00065089      0.06103220     -0.01985950       8
H               3.95150000      3.26032000     14.90250000      0.00983216     -0.01434790      0.01484280       1
H               6.64302000      4.00622000     14.64650000     -0.02275150     -0.04809130      0.02723150       1
O              12.95830000     11.46520000      6.14023000     -0.02189280     -0.00957029     -0.04049820       8
H              11.90520000     10.83200000      4.64473000      0.01086820      0.03025840      0.03006520       1
H              13.74090000      9.89666000      6.39375000      0.01085810     -0.02717490      0.01362260       1
O              -0.09600100      8.95141000      5.80090000     -0.01091520      0.01620670     -0.07788930       8
H               1.46496000      8.17400000      5.93301000      0.03470960     -0.02597510      0.00493647       1
H              -0.67345300      8.93681000      7.38744000     -0.02658130      0.00231522      0.08149320       1
O              13.97040000     12.76710000     13.79640000      0.01089320     -0.04633960      0.00062914       8
H              15.69460000     12.74720000     13.22560000      0.00107349      0.00986266     -0.00281783       1
H              13.66060000     10.87480000     13.83320000     -0.00734775      0.04003190     -0.00166231       1
O              18.76450000      2.33827000     18.82510000     -0.03658650      0.05879390     -0.07708100       8
H              18.93250000      1.39387000     20.18730000      0.00791244     -0.05505330      0.09425880       1
H              20.46550000      2.65652000     18.43780000      0.03009690     -0.00571480     -0.01497810       1
O               4.20002000     19.59940000     -0.47399400      0.04444690      0.03682200     -0.01456200       8
H               4.02972000     21.28940000      0.10838900      0.01884050      0.01703760      0.00889933       1
H               2.54543000     19.30200000     -0.09318400     -0.07416340     -0.03591920      0.00419575       1
O              19.44570000     11.57910000      4.28026000     -0.01502560      0.00179992     -0.00914408       8
H              18.77100000     11.71630000      5.94081000     -0.01860260      0.01558780      0.00874767       1
H              20.52500000     10.24920000      4.71657000      0.04087830     -0.01672360     -0.00922197       1
O              20.24860000      0.41693700      8.74496000     -0.08024510      0.05333860      0.02996290       8
H              21.78980000      0.34203800      9.48171000      0.06232220     -0.01192580      0.01714350       1
H              19.45400000      1.84416000      9.95985000      0.00183078     -0.02431370     -0.03909070       1
O               0.93876400     19.87590000     17.38190000     -0.04704750     -0.04984470      0.12447100       8
H              -0.44567200     18.48660000     17.85210000      0.05420340      0.05320700     -0.00009593       1
H               0.63583600     19.78830000     15.75180000     -0.00956147      0.00295692     -0.11991100       1
O              14.58510000     22.41120000     10.84640000      0.06234880     -0.00215729     -0.06539510       8
H              14.72170000     21.00280000     12.00470000      0.00187170     -0.00487308     -0.01061340       1
H              16.41780000     21.88020000      8.75218000     -0.07084560      0.03284330      0.09028960       1
