192
TotEnergy=-1103.92148000 cutoff=-1.00000000 nneightol=1.20000000 pbc="T T T" Lattice="24.58250000       0.00000000       0.00000000      -0.00000100      24.58250000       0.00000000      -0.00000100      -0.00000100      24.58250000" Properties=species:S:1:pos:R:3:force:R:3:Z:I:1
O              11.76050000      5.99987000      3.50093000      0.00413670     -0.00034953      0.00378479       8
H              11.46290000      6.62847000      1.82876000     -0.00121334      0.00708604     -0.00660476       1
H              13.56540000      5.74803000      3.53107000      0.00094784     -0.00183984      0.00114835       1
O              16.34650000      7.18416000     19.93930000     -0.00171230     -0.00440843      0.00072268       8
H              17.10650000      5.68032000     20.70230000     -0.00193269      0.00506329      0.00186333       1
H              14.74710000      7.36632000     20.78820000      0.00044126     -0.00094603      0.00275929       1
O               5.28058000     16.85160000      6.25056000     -0.00645995      0.00380851     -0.00290076       8
H               4.90909000     18.58800000      6.71673000      0.00282876     -0.00247978     -0.00745251       1
H               4.41103000     16.53940000      4.64257000      0.00106446      0.00061925      0.00733344       1
O              14.75950000     23.27260000      8.33256000     -0.00471185      0.00866058      0.00567511       8
H              15.28610000     21.55400000      8.38365000      0.00434213     -0.01127120      0.00345547       1
H              13.17010000     23.18310000      7.37558000      0.00615106     -0.00024865     -0.00401496       1
O               6.51167000     22.01150000      0.28161000     -0.00121064     -0.00254637     -0.00899433       8
H               7.73009000     23.27450000     -0.19012600      0.00006586      0.00150793      0.00644813       1
H               5.10076000     22.91360000      1.01985000     -0.00074788     -0.00385443     -0.00064381       1
O              22.36250000     13.42730000      3.89676000      0.00569685     -0.00240385     -0.00332157       8
H              20.79010000     12.67030000      3.36712000     -0.00197646     -0.00387683      0.00194722       1
H              22.01620000     14.28030000      5.45183000     -0.00472111      0.00680715      0.00392111       1
O              10.55490000      1.30012000      1.42693000     -0.00268988      0.00205160      0.00253776       8
H              10.92320000      0.43247800      3.03322000     -0.00363594     -0.00021857     -0.01153050       1
H              10.37780000      3.06148000      1.87856000      0.00594378     -0.00403803      0.00215880       1
O              13.16500000      0.77256900     13.48470000     -0.00298158      0.00086140     -0.00575187       8
H              14.34260000      2.15299000     13.90720000     -0.00416143      0.00168623     -0.00104348       1
H              13.53130000      0.28974000     11.76420000      0.00347102     -0.00110994     -0.00387514       1
O               1.89125000     16.02960000     10.42130000     -0.00275789      0.00173845      0.00055930       8
H               1.97994000     14.68390000     11.63870000     -0.00284621     -0.00107888     -0.00316106       1
H               3.20080000     15.77130000      9.16672000     -0.00013882      0.00059338      0.00004896       1
O              11.51230000     18.73900000     17.81910000     -0.00861931      0.00892985     -0.00554740       8
H              12.60730000     17.59120000     18.65140000      0.00445763     -0.01256670      0.00466994       1
H              12.61600000     20.15830000     17.44500000     -0.00034608     -0.00038104     -0.00148990       1
O               4.69105000     19.87670000     19.42010000     -0.00410044     -0.00557567      0.00714268       8
H               5.66614000     18.67170000     18.47980000      0.00797158     -0.00076902     -0.00032321       1
H               5.50955000     20.21530000     21.01730000      0.00395747      0.00187096      0.00034013       1
O               0.55746800     21.40310000     12.66050000     -0.02170940     -0.01121020     -0.01462680       8
H               1.66626000     20.09110000     12.11810000      0.01311040     -0.00251498     -0.00693349       1
H               1.50623000     22.53730000     13.65230000      0.01273990      0.01214870      0.01673930       1
O              21.33590000     17.11810000      8.14126000      0.02351400      0.00502331     -0.02929810       8
H              22.99470000     17.13330000      8.89748000      0.00146981     -0.00439613      0.00503674       1
H              20.16400000     16.91810000      9.43284000     -0.02050430     -0.00215947      0.02250720       1
O               4.90894000      5.80912000     17.80050000      0.00915614      0.00073136      0.01325140       8
H               4.40623000      6.20739000     16.12390000     -0.00673070      0.00490319     -0.01366780       1
H               5.20487000      7.44923000     18.54350000     -0.00864382      0.00361681      0.00438173       1
O              12.54110000     19.43950000     23.69400000      0.00320779      0.00165457      0.00006952       8
H              12.17980000     20.89640000     22.66240000     -0.00046730     -0.00141344     -0.00306508       1
H              11.64240000     18.04690000     22.94620000     -0.00086665      0.00124480      0.00117841       1
O               2.72358000     14.95340000      1.93335000     -0.00035816      0.00268001      0.00106083       8
H               3.07527000     15.07700000      0.13304500     -0.00192174      0.00320903      0.00226521       1
H               0.90886700     14.87900000      2.04070000     -0.00135445     -0.00362509      0.00516522       1
O              15.21010000     12.16160000      7.84728000     -0.00574272     -0.00171473      0.00548494       8
H              16.18610000     11.37970000      9.17689000     -0.00841313     -0.00139475     -0.00483702       1
H              13.40240000     11.78930000      8.13236000      0.00516575      0.00374209     -0.00175599       1
O               1.80778000     23.72870000      2.66778000      0.00176941      0.00172667     -0.00214277       8
H               0.34701800     22.65970000      2.85589000     -0.00182118     -0.00194825      0.00140659       1
H               1.14489000      0.79696500      2.30130000      0.00131138      0.00055955      0.00489864       1
O              17.81150000     10.43690000      3.36490000     -0.00373521      0.00199650      0.00181074       8
H              17.98900000      8.60211000      3.46599000     -0.00136560      0.00400810     -0.00449623       1
H              16.72960000     10.94330000      4.75423000      0.00752713     -0.00479559      0.00698511       1
O              19.99900000     23.67270000     19.74880000     -0.00200328     -0.00291571      0.00172957       8
H              20.56750000     22.50010000     20.99920000     -0.00458184     -0.01005940      0.00400483       1
H              18.48290000     22.96450000     19.04010000     -0.00290929     -0.00151773     -0.00598096       1
O              15.70610000      4.92290000     14.91170000     -0.00237330     -0.00193344      0.00360937       8
H              15.29440000      5.06389000     16.67940000     -0.00098457      0.00488626      0.00175522       1
H              17.53910000      4.76273000     15.01990000      0.00070893      0.00175649     -0.00330616       1
O              17.76810000      5.14978000      3.13273000     -0.00664523      0.00858167     -0.00392400       8
H              18.29790000      4.11075000      1.73486000     -0.00374459      0.00158957     -0.00276375       1
H              18.77570000      4.62423000      4.52741000      0.00382337     -0.00983532      0.00722631       1
O               2.92052000     -0.60527300     17.19610000      0.00226182      0.00126016      0.00021570       8
H               3.39371000     22.34880000     17.93990000     -0.00332036      0.00468512     -0.00003088       1
H               4.44615000      0.35887000     17.37700000     -0.00240888      0.00236959     -0.00349046       1
O               3.12064000      9.92293000     21.16430000     -0.00048280     -0.00088001      0.00204946       8
H               3.25721000     11.73560000     21.33030000     -0.00354962     -0.00205165     -0.00174254       1
H               1.39404000      9.45563000     21.50440000     -0.00129037      0.00048515     -0.00232914       1
O              10.94300000      5.46252000      9.92426000     -0.00013681     -0.00262497      0.00049230       8
H              11.30820000      4.06830000     11.02290000      0.00274399     -0.00014116     -0.00084610       1
H              11.15920000      4.81853000      8.23914000     -0.00114800      0.00421016      0.00023213       1
O               2.47942000      4.01603000     10.30110000     -0.00471842     -0.00108217      0.00145820       8
H               0.76633700      3.48692000     10.69560000      0.00093812     -0.00714469     -0.00516442       1
H               3.52454000      2.88932000     11.27570000      0.00412662     -0.00569842     -0.00336103       1
O              -0.14777800     12.36660000     14.74040000     -0.00636517      0.02290890     -0.01536510       8
H              23.44520000     10.92200000     14.27700000     -0.00871097     -0.00859106     -0.00174314       1
H               1.04165000     11.91270000     15.96260000      0.01632100     -0.01523630      0.01960670       1
O               5.46373000     22.40450000      7.37121000      0.00227323      0.00474248      0.00043633       8
H               5.43672000     22.86970000      9.13075000     -0.00115992      0.00179154     -0.00688096       1
H               4.59557000     23.77310000      6.52940000     -0.00194440     -0.00791344     -0.00206832       1
O               1.50813000      4.54578000      4.54579000      0.00329332      0.00254559     -0.00062133       8
H               2.69284000      5.15161000      3.29953000     -0.00020883      0.00246187      0.00098331       1
H               2.46043000      4.37220000      6.08797000     -0.00037502     -0.00347299     -0.00164300       1
O               2.39078000     15.49740000     21.40800000     -0.00308939      0.00060726     -0.00344381       8
H               2.99658000     17.06900000     20.68270000      0.00071660     -0.00306065      0.00156952       1
H               0.55792600     15.70740000     21.44820000      0.00163231     -0.00215640      0.00118094       1
O              17.98080000     12.58930000     22.39390000      0.00365726     -0.00280610     -0.00661304       8
H              17.00920000     13.37800000     -0.88466300     -0.00613919      0.00261398      0.00560021       1
H              17.79900000     10.80800000     22.66840000      0.00208708     -0.00248682      0.00231278       1
O              15.43740000     17.29540000      9.91121000     -0.00322082     -0.00612724      0.00144513       8
H              13.84630000     17.48650000     10.76990000      0.00297758      0.00121172     -0.00096950       1
H              15.25670000     15.65320000      9.08971000      0.00175403      0.00363677     -0.00320882       1
O              13.85780000     13.50100000      1.55712000     -0.01078400      0.01138900      0.00475352       8
H              13.06520000     14.42710000      2.94348000      0.00590411     -0.00437033     -0.01140070       1
H              14.84360000     12.17440000      2.29846000      0.00076561     -0.00418998      0.00044758       1
O               9.51801000      4.03441000     18.76400000      0.00274693     -0.00620701      0.00013604       8
H               7.85265000      4.82531000     18.77310000     -0.00645192     -0.00390998     -0.00483030       1
H               9.67294000      3.53894000     17.03410000      0.00662427     -0.00111418     -0.00157846       1
O              17.94990000     16.82790000     14.75010000     -0.00226052     -0.00106537      0.00443902       8
H              17.70700000     16.95830000     12.94690000     -0.00449414     -0.00246941      0.00302099       1
H              19.74120000     16.55140000     15.05340000      0.00172395      0.00820319     -0.00370331       1
O              15.46440000     21.90220000     16.36040000      0.00437093     -0.00451478     -0.00611240       8
H              14.71970000     22.86400000     14.94260000      0.00532736     -0.00198775      0.01301960       1
H              16.49520000     20.55090000     15.67570000     -0.00449342      0.00212910     -0.00059197       1
O              17.36440000      2.60771000     22.55210000     -0.00462906      0.00773973      0.00607690       8
H              18.19660000      1.10939000     21.93770000      0.00728600      0.00249783     -0.00412627       1
H              15.61320000      2.21117000     22.24150000     -0.00235033     -0.00407882      0.00169286       1
O              23.67270000      2.41409000     19.82620000     -0.00120290      0.00338693     -0.00627357       8
H               0.58425600      1.80792000     18.96560000      0.00021921     -0.00123209      0.00248050       1
H              22.54960000      0.96838700     19.89240000      0.00323682      0.00621897     -0.00190734       1
O               5.63288000      6.99892000      0.40945300     -0.00744736      0.00036890      0.00848878       8
H               5.02680000      8.07346000     23.64280000     -0.00370530      0.00078594     -0.00333638       1
H               7.15663000      6.25934000     -0.19060700      0.00640622     -0.00211355     -0.00346924       1
O               7.57776000     11.77030000     12.43200000      0.00187390     -0.00538348      0.00275753       8
H               9.14716000     11.29700000     13.34650000     -0.00205309     -0.00470288     -0.00656151       1
H               6.85660000     10.17470000     11.85380000     -0.00551416      0.00429670      0.00860489       1
O              20.73510000      3.54408000     15.24680000      0.00666253      0.00145099      0.01452680       8
H              21.64220000      3.02210000     16.79000000     -0.00564767      0.00576948     -0.01096720       1
H              20.30710000      2.01635000     14.38890000      0.00609124     -0.00459721     -0.00609595       1
O              22.09540000      7.53869000     20.80200000      0.00516376      0.00093741      0.00157170       8
H              20.83350000      8.47173000     19.92230000     -0.00526888     -0.00095905     -0.00369700       1
H              22.09270000      5.84007000     20.12300000      0.00512640      0.00394879      0.00426382       1
O              10.87050000      7.06042000     22.69170000      0.00432005      0.00199041      0.00187246       8
H               9.98961000      8.50100000     21.97130000     -0.00274128      0.00036334      0.00165187       1
H              10.62510000      5.79104000     21.40340000      0.00299796     -0.00300642     -0.00081463       1
O              12.68010000      0.02359900     21.50130000      0.00175526      0.00624548      0.00594024       8
H              12.31280000      0.45772200     23.26440000     -0.00554007     -0.00157429     -0.00085763       1
H              11.49330000      1.06018000     20.59330000     -0.00112001     -0.00200293     -0.00270809       1
O              21.77810000     15.89660000     21.20770000     -0.00043401     -0.00474800     -0.00074361       8
H              21.71910000     15.70160000     19.39450000     -0.00268815      0.00337612      0.00543076       1
H              20.94050000     14.40070000     21.90170000     -0.00209936      0.00496558     -0.00539472       1
O               9.39249000     14.43590000     23.30540000     -0.04888390      0.03122870     -0.02588840       8
H               8.39256000     14.44250000      0.23594100     -0.00396695     -0.00795821      0.00323930       1
H              10.84870000     13.64040000     23.77200000      0.05443680     -0.02582440      0.02119740       1
O              10.16900000     17.85180000      3.86573000      0.00013309     -0.00413675     -0.00263501       8
H               9.42381000     18.30430000      2.26802000      0.00079235     -0.00165674      0.00111699       1
H               8.82693000     17.10250000      4.86563000     -0.00074263      0.00360718     -0.00089674       1
O              21.55310000      8.38555000     12.56750000      0.00437383      0.00168016      0.00899716       8
H              21.43750000      8.30669000     10.75820000      0.00546956      0.00106588     -0.00646223       1
H              21.91020000      6.70543000     13.17580000     -0.00661024     -0.00142808     -0.00012640       1
O              18.46130000     19.92830000     23.72150000      0.02212880     -0.00436184     -0.00213545       8
H              19.29500000     18.52840000     22.87860000     -0.00382549      0.00316256      0.00204964       1
H              16.69450000     19.73250000     23.44290000     -0.01481340     -0.00335871      0.00175786       1
O              21.49900000     21.16210000      3.83968000      0.00727080      0.00180763     -0.00005173       8
H              20.55060000     20.28170000      2.56588000     -0.00391492     -0.00174636     -0.00256308       1
H              21.56690000     20.09400000      5.31730000     -0.00332207     -0.00142075     -0.00307321       1
O               9.52382000     12.78830000      8.19806000     -0.02516100      0.00544112      0.03046350       8
H               8.12273000     12.70360000     10.39780000      0.04006700     -0.00676256     -0.05409360       1
H               8.58808000     12.88290000      6.59898000      0.00650570     -0.00271015      0.02201530       1
O              10.89230000     22.73480000      5.25066000     -0.00489986      0.00216969      0.00262670       8
H               9.23851000     22.86190000      6.00944000     -0.00450361     -0.00199803     -0.00035962       1
H              10.84050000     21.09800000      4.38265000      0.00125473     -0.00335090      0.00642282       1
O              22.80550000      8.56583000      7.30239000      0.00414804      0.00205256      0.00167311       8
H              23.25430000      9.96048000      6.20648000     -0.00475090     -0.00352278      0.00088489       1
H              -0.33396000      7.46278000      7.27180000     -0.00302254     -0.00052182     -0.00609459       1
O               3.14801000      8.19506000     12.97520000      0.02940510     -0.00709209      0.00408599       8
H               1.61316000      9.00717000     12.64720000     -0.02170470      0.01516250     -0.00258615       1
H               3.05432000      6.71250000     11.89340000     -0.00058312     -0.00445800     -0.00316768       1
O               7.18937000     15.99020000     15.80690000     -0.00336946      0.00393963     -0.00208679       8
H               7.20374000     14.44990000     14.84510000     -0.00173916     -0.00192814      0.00362718       1
H               8.89447000     16.61350000     15.93450000      0.00762845      0.00019489      0.00753949       1
O              14.41230000     13.95130000     17.94430000      0.00390051     -0.00509054     -0.00344987       8
H              15.19480000     12.59120000     18.87020000      0.00280892      0.00726234      0.00504305       1
H              15.81350000     14.90410000     17.23260000     -0.00388296     -0.00315334     -0.00444637       1
O              11.62450000     10.13750000     15.41350000     -0.00785549     -0.00219500     -0.00219709       8
H              12.71740000     11.52730000     15.83870000      0.00771533      0.00829961      0.00439823       1
H              12.70500000      8.70500000     15.13450000      0.00058330     -0.00078993     -0.00425376       1
O               8.10797000     10.53420000     19.73650000      0.00502090     -0.00912350      0.00227697       8
H               8.33345000     12.01150000     20.79230000      0.00045205      0.00532187     -0.00084817       1
H               9.55374000     10.39180000     18.63940000     -0.00261383      0.00592781     -0.00396319       1
O               6.37184000      0.42701900     12.26410000      0.00396287     -0.00458845      0.00142219       8
H               6.48217000     23.18240000     12.47090000     -0.00191913      0.00232478      0.00910150       1
H               7.92235000      1.05542000     12.96760000     -0.00029064     -0.00117601     -0.00392085       1
O              19.34320000      0.73046800      6.08502000      0.02232730      0.00752596     -0.01702790       8
H              20.12060000     24.32510000      4.72042000     -0.00484097      0.00305649      0.01599040       1
H              17.74880000     -0.02532300      6.36797000     -0.01922890     -0.00576457      0.00686324       1
O               6.96694000     11.98150000      2.89246000      0.00515498      0.00922214      0.00649933       8
H               7.20753000     10.22240000      2.58195000     -0.00284833     -0.00789878     -0.00217375       1
H               5.20702000     12.21370000      3.25935000     -0.00289349      0.00099991     -0.00509469       1
O               6.32166000     19.58230000     12.36680000      0.00662704     -0.00030707     -0.00320141       8
H               6.44845000     18.13660000     13.54300000     -0.00226920      0.01075410     -0.00168409       1
H               7.43404000     19.14560000     11.00100000     -0.00339946     -0.00159796     -0.00068282       1
O              22.38500000      1.27244000     10.32620000     -0.00498446      0.01278700      0.00162260       8
H              22.13970000     24.07330000     10.38190000      0.00723649     -0.00773363      0.00224620       1
H              21.41460000      1.75775000      8.85345000     -0.00113861     -0.00393529     -0.00167662       1
O              23.08290000     17.52790000     15.52950000     -0.00055272     -0.00178812     -0.00066055       8
H              -0.31459400     16.15670000     15.64590000     -0.00410677     -0.00095203     -0.00602966       1
H              23.73150000     18.67550000     14.23520000     -0.00398605      0.00179074      0.01233660       1
