192
TotEnergy=-1103.22595000 cutoff=-1.00000000 nneightol=1.20000000 pbc="T T T" Lattice="23.46511000       0.00000000       0.00000000      -0.00000100      23.46511000       0.00000000      -0.00000100      -0.00000100      23.46511000" Properties=species:S:1:pos:R:3:force:R:3:Z:I:1
O              11.54090000     17.97730000     28.25950000     -0.07326550      0.00529423     -0.01813590       8
H              10.25930000     19.35270000     28.60590000      0.03587810     -0.00632758      0.00281979       1
H              10.26930000     16.99210000     27.21380000      0.03628560      0.00023421      0.01648060       1
O               6.48116000      3.62257000      6.79597000      0.06002870      0.04422530      0.00550495       8
H               7.61430000      4.07520000      8.48521000     -0.02667550     -0.01416330     -0.04938850       1
H               7.13442000      4.66137000      5.23224000     -0.01054280     -0.02348050      0.04597520       1
O              -3.41494000     23.52370000     -0.91096900     -0.02375020      0.00031727     -0.01496670       8
H              -5.19263000     23.92750000     -0.57633500      0.01263600      0.00591883     -0.00449689       1
H              -2.73570000     23.44400000      0.72053600      0.01185920      0.00132014      0.01917510       1
O               9.06506000      6.03781000     26.31270000     -0.04353370      0.01574700     -0.02240920       8
H              10.83450000      6.07730000     26.25890000      0.02490770      0.00422747     -0.00474348       1
H               8.34107000      7.26139000     25.04110000      0.01355110     -0.02459900      0.03115630       1
O              17.73640000     18.91710000     10.00470000      0.07509710      0.13418500      0.04267370       8
H              16.62510000     20.34010000      9.70397000     -0.02517630     -0.01511890     -0.00858759       1
H              17.33090000     17.37210000      9.68287000     -0.05521230     -0.12272900     -0.03498220       1
O              15.26110000      1.82203000     21.70940000     -0.03626130      0.02677530     -0.01693710       8
H              13.93450000      3.23066000     21.90840000      0.04496530     -0.03669430     -0.00699906       1
H              15.93010000      1.94234000     19.94800000     -0.00904171      0.00973049      0.02590200       1
O              -4.35805000      1.93688000      4.23197000      0.04488580      0.05935000     -0.01254810       8
H              -2.64382000      2.89561000      4.43262000     -0.06064530     -0.03062330     -0.00101420       1
H              -4.17053000      0.38425900     28.50800000      0.01383710     -0.03034580      0.02027080       1
O              19.70630000     13.44630000     22.60340000      0.08384950     -0.01141860     -0.06052410       8
H              19.56700000     15.23770000     22.26760000     -0.02055640      0.01829120      0.00091873       1
H              21.37070000     13.35500000     21.28550000     -0.05680100     -0.00953877      0.04466830       1
O               2.30783000     -8.28963000     13.31270000      0.02430710     -0.04044810      0.01366030       8
H               1.25697000     -9.19919000     12.08150000      0.01335280      0.01231650      0.01117480       1
H               3.39283000     -9.87857000     14.16170000     -0.03700430      0.04067630     -0.03732160       1
O              15.69690000     14.80690000      6.06404000      0.03668480      0.04758380     -0.02421370       8
H              14.51920000     16.25700000      5.53837000      0.02692200     -0.04050850      0.01885460       1
H              17.71470000     15.37220000      5.41490000     -0.06326660     -0.02309970      0.00664947       1
O              -0.07143700     29.97350000     27.72590000      0.07761630     -0.02729410      0.03151960       8
H               1.23311000     28.27430000     28.02710000     -0.05255740      0.08859340     -0.00693768       1
H               0.86904000     31.67500000     28.35460000     -0.01811940     -0.07211300     -0.01911510       1
O               2.56408000     24.47250000      7.45225000      0.02176940      0.05560450      0.07434390       8
H               2.21652000     23.46870000      6.14564000     -0.01680420     -0.05144940     -0.07255080       1
H               4.19555000     25.39320000      7.10148000     -0.01876220     -0.00720867      0.00272248       1
O              -8.99089000      7.33297000      0.52606600      0.03430630      0.01787370      0.00059239       8
H              14.49870000      8.97373000     -0.41252900      0.00631955     -0.02446460      0.00928696       1
H              16.37660000      6.95244000      0.80073600     -0.03779660      0.00870336     -0.00868190       1
O              23.87590000     13.59170000     -4.79558000      0.04697950      0.01188230      0.01624760       8
H              24.16220000     14.41270000     -6.45187000     -0.00674518     -0.00728235      0.02339150       1
H              25.67060000     14.05470000     19.76130000     -0.05119220     -0.00082763     -0.04007160       1
O              21.92290000     23.04750000     17.89710000      0.00956395      0.05578450      0.07225810       8
H              20.83820000     22.77900000     19.38330000      0.01904430      0.00781134      0.00686572       1
H              21.30080000     22.08670000     16.66660000     -0.03601400     -0.06023050     -0.07824790       1
O              10.30360000     12.61760000     -2.68853000      0.04083300     -0.08343400      0.05249100       8
H              12.23230000     12.30080000     -2.35496000     -0.03241610      0.00404480     -0.01029290       1
H              10.38010000     14.09930000     -3.48692000      0.00327795      0.08601170     -0.04909120       1
O              21.01940000     -2.94584000     13.83870000     -0.01700830     -0.01953640     -0.03104470       8
H              19.69720000     -3.82908000     12.73720000      0.02549330      0.01851220      0.01927460       1
H              22.60930000     19.71670000     13.40250000     -0.00322378      0.00226661     -0.00043678       1
O              18.00070000      3.61295000     17.34390000      0.03577220     -0.06651210     -0.05484570       8
H              19.88690000      2.79544000     17.47380000     -0.07370650      0.02974990     -0.00474323       1
H              17.21610000      2.60673000     15.73240000      0.03236520      0.03204950      0.06243170       1
O               5.90351000     20.01640000     20.40450000     -0.02085820      0.05604890     -0.02493460       8
H              30.14550000     20.98050000     21.81600000     -0.01501270     -0.00254188     -0.02462370       1
H               4.92559000     21.40740000     19.14840000      0.02620690     -0.03545140      0.04658060       1
O              10.90290000      0.44078400     17.86030000      0.06145090      0.03164790      0.00148895       8
H              12.65260000      0.51699000     16.92520000     -0.05935240     -0.01949260      0.01957800       1
H               9.71429000     -0.66134800     17.14190000     -0.00619125     -0.01207580     -0.02594730       1
O              11.56300000     -8.71699000     15.23820000     -0.04773180     -0.03651810     -0.01451960       8
H              13.18810000     -9.44503000     15.49910000      0.00403734     -0.00881744     -0.00032924       1
H              10.38280000    -10.18710000     14.72310000      0.04188840      0.04537350      0.01324290       1
O              11.21280000     18.05410000     -3.31787000     -0.01769350      0.04306890      0.01357800       8
H              10.12450000     19.58320000     -3.58381000      0.01367410     -0.03387070     -0.00800019       1
H              11.76270000     18.51690000     -1.62528000      0.00912781     -0.01305790     -0.00631473       1
O               8.51192000      0.58096800     -0.69715600     -0.04986950     -0.02125120      0.07863450       8
H               9.36794000      1.16225000     -2.04627000      0.03753060      0.02855020     -0.06430570       1
H               7.25268000      1.81648000     -0.13025700      0.01544320     -0.01080570     -0.01350790       1
O              15.37160000     12.03250000     20.88490000      0.04482470     -0.05481060     -0.05336150       8
H              15.66540000     10.61200000     19.40520000     -0.01918140      0.04511780      0.04419010       1
H              17.30230000     12.47390000     21.20410000     -0.04232350      0.00050519      0.01168330       1
O              22.81810000      2.02528000     11.62100000     -0.03103990     -0.05043990      0.01937140       8
H              21.87300000      0.43623000     12.53080000      0.04370010      0.05155600     -0.04324610       1
H              23.72060000      1.50638000     10.03550000     -0.00996866     -0.00185489      0.02405540       1
O               4.76001000     31.63930000      0.34192300      0.00561235      0.03661630     -0.00781431       8
H               4.20362000      9.68213000      1.46836000      0.02040040     -0.04419560     -0.03822530       1
H               5.59624000     32.13950000     -1.39492000     -0.02580460      0.00893569      0.04033470       1
O               4.15311000     10.81280000     14.08000000      0.05831820     -0.03029320     -0.01464770       8
H               5.81947000     10.30080000     12.85240000     -0.07165610      0.00575041      0.02878970       1
H               3.20290000      9.23695000     14.44450000      0.01143680      0.01127380     -0.00808553       1
O              -3.66053000      6.90308000      0.46449100     -0.00839376      0.01200380     -0.03307010       8
H              -2.27308000      6.49280000      1.54986000      0.00933318      0.00221468      0.00270714       1
H              -3.00686000      7.46389000     -1.20531000     -0.00466605     -0.00995779      0.02898900       1
O              17.91250000     12.88300000     14.42370000     -0.04355190      0.07792750     -0.09155750       8
H              17.88720000     11.35180000     15.11670000     -0.00685352     -0.08482290      0.05214790       1
H              16.54450000     12.51150000     12.81310000      0.04609890      0.00863721      0.03566440       1
O               4.74633000     16.33800000      3.24283000      0.04244060     -0.07808420      0.02857940       8
H               5.60387000     14.81540000      2.37516000     -0.02258060      0.04999730      0.02121010       1
H               4.20483000     17.56320000      2.15743000     -0.01841830      0.02550450     -0.04542480       1
O               3.29081000     -3.48536000     11.20190000      0.03396480     -0.03800680     -0.01930650       8
H               3.76318000     -5.68940000     11.60210000     -0.02475190      0.08382220     -0.02560420       1
H               3.82148000     -2.52772000      9.50648000     -0.01689980     -0.04844630      0.05693600       1
O               6.51655000     23.38590000     13.73440000     -0.01898030     -0.04678220     -0.02813980       8
H               5.18715000     24.00370000     14.74760000     -0.01457930      0.02686860      0.03435660       1
H               5.34638000     21.89530000     13.17630000      0.02808050      0.02471690     -0.00957218       1
O              16.52380000     17.84560000     -6.38954000     -0.02216170     -0.05031580     -0.02396370       8
H              14.71390000     17.94850000     -6.00990000      0.01121430      0.00076425      0.00314320       1
H              16.61260000     16.06510000     -7.26086000      0.01318160      0.05233230      0.02556160       1
O              24.34500000     -4.91486000      0.13511400     -0.07211080      0.01590170     -0.01595710       8
H              22.54370000     -5.61459000     24.05360000      0.05851530      0.02047910     -0.01169350       1
H              23.85990000     -3.74585000     -1.29927000      0.01156000     -0.02807410      0.02701180       1
O              10.53840000      6.03237000     17.10640000     -0.07251460      0.00801046      0.06071750       8
H              10.01040000      4.20772000     17.35480000      0.01635150      0.03237770     -0.00719447       1
H               9.11782000      7.05057000     18.37520000      0.05750210     -0.03983060     -0.05943760       1
O              14.13290000     22.41670000      9.24161000     -0.06235160      0.01520560     -0.03545490       8
H              12.17800000     21.96350000      8.81629000      0.08098020      0.01232040      0.02539500       1
H              14.43800000     24.06150000      8.35057000     -0.00813267     -0.01914580      0.01673690       1
O              12.59720000     10.38440000      4.63302000     -0.00823060     -0.02788980     -0.02419680       8
H              13.72380000     11.63400000      5.23152000      0.02366880      0.01653390     -0.00313109       1
H              13.40520000      9.32843000      3.25825000     -0.00503580      0.01817780      0.02481270       1
O               9.06360000     13.41380000      2.44306000     -0.02819890      0.02945360     -0.02704320       8
H               9.50684000     13.72530000      0.67044700      0.00129210     -0.01301100      0.01543520       1
H              10.43370000     12.64410000      3.27870000      0.02198820     -0.02087630      0.00745448       1
O              21.04550000     20.71010000      6.18360000      0.03047840      0.06588700      0.07034620       8
H              20.83370000     19.94420000      4.69539000     -0.02203110     -0.05376110     -0.06206460       1
H              20.20190000     20.04850000      7.65062000     -0.01269020     -0.01366990     -0.00834164       1
O              11.40280000      8.41656000      9.25972000      0.00884829     -0.17460700      0.12039800       8
H              12.25370000      6.57621000      8.52756000     -0.03287410      0.06395690      0.03894310       1
H              11.70310000      9.16627000      7.87661000      0.02197380      0.10113800     -0.15891500       1
O              15.74230000     11.09940000     10.28520000     -0.02107910      0.03242390     -0.04748040       8
H              14.06360000     10.32650000     10.66930000      0.02405080      0.01115250     -0.01724660       1
H              15.59810000     12.16170000      8.50243000     -0.00136162     -0.02817680      0.06784820       1
O              23.34320000     32.00630000     19.57760000     -0.02067690     -0.08548580      0.03078900       8
H              24.56760000     31.84280000     20.87830000      0.00841763      0.00903121      0.00282467       1
H              23.44510000     33.47480000     18.71470000      0.01305970      0.07206950     -0.02686320       1
O               3.21348000     10.67440000      5.46331000     -0.01564730      0.00651010     -0.00678091       8
H               4.49534000     11.04000000      6.69717000     -0.00394813     -0.00251358      0.00274512       1
H               1.69145000     11.62860000      5.88826000      0.01090810      0.00051744      0.00351803       1
O              14.95400000     27.56540000      7.20300000      0.02390590     -0.02078580     -0.01041880       8
H              16.13480000     28.23760000      8.53627000     -0.00447731     -0.00860442     -0.01726340       1
H              16.08490000     26.59390000      5.96623000     -0.01892660      0.03455420      0.02501850       1
O               4.51112000     15.40560000     20.44500000      0.04669590     -0.00464080      0.00144674       8
H               4.83063000     17.29650000     20.77170000     -0.00355234     -0.02219150     -0.01245840       1
H               6.17869000     14.68000000     19.89920000     -0.03914640      0.01822740      0.01255830       1
O               3.16747000     24.02620000     17.69680000     -0.06333430      0.04413870      0.04971870       8
H               2.92275000     25.52130000     19.31910000      0.01311210     -0.06615330     -0.05797930       1
H               1.06868000     23.61420000     17.30660000      0.07291560      0.01183840      0.02833060       1
O               0.90062900     16.27720000      6.78164000      0.01778920      0.01937930     -0.02027490       8
H               2.47233000     15.94280000      5.51950000     -0.04961980      0.03477330      0.03538830       1
H               0.22930300     18.11830000      6.97923000      0.03642330     -0.05387010     -0.01708490       1
O              -7.74741000      8.58851000     16.86580000     -0.07340910     -0.04323130     -0.02168800       8
H              14.01460000      7.58822000     16.40720000      0.03810610      0.05032520      0.01564670       1
H              -6.99866000      6.97878000     17.17920000      0.03623970     -0.01047450      0.00998823       1
O              29.95290000      8.95855000     10.07880000      0.05862140     -0.02601370      0.00482752       8
H              31.98120000      8.25026000     10.06750000     -0.06440830      0.03014510     -0.01828070       1
H              28.83550000      7.53311000      9.70590000      0.01389700      0.01108910      0.00431844       1
O              10.38070000     14.41860000      9.13717000     -0.03804790     -0.02976810     -0.02944900       8
H               9.16070000     13.34620000      8.10447000      0.03167280      0.02586480      0.02849580       1
H              10.29110000     16.00930000      8.25193000      0.00591917      0.00031309      0.00280908       1
O              20.63260000     11.36090000      6.24536000     -0.02054740      0.01839150      0.08977710       8
H              20.47500000      9.76477000      5.43805000     -0.00995925     -0.01437660      0.00872718       1
H              -3.54840000     11.26710000      8.51021000      0.04132740     -0.01643600     -0.10007900       1
O              20.07990000     15.73230000      3.80789000     -0.03540710      0.05908900      0.00411695       8
H              21.37530000     15.15430000      4.81784000      0.04341180     -0.01562130      0.03510020       1
H              19.92210000     14.56430000      2.51714000     -0.00772728     -0.03549150     -0.03576600       1
O              18.43370000      5.42155000     10.57490000     -0.09003450      0.11506900     -0.01566860       8
H              19.45440000      4.17730000     10.85640000      0.09390290     -0.09947120      0.02467420       1
H              19.19810000      7.04192000     11.11710000     -0.00361015     -0.01688960     -0.00832425       1
O               8.92769000     22.52690000     28.10160000     -0.02353280      0.01762160      0.06804090       8
H               8.67220000     24.05410000     29.23580000     -0.00459079     -0.03328960     -0.01610800       1
H               9.56665000     23.31960000     26.70000000      0.02122970      0.01665450     -0.05130050       1
O             -21.98750000      6.04493000     14.67920000     -0.03962440     -0.05346000      0.02158610       8
H             -22.65400000      4.56796000     13.56020000      0.01723040      0.03373150      0.02211470       1
H             -22.68770000      5.52225000     16.43380000      0.02277710      0.02412340     -0.05073730       1
O              15.65630000     -0.84044300     15.12170000      0.00739428      0.01703080      0.04306600       8
H              15.38710000     -0.93854600     13.36600000     -0.00262910     -0.01801740     -0.01918200       1
H              16.48840000     -2.27553000     15.98700000     -0.01257850      0.00705206     -0.03170840       1
O              19.09910000     -5.18792000     21.73260000     -0.05140620      0.05084900     -0.04751680       8
H              17.81110000     -4.29856000     22.77840000      0.01787950     -0.01705160      0.00413731       1
H              18.29290000     -4.55273000     19.99430000      0.03472070     -0.04038970      0.04762310       1
O              30.12510000      9.61773000     19.37030000      0.01722330      0.00396603     -0.00798160       8
H              29.03870000     10.19800000     17.94650000      0.02488400     -0.00294563      0.01777150       1
H              31.78710000     10.62390000     19.73650000     -0.03649300     -0.00240527     -0.01292560       1
O              26.65760000     22.63610000     26.16020000     -0.02729890     -0.04295090     -0.02262330       8
H              25.59790000     -2.35394000     25.39590000      0.03503520      0.03962420      0.02007640       1
H              28.38620000     22.07450000     26.38460000     -0.00732240     -0.00007899      0.00047663       1
O              26.32960000     26.71450000     22.41330000      0.03943330      0.07498520     -0.01418580       8
H               3.80383000     28.48970000     22.79030000     -0.03975230     -0.05826010     -0.00212818       1
H              26.23320000     25.80310000     23.94470000      0.00061305     -0.01348750      0.01646300       1
O              -8.50496000     20.14450000      1.19199000      0.02324380      0.01392390     -0.07452380       8
H              -8.91309000     19.66940000      2.80944000     -0.02756540      0.00133604      0.04173890       1
H              -9.20907000     21.67030000      0.42483900      0.00281432     -0.00950784      0.02442550       1
O               9.24683000      3.91285000     11.11900000     -0.05097740      0.04046960      0.07446690       8
H               7.90276000      2.78121000     12.18550000      0.04746060      0.02910910     -0.03180370       1
H               9.31904000      5.71045000     12.19000000     -0.00260808     -0.08459100     -0.03879460       1
O              21.05760000      9.86107000     11.49670000     -0.01090940      0.02731080      0.02627980       8
H              20.09420000     11.23260000     12.55490000      0.03310500     -0.03359630     -0.01588450       1
H              22.69600000      9.35632000     12.23640000     -0.02461220      0.01233730     -0.00401486       1
O              10.41600000     -3.71571000     11.50650000     -0.07191930     -0.03741370      0.06773330       8
H               8.66547000     20.54620000     12.22940000      0.07438820     -0.03131860     -0.02713560       1
H              10.54170000     -5.48900000     12.51780000     -0.00393935      0.06700930     -0.04007580       1
