192
TotEnergy=-1103.04780000 cutoff=-1.00000000 nneightol=1.20000000 pbc="T T T" Lattice="24.23895000       0.00000000       0.00000000      -0.00000100      24.23895000       0.00000000      -0.00000100      -0.00000100      24.23895000" Properties=species:S:1:pos:R:3:force:R:3:Z:I:1
O              15.87730000     11.30790000     22.13400000     -0.03556460      0.01790610      0.00422799       8
H              14.81700000     12.80820000     21.84840000      0.02574480      0.00271265     -0.00620542       1
H              14.48480000     10.38930000     22.87650000      0.01276540     -0.01699670      0.00375016       1
O              17.20640000     17.07190000      8.94725000      0.01976170     -0.03009250      0.01247230       8
H              17.27310000     15.53940000      9.97452000      0.02096980      0.01133420     -0.01508090       1
H              15.53390000     17.43820000      9.37686000     -0.03541010      0.02717460     -0.00180600       1
O              20.22750000     14.14650000      1.17974000     -0.04134830     -0.02570110     -0.01978310       8
H              18.84800000     13.13980000      0.25045600      0.04180390      0.03025810      0.02277050       1
H              21.04720000     15.17910000     -0.05906100     -0.00407793     -0.00137283     -0.01243760       1
O              22.83730000      2.83390000     19.60080000     -0.03029440      0.02351950      0.04789300       8
H              21.40470000      2.42317000     18.61530000     -0.02063450      0.00534710     -0.00959606       1
H              24.13710000      2.05492000     18.75580000      0.04367810     -0.01417710     -0.02496550       1
O              21.24410000      9.43970000     21.72060000      0.07197340     -0.03680750      0.03467470       8
H              21.62740000      8.71841000     23.45710000     -0.02675560      0.02375600     -0.04194380       1
H              19.62490000     10.04510000     21.56890000     -0.04195540      0.01079330      0.01090450       1
O               6.42186000     12.20290000     21.59490000     -0.00375463      0.01527290      0.04253220       8
H               5.12958000     12.20270000     20.34880000     -0.01617920      0.01475730     -0.01396980       1
H               7.88057000     13.04760000     20.88830000      0.02038210      0.01252120     -0.01413840       1
O               4.43816000      9.06551000     15.20300000     -0.01841060      0.07873510      0.01506410       8
H               4.00293000     11.10360000     16.34400000      0.00722046     -0.05700720     -0.04105070       1
H               4.41722000      7.66227000     16.30680000      0.00385071     -0.01039870      0.01929180       1
O               7.36055000     19.96040000     19.39550000      0.00480919      0.02345380     -0.03282160       8
H               7.82424000     18.47920000     20.24880000      0.00655477     -0.02567710      0.01611780       1
H               5.87018000     20.54400000     20.17980000     -0.01518260      0.00066077      0.01675280       1
O              16.67520000      7.47527000     12.97180000     -0.00051135      0.04607480     -0.06617170       8
H              17.12400000      9.60018000     11.15840000     -0.00893380     -0.05064530      0.02239440       1
H              17.84300000      8.15410000     14.13060000      0.00659518      0.00115733      0.02252290       1
O              14.54470000     16.74960000     21.06320000      0.03286640     -0.02111530     -0.07019330       8
H              15.47730000     17.31980000     19.36310000     -0.03803990     -0.00563328      0.05799350       1
H              13.95300000     18.19000000     21.89150000     -0.00250497      0.03652250      0.01344140       1
O              19.80230000      7.17358000      2.87367000      0.00534677     -0.04652220     -0.04948570       8
H              20.64970000      5.44788000      2.36364000     -0.01003230      0.04567980      0.02750880       1
H              20.02070000      7.80680000      4.54657000      0.01537570     -0.00743517      0.01136510       1
O               7.80099000     12.94040000      8.98508000     -0.06349730      0.02572530     -0.04624210       8
H               6.51462000     14.31220000      8.08022000      0.06258560     -0.06571360      0.04261850       1
H               7.03205000     11.23370000      8.55985000      0.01173580      0.03342040      0.01329810       1
O               7.79128000     22.24490000     10.09680000     -0.00249538     -0.04987860      0.07512320       8
H               7.97627000     23.85650000     10.90240000      0.00028874      0.01900280     -0.00986164       1
H               7.63212000     21.22570000     11.82430000     -0.00075493      0.02298910     -0.05933510       1
O              16.33710000     23.60820000      2.53684000      0.02030080     -0.03294470     -0.03809750       8
H              15.26450000     22.11360000      2.38573000     -0.01165010      0.00969831      0.01795000       1
H              17.54480000     22.94070000      1.26067000     -0.00119053      0.02555500      0.01700400       1
O               0.81448400     19.45190000      2.37450000     -0.01814790      0.01034260     -0.06266510       8
H               2.31951000     19.34920000      3.23401000      0.02757300     -0.00260998      0.03576260       1
H              -0.66367900     19.10010000      3.28378000     -0.00706385     -0.00569751      0.03250510       1
O              21.31340000     21.75460000     23.51340000     -0.00009783      0.01980870      0.04633320       8
H              22.44690000     20.47280000     24.09080000      0.00426575     -0.00191321     -0.01028520       1
H              20.74890000     21.46170000     21.89080000     -0.00666769     -0.01339270     -0.03567340       1
O              13.79860000     19.07750000      3.75276000     -0.02712160      0.01790060     -0.03201370       8
H              14.99630000     18.97570000      4.99853000      0.03307720     -0.00294453      0.03835930       1
H              13.35310000     17.37320000      3.37461000     -0.00662253     -0.01184500     -0.00487409       1
O               8.21975000     24.91120000     17.35200000      0.04022430     -0.08346920     -0.03763190       8
H               9.64170000     24.01840000     16.41280000     -0.00192964      0.04988570      0.00918253       1
H               7.59795000     23.16420000     17.45440000     -0.02364580      0.02019460      0.02118000       1
O              10.81070000     10.56950000     24.40600000     -0.01735040     -0.04408340     -0.00656419       8
H               9.08404000     11.01980000     24.31710000     -0.01260250      0.02775930     -0.00236444       1
H              10.35340000      8.75236000     24.28470000      0.03586890      0.00605949      0.00638985       1
O               5.38179000      7.65718000     23.31970000      0.08799650     -0.06622660      0.02846420       8
H               7.54683000      7.04905000     23.62290000     -0.07626180      0.01283750     -0.02263870       1
H               5.46962000      9.40503000     22.98460000      0.00165396      0.02084390     -0.00333909       1
O              13.00760000     23.27940000     13.90030000     -0.00897256      0.00557518      0.01915610       8
H              12.83990000     25.08660000     13.74620000      0.01277770      0.00269095      0.01582230       1
H              12.55350000     22.67650000     12.29240000      0.00071106     -0.01822630     -0.01895530       1
O              22.73580000      3.17939000      0.97048600      0.01493710      0.09107490     -0.05571480       8
H              22.47430000      1.48498000      1.22034000     -0.00788668     -0.05105300     -0.01151900       1
H              22.91280000      3.71247000     -0.98644400     -0.01055060     -0.04032300      0.06004030       1
O              14.33380000      3.66363000     20.02860000     -0.02400170      0.01362760      0.02781190       8
H              15.82760000      3.16823000     19.18330000      0.02234190     -0.00789629     -0.00818012       1
H              14.77220000      4.07245000     21.81080000      0.01300000     -0.00858390     -0.01863550       1
O              14.67220000     13.87770000     13.32790000      0.03085980     -0.00615350     -0.06558610       8
H              12.91110000     13.91330000     13.46300000     -0.04122960      0.00156001      0.01046440       1
H              14.80320000     13.63860000     11.38040000     -0.00061890      0.00407815      0.06172730       1
O               5.71019000      4.42301000     18.84550000     -0.03422420      0.07066280      0.05181190       8
H               6.66892000      2.98436000     18.63600000      0.03203370     -0.02994000      0.00250030       1
H               5.82249000      5.10875000     20.65160000     -0.00383711     -0.02119050     -0.05287560       1
O               2.48490000     16.29050000     22.25930000      0.05488840     -0.01669010      0.04736510       8
H               5.65438000     14.69900000     23.41090000     -0.04847550      0.00143119     -0.04525260       1
H               2.21021000     16.80740000     24.03070000     -0.00345438     -0.00043446     -0.02430240       1
O              17.52530000     11.28850000      9.42960000      0.03773170      0.00949058      0.00213834       8
H              16.43180000     11.39760000      8.02751000     -0.04530010     -0.00238783     -0.01107080       1
H              19.11360000     11.36180000      8.40144000     -0.00344403     -0.02012000      0.03038550       1
O              12.97240000     20.22220000      9.79343000     -0.08550710     -0.01346230      0.01446380       8
H              13.69100000     21.57680000      8.94350000      0.02032630      0.03043370     -0.02592980       1
H              11.01510000     20.64060000      9.67502000      0.06070400     -0.01533210     -0.00320492       1
O              13.15940000     12.95250000      7.37708000     -0.01800700     -0.01359140      0.02186940       8
H              11.43500000     12.53210000      7.84473000      0.00333138     -0.00661084      0.02591380       1
H              12.56980000     13.43450000      5.77778000      0.01691390      0.01966990     -0.04386860       1
O              15.17640000      1.02170000      7.16646000      0.01624660      0.00881108     -0.01394060       8
H              16.45800000      1.08774000      5.78832000     -0.02355040     -0.01025320      0.02006130       1
H              13.78140000      1.99099000      6.49026000      0.00121319     -0.00272122      0.00439992       1
O              22.25770000     16.57390000     20.28740000     -0.06283100      0.01559980     -0.00047977       8
H              21.77710000     15.38150000     18.99900000      0.01863560     -0.00955447      0.00935422       1
H              23.99190000     16.61890000     20.64940000      0.04332190     -0.01124450      0.00528630       1
O              22.11550000     18.20090000      6.65173000      0.01357940      0.00103636     -0.01427160       8
H              22.60450000     19.77210000      7.41609000      0.01794960      0.00729299      0.01453070       1
H              20.36070000     18.33170000      6.77787000     -0.03591110     -0.01126890      0.00351217       1
O              11.51330000     14.64960000      2.63859000      0.04842070      0.00583591     -0.01420720       8
H               9.88465000     14.54040000      3.29499000     -0.03195890     -0.00421724      0.00614945       1
H              11.87980000     13.38940000      1.34398000     -0.01181660      0.00601635      0.01774790       1
O              10.24770000      5.44862000     23.50450000      0.04174320      0.04025090     -0.04961090       8
H              11.86020000      5.50775000     22.28780000     -0.06436230     -0.01027200      0.04371310       1
H              10.01330000      3.84135000     24.27250000      0.00594713     -0.02359910      0.00429891       1
O              23.42250000      2.80150000     11.73940000      0.02340290     -0.03999150      0.00891195       8
H              24.13910000      4.36844000     11.26610000     -0.01283440      0.02424100     -0.00984367       1
H              21.64820000      2.64013000     11.52640000     -0.01830340      0.01446690      0.00057248       1
O              21.58540000      9.19772000      7.11271000      0.02202940     -0.00243070      0.03113020       8
H              22.61460000      8.26678000      8.38766000     -0.01877500      0.00732273     -0.01249550       1
H              22.49080000     10.78110000      7.11899000      0.00431045      0.00364943     -0.01669070       1
O               0.74797500      7.45812000     10.94960000      0.01429770      0.00561318      0.01929610       8
H               1.34269000      7.77699000     12.67270000     -0.00943614      0.00688476     -0.00526242       1
H               2.33682000      7.40743000     10.07280000     -0.00413919      0.00052897     -0.01480990       1
O               6.71409000     15.63490000      4.48884000     -0.06039070      0.02127980      0.04557410       8
H               5.72809000     14.10400000      4.34872000      0.00604352     -0.00705242     -0.00797786       1
H               5.46672000     16.53660000      5.86742000      0.04369160     -0.00396482     -0.04478490       1
O              22.81490000     12.34020000     17.48640000      0.01943050      0.02222010     -0.00313739       8
H              21.30070000     11.73730000     16.78230000     -0.02299750     -0.02072970     -0.00184079       1
H              23.71330000     11.09280000     18.42430000     -0.01725750     -0.01421890      0.00647001       1
O              24.03630000     21.52460000      9.97690000      0.02639330     -0.11003800      0.06821190       8
H              23.14940000     22.97490000      9.84229000     -0.03392330      0.06378310      0.01076670       1
H              23.74790000     20.57990000     12.12780000      0.02047440      0.06613890     -0.07909510       1
O              12.96920000     21.94150000     22.23520000     -0.05108730      0.00353741     -0.05688360       8
H              12.40810000     23.25530000     23.27270000      0.00865902      0.02239770      0.04389460       1
H              11.57760000     22.45380000     20.97760000      0.04076790     -0.02989560      0.01345500       1
O              12.39830000      3.88802000     15.20030000     -0.01632440     -0.02273480     -0.01284140       8
H              12.65780000      3.93000000     17.02170000      0.00377430      0.01253910     -0.00628773       1
H              12.74870000      5.34842000     14.23450000      0.02124340      0.02476950      0.01437560       1
O               9.24461000     14.43890000     13.61160000      0.03408550     -0.03044870      0.00502987       8
H               8.89092000     13.76040000     11.94030000     -0.01117490      0.00324864     -0.00017872       1
H               8.21816000     15.82640000     13.92480000     -0.02299330      0.02610210      0.00105032       1
O              18.44360000      1.13720000     16.87840000     -0.00107435      0.00427593      0.04479610       8
H              19.24400000     -0.25730700     17.85560000     -0.01566780      0.01282810     -0.04779790       1
H              18.40160000      1.39074000     15.04990000      0.00942639     -0.01921780      0.00294496       1
O              17.42970000     10.95130000     17.01290000      0.05261130     -0.01928970     -0.01193280       8
H              16.85200000     10.61840000     18.67070000     -0.02116250      0.01358330      0.00707876       1
H              16.71890000     12.10800000     15.86340000     -0.02878210      0.01028300      0.00167312       1
O              23.61730000     13.77280000      4.90765000     -0.00145441      0.05259700     -0.00167013       8
H              23.03010000     15.63180000      4.81853000      0.01426160     -0.04780010      0.01936250       1
H              23.39010000     13.32760000      3.17746000     -0.00850733     -0.01262330     -0.00904569       1
O               8.22000000     18.65530000      0.23803800      0.03239640      0.00737752      0.02209150       8
H               7.70044000     17.71410000      1.75768000      0.00638276      0.01146510     -0.01350330       1
H               9.99558000     19.25800000      0.61497300     -0.03951550     -0.01521700     -0.00785137       1
O               1.89558000      1.56143000     16.19340000      0.00736299     -0.00310551     -0.02482020       8
H               3.56696000      2.16943000     16.27650000      0.02319330      0.00320770      0.02279780       1
H               1.51074000      2.33437000     14.57890000     -0.02819880     -0.01246120     -0.00141987       1
O               9.15592000      3.15248000     11.32780000      0.04110360     -0.02485060      0.01445550       8
H               8.66381000      4.86189000     11.30070000     -0.01870490      0.03648840      0.00453589       1
H              10.63010000      3.20775000     12.59920000     -0.03571780     -0.00550743     -0.02011600       1
O              18.01200000      2.70812000     11.88270000      0.01094730     -0.06297410     -0.02161960       8
H              17.09590000      1.77194000     10.53210000      0.00786612      0.02611860      0.02100460       1
H              17.38960000      4.35971000     12.18230000     -0.01582280      0.03822620     -0.00101517       1
O               3.12465000     13.90650000     17.16840000      0.03972160      0.03688620     -0.06638540       8
H               3.64897000     15.41380000     15.53280000     -0.01869230     -0.05296770      0.07625330       1
H               1.29137000     13.75760000     17.34190000      0.00623466      0.00873694     -0.01388440       1
O               7.06773000      7.97304000     10.42130000     -0.01102360      0.01230100      0.02753050       8
H               5.86113000      6.83876000      9.70168000     -0.00357757     -0.00933613     -0.02121080       1
H               6.06012000      8.67906000     11.84150000      0.02015870     -0.00357268     -0.00347976       1
O              15.36550000     18.47740000     16.03180000      0.00177566     -0.00367271      0.01139970       8
H              14.50010000     19.92590000     15.24010000      0.00381130     -0.02238930      0.00313978       1
H              14.87470000     16.75800000     15.54170000     -0.00217138      0.02682120     -0.01873790       1
O               5.24410000     18.59590000     14.97690000     -0.00727575      0.05712950      0.04068950       8
H               3.60476000     19.76300000     14.90890000      0.04325680     -0.03954980      0.00272938       1
H               6.33458000     19.31060000     16.69820000     -0.04159600     -0.03296540     -0.05015160       1
O               3.37629000     10.96990000      6.24182000      0.00830574      0.07083400      0.03358530       8
H               3.27279000      9.63139000      5.12334000     -0.01193460     -0.02925340     -0.03499190       1
H               2.40809000     12.53440000      5.71250000      0.00190427     -0.04300930      0.00355870       1
O               4.03324000      4.91582000      7.71720000     -0.01516860     -0.00475790     -0.06423380       8
H               3.47427000      4.84818000      5.56879000      0.01433010      0.01708000      0.06978330       1
H               3.44901000      3.47530000      8.64244000     -0.00244988     -0.00749323     -0.00892912       1
O              10.10380000     14.77270000     19.48960000      0.02056300      0.02507670      0.01763090       8
H              11.70220000     15.88510000     19.99240000     -0.02918010     -0.03997980     -0.01725290       1
H              10.27900000     13.85360000     17.93490000      0.00885868      0.00922825     -0.00464994       1
O              20.15460000     19.87390000     17.41950000      0.02640160      0.01179220     -0.00017218       8
H              20.83080000     18.82620000     18.79340000      0.00592001     -0.00356645     -0.00157710       1
H              18.60140000     19.16230000     16.92920000     -0.02936200     -0.00641142     -0.01024930       1
O               2.94525000      6.67690000      3.23662000      0.08157040     -0.00844576     -0.02074040       8
H               4.25159000      6.54424000      1.52705000     -0.05615900      0.01860300      0.03887870       1
H               1.28057000      6.23700000      2.90816000     -0.03456750     -0.01291180     -0.02111080       1
O               9.60439000      3.54224000      6.26220000     -0.08688020      0.05454440      0.03312350       8
H               9.41188000      3.31757000      8.57619000      0.00572218      0.00429936     -0.07376930       1
H               7.67384000      4.95279000      5.62451000      0.08877230     -0.06587280      0.04205870       1
O              15.83610000      4.96723000      0.65359900      0.00209683     -0.04304100      0.06379810       8
H              17.20400000      6.00034000      1.47894000     -0.01499020     -0.00479565     -0.01215520       1
H              15.62060000      3.52746000      2.03582000      0.00458819      0.04635690     -0.05717290       1
O               3.96378000     18.92170000      7.60729000      0.02525370      0.00396799      0.00932560       8
H               4.84051000     19.97900000      8.85296000      0.00578520     -0.00236226     -0.02054600       1
H               2.45628000     18.71280000      8.52818000     -0.02897220     -0.00609703      0.00104658       1
O               9.76226000      0.91147300      1.73298000     -0.01528450      0.00020810      0.00983945       8
H               9.44427000      1.82800000      3.28183000      0.02665300      0.02761610      0.01866850       1
H               8.49226000     -0.23598100      2.29590000     -0.00763611     -0.02793850     -0.02297670       1
O              24.60000000     20.82870000     15.08120000     -0.05282230     -0.08378650     -0.03622970       8
H              24.93770000     22.13550000     16.28410000     -0.02186100      0.01188530      0.00331711       1
H              22.66970000     19.58830000     15.15110000      0.06663610      0.06726140      0.03888540       1
