192
TotEnergy=-1103.52695000 cutoff=-1.00000000 nneightol=1.20000000 pbc="T T T" Lattice="24.16827000       0.00000000       0.00000000      -0.00000100      24.16827000       0.00000000      -0.00000100      -0.00000100      24.16827000" Properties=species:S:1:pos:R:3:force:R:3:Z:I:1
O              13.15680000     18.57010000     17.93240000     -0.00073091      0.00516975     -0.00347913       8
H              14.06090000     18.41530000     16.36470000      0.00665974     -0.00439392     -0.00133565       1
H              13.80330000     20.13980000     18.58050000      0.00079563      0.00005024      0.00414008       1
O               3.28139000     12.18660000      5.78307000      0.00118544      0.00125351      0.00439758       8
H               4.53337000     10.89490000      5.54141000      0.00253266      0.00250267     -0.00510353       1
H               3.68572000     13.51300000      4.59172000      0.00141791     -0.00629074     -0.00298715       1
O              12.53460000      1.12767000      8.49869000     -0.00526482      0.00163986      0.00066096       8
H              11.95440000      0.91230900      6.79064000      0.00309769     -0.00662957     -0.00668525       1
H              11.89880000      2.76898000      9.03044000     -0.00138693     -0.00388257      0.00433640       1
O               0.99604200      5.75303000      2.16040000      0.00434996     -0.00313152      0.00532196       8
H               2.68406000      6.08803000      2.86758000      0.00614209     -0.00434358      0.00754303       1
H               0.12979200      4.30429000      3.27051000      0.00830237      0.03527960     -0.02031550       1
O               4.82716000     14.68760000      0.17241000     -0.00310513      0.00055801     -0.00098259       8
H               3.97535000     13.07940000     -0.49351000      0.00006594     -0.00034272      0.00767308       1
H               3.46919000     15.89410000      0.34513500      0.00088065     -0.00333702     -0.00106900       1
O              10.08090000      5.27960000     10.83720000     -0.00065065      0.00201163     -0.00234135       8
H               8.28966000      5.65387000     10.62420000      0.00140553     -0.00017607      0.00081119       1
H              10.15760000      4.27751000     12.38130000      0.00044952      0.00099663     -0.00224344       1
O               4.73964000      3.55205000     22.83620000      0.00450057      0.01417810      0.00230122       8
H               5.78877000      5.14005000     22.92790000     -0.00732076     -0.00904242     -0.00539818       1
H               3.06276000      3.90771000     23.44160000      0.00576179      0.01410220     -0.00587765       1
O              11.79420000     13.29250000      8.53362000      0.00057257     -0.00127224     -0.00413809       8
H              12.19270000     14.79180000      7.57295000     -0.00409402      0.00125664      0.00370184       1
H              10.13100000     13.48530000      9.27356000      0.00249185      0.00078321      0.00143033       1
O               1.20341000     18.36580000      1.56507000      0.00176210      0.00460568      0.00259240       8
H               1.28044000     17.94820000      3.31935000     -0.00248856     -0.00193176      0.00363484       1
H               2.12978000     19.92180000      1.44992000      0.00018207      0.00276761     -0.00288244       1
O               4.91649000      5.84402000     10.52150000      0.00016848     -0.01706540      0.00130950       8
H               4.58574000      4.43268000     11.68790000     -0.00009504      0.00358209     -0.01012850       1
H               3.77223000      7.17752000     10.98630000     -0.00039137      0.01000330     -0.00059819       1
O               1.73294000     23.73090000     23.50310000      0.00567954     -0.00961442     -0.00951669       8
H               1.97817000     22.51130000     22.09950000     -0.00283973      0.00876101      0.01034360       1
H               3.17308000     24.85960000     23.35770000      0.00073714     -0.01106060      0.00012783       1
O              20.13610000     12.10520000      3.78690000     -0.00171074      0.00199737     -0.00139735       8
H              21.19240000     12.39080000      2.29450000     -0.00948424      0.00563000     -0.00392014       1
H              18.39270000     12.09600000      3.22353000     -0.00121924      0.00345934      0.00350221       1
O              19.22240000     20.66190000      2.62233000      0.00030265      0.00279698      0.00348531       8
H              17.84740000     20.45560000      3.79147000     -0.00189368     -0.00655903     -0.00077774       1
H              20.11660000     22.08070000      3.28368000      0.00157093     -0.00017642     -0.00015155       1
O               3.95162000      1.70672000     13.35000000      0.00638630     -0.00550292      0.00136171       8
H               2.13925000      1.55085000     12.96590000      0.00092601      0.00089759      0.00353801       1
H               4.68753000     -0.00822600     13.15940000     -0.00884628      0.00401247     -0.00420011       1
O              21.27490000     18.96150000     21.94730000     -0.00122807      0.00243960     -0.00139945       8
H              20.95680000     19.57700000     23.63630000     -0.00406942     -0.00260746     -0.00155501       1
H              22.87070000     19.69550000     21.48870000      0.00187284     -0.00576855      0.00040510       1
O               7.68140000      0.51744200      1.94878000      0.00116203     -0.00445345      0.00451844       8
H               6.59566000      1.82649000      2.56766000      0.00265140     -0.00050894     -0.00645079       1
H               7.85816000      0.76243200      0.14174300     -0.00171478     -0.00044852      0.00181448       1
O              15.76990000      6.53037000      4.20910000      0.00448038      0.00495468     -0.00223294       8
H              17.38270000      6.35576000      5.03774000     -0.00091265     -0.00184810      0.00094802       1
H              14.58470000      7.12493000      5.50485000      0.00196744      0.00160324     -0.00522794       1
O              23.86600000      1.46845000      4.90297000     -0.00275044      0.00950070     -0.00853484       8
H              22.37530000      1.37624000      3.82823000      0.00574245     -0.00232533     -0.00146481       1
H              25.02090000      0.21923700      4.25377000     -0.00232313      0.00063062     -0.00053025       1
O              13.59070000     17.96830000      5.63441000      0.00965541      0.00175838      0.01144040       8
H              13.21060000     19.70140000      5.18498000      0.00100068     -0.00376466     -0.00492106       1
H              14.88380000     18.11540000      7.12615000     -0.00940423      0.00099676     -0.00799142       1
O               9.79870000     12.27690000     23.21680000      0.00040193     -0.00929095      0.00244387       8
H               9.82498000     13.74100000     24.26860000     -0.00209275      0.00116015     -0.00338568       1
H              10.68440000     12.65690000     21.67700000     -0.00317318      0.00638018      0.00093473       1
O              16.82580000     15.91760000     14.61830000      0.00269863     -0.00459051      0.00591546       8
H              18.18880000     15.17940000     15.55890000     -0.00124523      0.00532437      0.00321296       1
H              16.70030000     14.82640000     13.18800000     -0.00706417     -0.00143096     -0.00987576       1
O               7.86134000     16.88680000      3.90837000      0.00371912      0.00354651     -0.00669136       8
H               7.26002000     16.29990000      2.27701000     -0.00854760     -0.00315817      0.00227026       1
H               9.34341000     17.88110000      3.59652000      0.00261697     -0.00136388      0.00007549       1
O               2.47476000     19.99790000     19.80580000     -0.00175541     -0.00048465     -0.00142572       8
H               2.00819000     19.82450000     18.03020000     -0.00419117      0.00055716     -0.00029808       1
H               3.11227000     18.36710000     20.27770000      0.00177771      0.00059491      0.00266560       1
O              12.60610000     22.87920000      3.48668000      0.00053462      0.00367075      0.00430450       8
H              11.19410000     23.18710000      2.38972000     -0.00506643      0.00084771      0.00412583       1
H              13.88600000     24.08510000      2.93928000      0.00406475     -0.00458935     -0.00202346       1
O              16.50790000     10.86940000     11.31030000      0.00304946     -0.00299248      0.00047905       8
H              14.95950000     10.08590000     10.75290000      0.00281149      0.00722201     -0.00847944       1
H              16.79890000     10.04330000     12.90980000     -0.00115892      0.00293680      0.00365760       1
O              16.85100000     18.42960000      9.04977000      0.01013720     -0.00479588      0.00164464       8
H              23.76840000     14.11490000      9.59018000     -0.02463110     -0.00104337      0.01171150       1
H              17.28510000     18.99560000     10.75250000     -0.00587469      0.00044985     -0.00860705       1
O               2.15899000     10.69570000     23.23580000     -0.00768600     -0.00783519      0.01194320       8
H               2.83577000      9.57942000     21.96930000     -0.00560948      0.00750299     -0.00045036       1
H               0.39341900      7.51543000     25.81540000     -0.00459380     -0.02040080      0.00544871       1
O              14.88070000     13.49480000      3.35300000      0.00452792      0.00286197     -0.00155249       8
H              14.60440000     15.21380000      3.99182000     -0.00331233     -0.00405149      0.00190845       1
H              13.51220000     12.46320000      3.94462000      0.00192166      0.00330726     -0.00118062       1
O               0.33781100     19.35840000     14.95580000     -0.00196815      0.00248289      0.00195287       8
H               1.31036000     19.40630000     13.42660000      0.00503102      0.00248821      0.00334237       1
H              -0.90389500     18.06210000     14.62650000      0.00224623     -0.00135581      0.00029430       1
O              13.45710000      0.41228900     18.34000000     -0.00386968     -0.00559963      0.00074446       8
H              14.70040000      1.46625000     19.12150000      0.00162275      0.00022329     -0.00026732       1
H              13.54620000      0.85679000     16.56820000      0.00339152      0.00403469      0.00479458       1
O               7.92380000      7.43440000     22.01860000     -0.00828446      0.00255466     -0.00119226       8
H               7.96310000      9.23119000     22.35610000      0.00051510     -0.00253684      0.00788795       1
H               8.68346000      7.23668000     20.34870000      0.00101231     -0.00507320      0.00658853       1
O               3.58571000      4.81006000     17.67850000     -0.00146274     -0.00587351     -0.00095486       8
H               3.81185000      3.65951000     16.29200000     -0.00364040     -0.00414049     -0.00565548       1
H               4.37696000      3.99859000     19.09500000     -0.00190503      0.00504143      0.00633118       1
O               9.08709000     21.88540000     16.05880000     -0.00382332      0.00197076     -0.00347161       8
H              10.05680000     21.01150000     14.80280000      0.00777416      0.00119756      0.00516797       1
H              10.00220000     21.85380000     17.61900000     -0.00078239     -0.00803218      0.00182094       1
O              21.70210000     13.28400000     23.06900000      0.01235160      0.00391177     -0.00200759       8
H              23.45650000     12.61920000     22.78620000     -0.00753239     -0.00628230      0.00194982       1
H              21.75650000     15.09450000     22.76670000      0.00256749     -0.00266290      0.00096037       1
O              12.61250000      8.37476000      7.62873000     -0.00527087      0.00242849      0.00353916       8
H              11.65450000      7.47094000      8.88852000      0.00093881     -0.00920384      0.00324389       1
H              12.02020000     10.10720000      7.76790000      0.00581905      0.00792926     -0.00384204       1
O               8.79633000      2.58752000     14.90020000     -0.00364114     -0.00198920      0.00331610       8
H               8.97255000      0.78609000     15.25730000      0.01065180     -0.00217202      0.00302089       1
H               7.01675000      2.63780000     14.54190000     -0.00146254      0.00895817     -0.00213433       1
O              16.41640000      7.89566000     23.07410000     -0.00105572      0.00599424     -0.00148097       8
H              16.01280000      9.68971000     22.92120000     -0.00008420     -0.00598237      0.00482526       1
H              16.38340000      7.56531000     24.87320000     -0.00242108      0.00200622      0.00050373       1
O               5.25772000      5.72717000      4.92829000     -0.00419255     -0.00499160     -0.00261202       8
H               7.05869000      5.58421000      4.81696000      0.00230150      0.00366208     -0.00313746       1
H               4.80902000      4.89995000      6.48800000      0.00066570      0.00644563      0.00763144       1
O              14.76350000      3.80964000     14.41750000      0.00795819     -0.00706054     -0.01056240       8
H              15.10160000      5.59173000     14.58250000      0.00127098     -0.00361483     -0.00200832       1
H              15.92350000      3.08108000     13.15400000     -0.01254220      0.01135970      0.00923633       1
O              12.47660000     12.97660000     18.71180000      0.00881815     -0.00109358      0.00113527       8
H              13.73660000     13.03860000     20.06560000      0.00448802      0.00049127     -0.00611009       1
H              12.73520000     14.54470000     17.82570000     -0.00254040      0.00478693      0.00428738       1
O              23.01720000     10.45380000     15.55590000     -0.00349898      0.00717772     -0.00570030       8
H              21.38670000      9.73506000     15.91050000      0.00256769     -0.00103640      0.00906543       1
H              23.98540000     10.41390000     17.11300000      0.00194670     -0.00186793     -0.00492883       1
O              19.34990000      7.93971000     18.77720000      0.00022041     -0.01753070      0.00253015       8
H              18.52200000      7.85201000     20.41670000      0.00209779      0.00499244      0.00634507       1
H              19.92630000      6.16997000     18.64500000     -0.00160712      0.01241030     -0.00238643       1
O              20.15480000     14.04070000      8.83704000     -0.00497803     -0.01156340     -0.00719009       8
H              18.77700000     12.95700000      9.51408000      0.00838786      0.00196074      0.00609461       1
H              20.15460000     13.43640000      7.09458000      0.00583639      0.01094310     -0.00759078       1
O               3.70984000      9.92061000     17.63350000     -0.00285195      0.00055586     -0.00049597       8
H               5.23402000     10.44910000     18.45110000     -0.00187386      0.00387959     -0.00337901       1
H               3.99437000      8.15567000     17.26800000     -0.00287760     -0.00054188      0.00310952       1
O              12.20190000     21.40290000     11.50020000     -0.00653302     -0.00032430      0.00357380       8
H              11.58670000     19.82520000     10.81330000      0.00565319     -0.00184729     -0.00791261       1
H              11.99580000     22.79400000     10.19950000      0.00815890      0.00054715      0.00468994       1
O              21.64520000      2.35240000     24.48960000     -0.00411920      0.00000923      0.00319332       8
H              23.13530000      1.42352000     23.90170000     -0.00855077     -0.00117029     -0.00358630       1
H              20.87550000      3.04593000     22.96120000      0.01025520     -0.00568143      0.00434183       1
O              15.25840000      9.23475000     16.08630000     -0.00420518     -0.00462442     -0.00167782       8
H              16.42770000      8.96385000     17.48550000      0.00330980      0.00140736     -0.00702595       1
H              14.24950000     10.72810000     16.40460000      0.00365582     -0.00216630      0.00561008       1
O               2.50312000     10.45390000     10.90560000     -0.00089179     -0.00005250     -0.00046526       8
H               1.00975000     10.83200000     11.86910000      0.00290268     -0.00272251      0.00558681       1
H               2.24395000     11.12670000      9.24034000     -0.00090171      0.00090967     -0.00131371       1
O               5.30979000     21.08020000     13.09640000     -0.00323321      0.00069159     -0.00063101       8
H               6.06032000     21.03700000     14.76890000      0.00115062     -0.00331064     -0.00424976       1
H               6.57475000     20.42550000     11.96400000     -0.00434165     -0.00413043     -0.00490084       1
O              21.38530000      3.21767000     19.47210000     -0.00995526     -0.00863444     -0.00851302       8
H              20.80340000      1.68527000     18.55890000      0.00398923      0.01041610      0.00121281       1
H              23.06340000      3.57046000     18.89970000      0.00642581     -0.00075732     -0.00256909       1
O              16.25480000      1.95564000      1.82451000     -0.00560368     -0.00763531     -0.00376137       8
H              15.80350000      3.71691000      1.69010000      0.00726180     -0.00372169      0.00742387       1
H              18.01260000      1.69956000      1.46417000     -0.00083087      0.00520335     -0.00334681       1
O               8.63120000     10.92700000     15.66060000      0.00312597      0.00374998     -0.00080636       8
H               9.77572000     11.24340000     17.03150000      0.00194054      0.00772934      0.00108163       1
H               8.95069000      9.18071000     15.31500000     -0.00287568     -0.00273342     -0.00036776       1
O               7.79732000     17.88100000      8.93236000      0.00090217      0.00150389      0.00366046       8
H               7.54597000     16.20210000      9.62552000     -0.00253971      0.00509427      0.00466975       1
H               7.64919000     17.64310000      7.11291000      0.00032393      0.00162061      0.00640070       1
O              10.46140000      6.64835000     17.82190000      0.00737058      0.00402050     -0.00295270       8
H              10.37890000      5.31075000     16.60800000     -0.00467976     -0.01382350     -0.00130812       1
H              12.18870000      7.21018000     17.79910000      0.00172065      0.00051123      0.00060341       1
O              23.32760000      1.93208000     12.48660000     -0.00496925     -0.00029418     -0.00051074       8
H              21.92620000      1.11996000     13.30570000      0.00129910     -0.00443469      0.00373760       1
H              22.60730000      3.16742000     11.39080000     -0.00315466      0.00186324     -0.00344511       1
O               7.36331000     13.17200000     11.33620000     -0.00369962     -0.00575917     -0.00014940       8
H               5.96724000     12.07070000     10.91820000      0.00024037      0.00613626      0.00323122       1
H               7.78072000     12.67260000     13.07730000      0.00287054      0.00103930     -0.00538817       1
O              16.37540000     13.10060000     22.24640000      0.00471113      0.00079265     -0.00150218       8
H              16.30570000     14.22920000     23.67410000     -0.00684225     -0.00538621      0.00085244       1
H              18.17200000     12.88730000     21.95520000      0.00313443      0.00162390     -0.00127962       1
O              23.28310000      9.10402000      5.77393000      0.00265617      0.00354116      0.00150921       8
H              24.65830000     10.30370000      5.81001000      0.00242114      0.00018943     -0.00237885       1
H              21.79060000     10.07750000      5.20673000      0.00468054     -0.00457160     -0.00184878       1
O              17.91940000      2.38160000     10.12400000      0.00314778      0.00044512     -0.00108363       8
H              17.39660000      1.39630000      8.68816000     -0.00650273     -0.00078389      0.00590366       1
H              18.23950000      4.02297000      9.40469000      0.00319055      0.00203130     -0.00093777       1
O               8.71632000      0.01472000     20.80980000     -0.01772600      0.01366930     -0.00109932       8
H              10.36710000      0.47379700     20.12580000     -0.00902210      0.00802480     -0.00100568       1
H               7.38394000      1.14566000     20.13970000      0.03120500     -0.01673320      0.00683343       1
O              20.59620000      5.40947000      6.92320000      0.03959990      0.00811705      0.00188311       8
H              21.44590000      3.79248000      6.96813000     -0.00788620      0.00538711      0.00113785       1
H              22.11720000      6.67463000      6.82080000     -0.03773670     -0.01672320      0.00022815       1
O              22.46500000     14.98550000     13.11570000      0.01239970     -0.01265440      0.00165258       8
H              22.67900000     13.44280000     14.22160000     -0.00580992      0.01024280     -0.01825270       1
H              21.24950000     14.75430000     11.75790000      0.00117777     -0.00035797      0.01150510       1
O              20.27780000     23.14870000     16.73570000     -0.00997215      0.00186119     -0.00911900       8
H              19.06470000     22.20540000     15.65450000     -0.00109103      0.00907086      0.00422173       1
H              21.11850000     21.91500000     17.73000000      0.00482367     -0.00995915      0.00215514       1
O              16.77830000     21.84820000     12.97960000     -0.02155140     -0.00398108      0.00685201       8
H              17.78580000     23.18960000     12.24840000     -0.01945930     -0.00866764     -0.00406981       1
H              14.28830000     21.43110000     12.23280000      0.03887490      0.01613500     -0.00143362       1
