192
TotEnergy=-1103.69570000 cutoff=-1.00000000 nneightol=1.20000000 pbc="T T T" Lattice="23.59002000       0.00000000       0.00000000      -0.00000100      23.59002000       0.00000000      -0.00000100      -0.00000100      23.59002000" Properties=species:S:1:pos:R:3:force:R:3:Z:I:1
O              11.06470000      5.85385000     21.94340000     -0.00035448     -0.00960461      0.00011203       8
H              10.55650000      6.11914000     20.22510000      0.00308859      0.00479773     -0.00155485       1
H               9.98787000      6.95931000     22.93690000      0.00187875      0.00776556      0.00067215       1
O               3.56773000     15.97950000      9.30134000     -0.00039845      0.00073995     -0.00078743       8
H               3.98939000     17.55770000     10.13040000      0.00164316     -0.00260590      0.00346007       1
H               2.58996000     16.54110000      7.85117000      0.00753079      0.00602343     -0.00569489       1
O               9.57720000     14.10610000     21.56040000     -0.00336587     -0.00657005     -0.00251665       8
H               8.46396000     14.02670000     20.07940000     -0.00159715      0.00720838     -0.00024330       1
H              11.23960000     13.96850000     20.86390000      0.00554372     -0.00546729     -0.01074220       1
O               0.12408100      3.63383000     22.13750000     -0.00290740     -0.00769856      0.00050556       8
H               1.09782000      3.32239000     20.63130000     -0.00250856      0.00711445      0.00137291       1
H              21.99170000      3.61654000     21.57650000     -0.00119911      0.00204976     -0.00108852       1
O              18.52540000     13.93940000     18.37530000     -0.00206869     -0.00148089      0.00598457       8
H              19.28630000     14.72360000     16.89560000      0.00016007      0.00650525      0.00385934       1
H              16.73120000     14.18820000     18.21630000     -0.00458871     -0.00780058     -0.00576499       1
O               1.23246000     12.29140000     21.52790000     -0.00737403      0.00463794     -0.00192787       8
H               1.24434000     10.65640000     22.29990000      0.00401217      0.00026266      0.00682270       1
H               1.81158000     13.52740000     22.76500000      0.00664078      0.00204830     -0.00209389       1
O               6.02384000     14.31220000     17.74520000      0.00833369      0.00726538      0.01136630       8
H               5.21667000     15.93180000     18.14670000     -0.00483349     -0.00908759     -0.00407641       1
H               6.50301000     14.40070000     16.00920000      0.00409564      0.00086434     -0.00499507       1
O              19.21400000      7.24237000      3.87207000     -0.00257695     -0.00270086      0.00207742       8
H              18.90220000      6.59243000      2.20448000     -0.00676019      0.00113880     -0.00297093       1
H              18.04300000      8.63903000      4.04464000     -0.00043336      0.00753774     -0.00086226       1
O               3.73404000     16.76150000      0.67792900      0.00092049      0.00379825      0.00609089       8
H               3.14430000     19.49460000     23.19250000     -0.00283503     -0.01638850      0.00389812       1
H               5.35140000     16.44430000     -0.07009900     -0.00002112     -0.00080245      0.00353243       1
O              15.78280000     20.74650000     13.73800000      0.01014630      0.00085508      0.00130538       8
H              15.47270000     20.49440000     15.49370000     -0.00204329      0.00428310      0.00685298       1
H              14.18470000     20.43790000     12.91730000     -0.00327224     -0.00306184     -0.00095525       1
O              19.25850000      1.24836000     10.96760000      0.00288466     -0.01069300     -0.00568057       8
H              18.81820000      2.30877000      9.55185000      0.00496833      0.01079180      0.00587095       1
H              17.79680000      1.38295000     12.09320000      0.01153430     -0.00092758      0.00116060       1
O               2.52951000      0.21557100      4.68512000      0.01480030     -0.01324150     -0.00282526       8
H               3.66371000     -0.03081500      3.27391000     -0.00681572      0.00458319     -0.00389612       1
H               1.56380000      1.68357000      4.33236000     -0.00668666      0.01334060      0.00008119       1
O               2.10675000     20.83130000     22.30170000     -0.02007910      0.01484150     -0.01111490       8
H               2.67889000     22.51320000     22.59230000      0.00675842     -0.00393733      0.00449343       1
H              -2.04253000     22.07450000     21.80830000      0.02726100      0.00342044      0.00200572       1
O              19.57170000      8.48223000     18.00180000     -0.00155583     -0.01112780     -0.00152622       8
H              20.02090000     10.22280000     17.87510000      0.00243191      0.00901009      0.00329736       1
H              21.00380000      7.44446000     17.53100000      0.00208320      0.00460730      0.00188526       1
O               7.83690000     20.94790000     20.47460000      0.00758835     -0.00273342     -0.00117995       8
H               7.45977000     20.72020000     18.72230000     -0.00418885     -0.00085139     -0.00008057       1
H               6.76809000     22.30640000     21.05560000      0.00249669     -0.00280310      0.00187599       1
O              11.42050000     10.01530000      7.53660000      0.00607985      0.00348384     -0.00000436       8
H              10.09010000     10.97900000      6.74432000     -0.00282652     -0.00222232      0.00116527       1
H              11.99900000     11.15580000      8.84016000     -0.00346854      0.00059695      0.00294186       1
O               5.97018000      8.97500000      4.82132000      0.00781283      0.00324263      0.00794540       8
H               6.20164000     10.78000000      5.07750000     -0.00393919     -0.00240347      0.00588687       1
H               4.43739000      8.74396000      3.91948000     -0.01890650      0.00323428     -0.00685552       1
O              18.65210000     13.76790000      9.03644000     -0.00027711     -0.00177519     -0.00335883       8
H              19.73540000     12.69120000     10.01690000      0.00508057      0.00251674      0.00587749       1
H              19.79120000     14.83600000      8.11185000     -0.00163018      0.00380102      0.00588832       1
O               6.80819000      7.27278000     14.91030000     -0.00550422     -0.00402070      0.01514250       8
H               6.75059000      7.58077000     13.15050000     -0.00236714      0.00341996     -0.01776640       1
H               5.19378000      7.73917000     15.61070000      0.00128438      0.00163673     -0.00281139       1
O              16.88720000      6.63618000     22.24050000      0.00165930     -0.00022860      0.01191740       8
H              18.17770000      7.77533000     21.65790000     -0.00037698     -0.00165915     -0.01038780       1
H              15.32580000      7.48294000     21.88020000     -0.00262935     -0.00336368      0.00194345       1
O              23.67300000      5.87598000     15.52400000     -0.00449531      0.00013561      0.00210316       8
H              -0.47967100      4.69308000     14.25820000      0.00623718     -0.00039763      0.00063391       1
H               0.31835700      7.48881000     14.72300000      0.00296698     -0.00058014     -0.00124241       1
O              11.81170000      7.49908000     16.26790000      0.00112902      0.00014402      0.00281679       8
H              10.42070000      6.45024000     15.74390000      0.00189443      0.00612212      0.00200994       1
H              13.26230000      6.44004000     16.48500000      0.00100253     -0.00328519     -0.00442253       1
O              20.37300000     17.10340000     14.96140000     -0.00020329      0.00126669      0.00101741       8
H              21.32000000     16.44360000     13.55060000      0.00037883     -0.00068719      0.00114200       1
H              18.83880000     17.78300000     14.26300000      0.00149441      0.00406101     -0.00423702       1
O               9.81880000     20.76060000     15.13930000     -0.00196318     -0.00011329      0.00452455       8
H              10.96520000     20.54870000     16.54350000     -0.00026758      0.00194109      0.00042101       1
H              10.12370000     22.46090000     14.53200000      0.00124464     -0.00649965     -0.00418887       1
O              10.65240000     22.21900000      5.25550000     -0.00600223     -0.00256117      0.00289736       8
H               9.93256000     22.56040000      3.63828000      0.00404497      0.00055991     -0.00866726       1
H              12.31970000     22.95070000      5.14065000      0.00264507      0.00111057      0.00562424       1
O               6.63382000      5.61743000      9.16795000     -0.00531042     -0.00430356      0.01178140       8
H               5.25641000      6.23363000      8.17004000      0.01383470      0.00027664     -0.01060220       1
H               6.51290000      3.80017000      8.97291000      0.00370369     -0.00348796     -0.00062681       1
O              11.09670000      1.90477000     13.16540000     -0.01314490      0.00775744     -0.00499492       8
H              12.85010000      1.53330000     13.40420000      0.00916252      0.00208880      0.00062387       1
H              11.15600000      3.66588000     12.66650000     -0.00282777     -0.01299220      0.00387725       1
O              11.75030000      4.51583000      7.75117000      0.00977599     -0.00296723      0.01034690       8
H              10.58850000      3.21927000      8.25458000      0.00173006     -0.00011068     -0.00213032       1
H              11.28310000      5.98705000      8.71705000     -0.00819635      0.00401289     -0.01283300       1
O              16.90490000      5.27691000      8.57259000      0.00088336     -0.00624855     -0.00140089       8
H              15.13010000      4.78656000      8.50602000     -0.00321853      0.00311327     -0.00627904       1
H              17.27990000      5.92853000      6.91772000      0.00093447     -0.00040673     -0.00387444       1
O               9.92845000     15.36670000     13.57370000     -0.00346057      0.00078031      0.00149243       8
H              11.00770000     15.57520000     12.12190000     -0.00231711     -0.00125991      0.00446401       1
H               9.58528000     17.02680000     14.19780000      0.00021801      0.00987770     -0.00509408       1
O              23.42030000      4.98251000      6.17675000      0.00067988     -0.00833063     -0.00380146       8
H              -0.20597600      6.27031000      7.46117000      0.00211976     -0.00785548      0.00359108       1
H              21.84050000      5.10223000      5.30661000     -0.00511505      0.00412450      0.00113249       1
O              16.03350000     11.60750000      5.20868000      0.00139380     -0.00378849     -0.00200705       8
H              14.27460000     11.38600000      5.67129000      0.00155209     -0.00994386      0.00071749       1
H              16.85830000     12.22480000      6.72902000      0.00118938     -0.00339867     -0.00151998       1
O              15.62040000      3.78331000     13.79250000      0.00443021     -0.00343865      0.00437058       8
H              16.11830000      5.16641000     12.73080000      0.00489135      0.00847914      0.00220292       1
H              16.70070000      3.87023000     15.25900000     -0.00192988     -0.00404765      0.00174155       1
O              21.00020000     19.45480000      9.98692000     -0.01185500     -0.01133600      0.01055000       8
H              21.69630000     20.26950000      8.56502000      0.00578462      0.00813221     -0.01323900       1
H              19.48760000     20.38430000     10.41250000      0.00668319     -0.00029518     -0.00110801       1
O              20.30220000     21.08470000     22.68770000     -0.01792260     -0.01960580      0.01406690       8
H              20.54310000     20.34390000      0.96712200     -0.00412834      0.00723272      0.00099922       1
H              19.96760000     19.62080000     21.67720000      0.00359277     -0.00653893     -0.00938802       1
O               6.64689000      0.45435000      7.83757000     -0.00053173      0.00343255      0.00786129       8
H               8.03960000     -0.11304400      6.78466000      0.00355638     -0.00043378      0.00208135       1
H               5.18779000      0.68229800      6.75929000     -0.00315035     -0.00590411      0.00109107       1
O              14.82590000     16.61010000      4.53025000     -0.00026110      0.00545016     -0.00614217       8
H              13.30820000     15.69920000      4.07880000     -0.00017419      0.01334380      0.00042841       1
H              16.03630000     15.27990000      4.55502000      0.00324783     -0.01579680      0.00296346       1
O              13.71380000     12.79480000     11.50870000     -0.00769648     -0.00240518     -0.00771136       8
H              15.09360000     13.32610000     10.47540000      0.01080240      0.00188430      0.00136066       1
H              13.98920000     11.04380000     11.88640000      0.00818093      0.00133722      0.00630134       1
O               1.80325000     18.48120000      5.12419000     -0.00708886     -0.00519532      0.00258570       8
H               1.92556000     20.29550000      5.03946000      0.00103721     -0.00182901      0.00000271       1
H               2.87292000     17.78240000      3.75063000     -0.00336437     -0.00044325     -0.01283240       1
O              11.52600000      0.97082500      0.53882800     -0.00667345     -0.00961639     -0.00139136       8
H              10.76830000      2.38596000     23.30350000      0.00505355      0.01334780     -0.00507744       1
H              13.14840000      0.83303400     -0.23978600      0.00340495     -0.00211044      0.00814471       1
O              16.92650000      1.04882000      0.61691800      0.00178667     -0.01421260      0.00609491       8
H              17.32790000     23.59260000     22.78330000      0.00152274      0.00634402      0.00353884       1
H              16.26150000      2.56530000     23.52600000      0.00298697      0.02002360     -0.00670410       1
O              19.86120000     13.33170000      0.00052800     -0.02754990      0.01317470      0.01945100       8
H              18.90240000     13.73890000     22.11250000      0.00361753     -0.00571374     -0.00869417       1
H              21.36030000     12.62710000     -0.64900800      0.02436080     -0.00501368     -0.01134950       1
O              17.42420000      1.49141000     18.43470000      0.00619822      0.00182330      0.00641075       8
H              16.19650000      0.28569000     19.02250000     -0.00099008     -0.00368384     -0.01022430       1
H              18.97650000      0.54730000     18.15940000     -0.00178041     -0.00029947     -0.00607413       1
O              12.94890000     13.06290000     17.27560000      0.00365778      0.00385551     -0.00451502       8
H              12.36150000     14.31730000     16.01820000      0.00027317     -0.02747890      0.00724980       1
H              12.82560000     11.36190000     16.54790000     -0.00351490      0.02154880      0.00407561       1
O               2.12796000     11.29850000     16.26050000     -0.00028723     -0.00638751      0.00335004       8
H               3.70800000     11.31160000     17.17050000     -0.00011622      0.00349365     -0.00344751       1
H               1.20091000     12.36360000     17.41710000     -0.00314246     -0.00309588     -0.00224714       1
O              13.64480000     21.29530000     19.10390000      0.00840427      0.00457176     -0.00766367       8
H              12.46290000     22.47030000     19.78300000     -0.01356470     -0.00097657      0.00657501       1
H              13.88310000     19.97220000     20.35360000     -0.00212189     -0.00396929      0.00266804       1
O               5.02358000      5.45461000     20.78410000     -0.01255890     -0.00591565     -0.00578961       8
H               6.02135000      4.70655000     19.46650000      0.00431983      0.00227204     -0.00257599       1
H               6.03723000      6.52764000     21.82060000      0.00714758      0.01038490      0.00084797       1
O              17.89100000      8.55017000     12.70260000     -0.01078710      0.00381621     -0.01156100       8
H              19.20200000      8.77850000     13.91340000      0.00348554      0.00022526      0.00742710       1
H              18.62510000      8.26763000     11.07190000      0.00151680     -0.00338520      0.00200524       1
O              12.62430000     20.08640000     10.11020000      0.00653643     -0.00179628     -0.00058888       8
H              14.15590000     20.53190000      9.24255000     -0.00235764     -0.00167901     -0.00585965       1
H              11.39440000     20.04020000      8.80175000     -0.00751668      0.00158671     -0.00751602       1
O               2.85995000     18.40830000     17.74910000      0.00380684      0.00064676     -0.00431531       8
H               2.02199000     18.46310000     16.15090000     -0.00264222      0.00329624      0.00057710       1
H               2.28364000     19.77830000     18.83220000      0.00288662     -0.00552610      0.00274223       1
O               7.93766000      9.48253000      0.10143200      0.00015635     -0.01473460     -0.01449380       8
H               8.32693000     10.97200000     22.72680000      0.00261961      0.00938879      0.00235122       1
H               7.31370000      9.93821000      1.73140000     -0.00005518     -0.00183384      0.00733617       1
O               8.01147000     13.65630000      6.07654000     -0.00204892     -0.00046565     -0.00162553       8
H               7.16686000     14.53790000      7.42712000     -0.00547595      0.00145218     -0.00139368       1
H               8.02697000     14.75880000      4.62835000      0.00119863      0.00605992     -0.00076730       1
O               6.14941000      2.32531000     16.25530000      0.00050325     -0.00551408      0.00704559       8
H               7.48977000      1.37618000     15.50520000      0.00120368     -0.00165261      0.00155983       1
H               6.30805000      3.95067000     15.45850000     -0.00206781      0.00484082     -0.00432915       1
O               0.63622900      0.51682600     13.11220000     -0.04714400     -0.00419148     -0.04905520       8
H               2.30293000     23.20920000     12.95400000     -0.03580110      0.00968624     -0.01672810       1
H              22.41250000     24.03380000     11.29710000      0.06614020     -0.00171972      0.07389860       1
O               5.78735000      1.17014000     23.24500000     -0.00554722     -0.00683844      0.01014260       8
H               4.98367000      2.45520000     22.23150000     -0.00224769      0.01078780      0.00001036       1
H               7.25125000      2.02897000      0.24912300      0.00415260     -0.00102740      0.00401419       1
O              22.00710000     22.43070000     17.41480000      0.00072692      0.00088413     -0.00417731       8
H              22.79630000     -0.55924000     15.78300000     -0.00281351      0.00122456      0.00841899       1
H              21.88960000     20.63530000     17.18320000     -0.00292580     -0.00185608     -0.00524923       1
O              14.87380000     17.36880000     22.00540000     -0.00020147     -0.00241334      0.00081817       8
H              16.60490000     16.99890000     22.35680000     -0.00068393     -0.00569158      0.00167690       1
H              13.93630000     16.79790000     -0.12583100      0.00172705      0.00742649      0.00262353       1
O              15.72870000     23.41050000      6.24700000     -0.00019450     -0.00428870      0.00269730       8
H              16.45040000      0.87897600      7.52212000     -0.00377663      0.00050475     -0.00255882       1
H              16.57190000      0.26506200      4.71003000      0.00176826     -0.00007713     -0.00651219       1
O              10.20980000     17.13030000      1.84696000      0.00663191     -0.00038644      0.00557443       8
H              10.07720000     16.23430000      0.25994700     -0.01347840     -0.00662646     -0.00458764       1
H               9.55244000     18.76320000      1.46056000     -0.00136739      0.00404848      0.00104821       1
O              23.39230000     13.55500000     11.84610000     -0.01872570     -0.00064605     -0.00560936       8
H               0.44772500     14.75690000     10.64990000      0.00954254      0.00219321     -0.00029188       1
H               1.24309000     12.53980000     12.21770000      0.00382637     -0.00310890      0.00904475       1
O               0.92455100      8.52309000      2.12754000      0.01175500      0.01086970     -0.00212395       8
H               1.32742000      6.88696000      1.50458000     -0.00247096     -0.01105070     -0.00584626       1
H              23.10550000      8.27464000      3.22952000     -0.00519320      0.00023662      0.00022450       1
O               5.08571000     20.52270000     12.05160000     -0.00263739      0.00034094      0.00041349       8
H               6.18593000     21.37460000     10.87490000     -0.00194680      0.00430250     -0.00074130       1
H               6.03161000     20.31090000     13.58720000      0.00256386     -0.00026448     -0.00172531       1
O              19.70950000     19.15150000      3.52350000      0.00752533      0.00303249     -0.01334990       8
H              18.15570000     18.17050000      3.58092000      0.00099409      0.00786309     -0.00068906       1
H              21.07500000     18.08780000      4.09641000      0.00544393      0.00038859     -0.00066249       1
O               1.83982000      7.46367000     10.13040000     -0.00497227      0.00736244      0.00559963       8
H               3.06561000      6.37588000     10.93030000     -0.00378067      0.00032500     -0.00340007       1
H               2.73879000      8.33322000      8.81693000      0.00130998      0.00561638      0.00403431       1
