192
TotEnergy=-1102.88185000 cutoff=-1.00000000 nneightol=1.20000000 pbc="T T T" Lattice="24.85330000       0.00000000       0.00000000      -0.00000100      24.85330000       0.00000000      -0.00000100      -0.00000100      24.85330000" Properties=species:S:1:pos:R:3:force:R:3:Z:I:1
O               7.03825000      4.67318000      2.81997000     -0.02679160     -0.00529200     -0.03579810       8
H               6.81930000      4.19232000      0.98903200      0.01546750      0.01043570      0.02834710       1
H               8.53279000      3.94186000      3.46079000      0.01951430     -0.00498739      0.00173674       1
O              19.50620000     -0.01257500     -0.66365400      0.02538850      0.01870430      0.00024993       8
H              18.06710000      1.11840000     -0.76904200      0.00370136     -0.00214495      0.00330973       1
H              21.03550000      1.09503000     24.35190000     -0.02780200     -0.01380350     -0.00454883       1
O               3.03946000     20.26510000      0.02291600      0.03343850     -0.02387940      0.03604140       8
H               4.79005000     19.74220000      0.91731500     -0.05971040      0.02032490     -0.01919460       1
H               1.82140000     19.33490000      1.09855000      0.01876140      0.01161610     -0.01840890       1
O              20.43730000     13.09220000      0.17643600     -0.00286982     -0.02662710      0.04165730       8
H              21.07360000     13.33490000      1.91209000      0.00114456      0.01640900     -0.01711910       1
H              19.86630000     11.27130000      0.68033400      0.01275120      0.05045110     -0.00893096       1
O               0.42188800     24.06550000      7.25330000      0.02067040      0.02471770      0.03080920       8
H               1.61668000      0.08791900      8.47349000     -0.02870750     -0.02245510     -0.01793010       1
H               0.80788000      0.24245600      5.81512000      0.00320742     -0.00344981     -0.01391480       1
O              21.26890000      5.51798000      8.85918000     -0.01392770     -0.00087562      0.00387125       8
H              21.90730000      5.45276000     10.53780000      0.01180560      0.00710584      0.01335770       1
H              20.17910000      4.02093000      8.96601000      0.00810622      0.00449379     -0.01691290       1
O              11.99320000      1.04351000     20.76450000     -0.04768360     -0.08298720     -0.08866080       8
H              12.43830000      2.13051000     21.89050000      0.06018770      0.09569430      0.10333900       1
H              10.20600000      1.31980000     20.84810000     -0.00957348      0.00037295     -0.01211310       1
O              20.13690000      0.97388900      7.71568000      0.00472377     -0.02092710      0.00265767       8
H              21.89180000      0.22994200      7.79112000     -0.02602530      0.00589730      0.00391980       1
H              18.91390000     -0.13962500      8.52088000      0.01795780      0.00299601     -0.00802452       1
O              20.62650000     11.00120000      8.79230000     -0.00671711      0.00127291      0.01503440       8
H              19.23160000     10.71410000      9.97431000      0.01356020      0.00468380     -0.01768460       1
H              20.98760000      9.35986000      8.11533000     -0.00303855     -0.00788958      0.00249388       1
O              10.40450000     12.49050000     13.15210000      0.04356180      0.11130000     -0.10867100       8
H               9.97984000     11.30810000     14.17190000     -0.04207820     -0.11245400      0.11321800       1
H               9.73568000     11.81010000     11.62960000     -0.00158126      0.00694661     -0.01240020       1
O              23.93200000     20.99210000     12.64040000      0.10009600      0.01209620      0.07592990       8
H              23.30500000     20.26310000     11.25830000     -0.04792100     -0.03358580     -0.08130390       1
H               0.93522500     20.26230000     12.60730000     -0.04779190      0.02295960      0.00626646       1
O              23.38260000      3.99830000     14.09180000      0.00967592      0.07767790      0.03325620       8
H              23.59800000      2.54536000     15.14720000     -0.00298487     -0.00973940      0.01731390       1
H              23.42990000      6.39615000     16.32500000      0.00038040     -0.07746150     -0.06291270       1
O              21.01080000     19.36820000      8.52381000     -0.02549140     -0.04192930      0.06214150       8
H              19.20750000     19.61980000      8.84113000      0.01624970      0.00561927     -0.01393790       1
H              21.70180000     20.22760000      7.20755000      0.00761517      0.03423870     -0.04935380       1
O               2.04659000     13.19230000     20.80960000     -0.04190420      0.01316410      0.13529800       8
H               2.45806000     13.16850000     19.21470000      0.03139110      0.01796310     -0.12440600       1
H               1.57639000     14.88620000     21.54800000      0.00872453     -0.03145560     -0.02045540       1
O               6.84739000     19.72880000      3.34149000      0.01656050     -0.01075070     -0.03270220       8
H               7.55076000     18.19840000      2.42896000     -0.00414508      0.02506370      0.02097730       1
H               7.63015000     21.25990000      2.57204000      0.00161443     -0.02183110      0.01460900       1
O               7.53490000     21.17920000     16.31860000     -0.02053300     -0.00730823      0.00643696       8
H               6.69793000     20.20120000     17.65430000      0.00446810      0.01304290     -0.01230390       1
H               9.13725000     21.59050000     17.03320000      0.01610310     -0.00675539      0.00705590       1
O               8.17481000     18.49750000      8.51660000      0.06314350      0.00058416      0.01682940       8
H               7.91426000     19.33510000      6.93070000     -0.00207425      0.00077701     -0.00888854       1
H              10.10350000     18.60090000      8.81926000     -0.06064200     -0.00132180     -0.00824297       1
O               6.46066000     10.35880000      7.81186000      0.13718700      0.13041300      0.12176100       8
H               5.52520000      9.35960000      7.07457000     -0.13873100     -0.15400700     -0.11226400       1
H               6.59846000     11.67480000      6.63178000      0.00298390      0.02306820     -0.00664356       1
O              12.25610000     11.78240000      3.84127000     -0.02358380     -0.01050430     -0.01391110       8
H              12.96140000     12.55390000      5.39183000      0.01410290     -0.00559590     -0.00945340       1
H              10.93610000     10.62630000      4.29511000     -0.00099563     -0.00413928      0.01887170       1
O              21.90540000     21.12670000     20.42960000      0.00439863      0.00274743      0.01772030       8
H              21.66610000     22.30610000     21.90130000     -0.02162510     -0.02719310     -0.03188780       1
H              20.41090000     20.34040000     19.63910000      0.01390100      0.02066590      0.01767450       1
O              15.72460000      8.47666000     16.00200000     -0.03526300      0.00793439     -0.00743585       8
H              13.91010000      8.58767000     15.54220000      0.02867870     -0.00459873     -0.00532971       1
H              15.53970000      8.92479000     17.73710000      0.00524622     -0.00015217      0.01634080       1
O              12.44200000      3.48606000      5.08342000     -0.00405989      0.06797670     -0.04399580       8
H              13.02900000      5.09853000      5.76728000     -0.01038010      0.00146131     -0.02144960       1
H              12.80590000      2.63072000      6.49726000      0.01130640     -0.07243160      0.06889490       1
O               3.33203000     18.94000000     19.16610000     -0.04829650      0.01069090      0.03752840       8
H               1.80201000     19.68570000     18.38380000      0.02381100     -0.00576657      0.00316972       1
H               2.78054000     19.11170000     21.02500000      0.02616510     -0.00305304     -0.03890450       1
O               3.95373000     13.28760000     15.95050000      0.00712838      0.00071583      0.01578570       8
H               2.79519000     13.05560000     14.62830000     -0.01345310     -0.00586610     -0.01962770       1
H               3.84549000     15.06080000     16.26860000      0.00528999      0.00674499      0.00145512       1
O              -0.68403500      8.72212000     19.39240000     -0.02576750     -0.04442950     -0.00071412       8
H              23.31380000      8.78416000     17.79370000      0.00120006      0.01725930     -0.00214883       1
H               0.48141900     10.03220000     19.40300000      0.02397730      0.03237510      0.00005036       1
O               2.80424000      2.96005000     10.52740000     -0.04339010      0.02990060      0.04024050       8
H               1.12240000      3.43960000     11.46300000      0.03762210     -0.02474260     -0.02202100       1
H               3.64915000      4.48240000     11.12160000      0.00590037     -0.00553189     -0.00829593       1
O              18.33060000     13.42460000     16.47420000      0.01205090     -0.02056750     -0.00874282       8
H              18.35190000     11.44950000     16.63080000     -0.00830128      0.06735640     -0.00076997       1
H              17.44320000     14.35190000     17.82230000      0.00369953     -0.03155060      0.00392245       1
O               3.55496000      8.56060000      3.90702000      0.03856300      0.00441983     -0.02538330       8
H               3.84987000      6.79450000      3.57265000     -0.00195094      0.00427703      0.00257315       1
H               2.24378000      8.67171000      5.05117000     -0.03823260     -0.00407611      0.01777030       1
O              23.70690000      6.00803000      3.81923000     -0.04012330     -0.04188470      0.00948408       8
H              22.70460000      5.36401000      5.29469000      0.01956960      0.02107190     -0.01156090       1
H              23.31220000      4.59040000      2.66570000      0.01782130      0.01782240      0.00313482       1
O               4.00890000     18.46750000     12.44380000     -0.07318480     -0.03776710      0.08513320       8
H               5.07631000     19.11990000     11.34480000      0.07336530      0.03761360     -0.07415020       1
H               4.85390000     18.56320000     14.06620000     -0.00038608      0.00380215     -0.01249420       1
O              16.18120000     13.70710000     21.17570000      0.13341000     -0.13316300     -0.03872340       8
H              15.20130000     14.89560000     21.53290000     -0.13841600      0.14749100      0.03980960       1
H              17.55980000     14.10340000     22.29070000      0.00935552     -0.01158860     -0.00152530       1
O              12.17900000     21.06050000     19.25190000      0.01576280     -0.04984220      0.06684230       8
H              12.58790000     19.54160000     21.34680000     -0.01008430      0.04992470     -0.06116330       1
H              12.26680000     22.83260000     19.77220000      0.00393127     -0.01929960      0.00920602       1
O              19.94710000     18.55740000     15.29080000     -0.00880005     -0.10592700      0.02496180       8
H              21.51020000     18.71840000     14.43590000      0.01612340      0.00702572     -0.00773818       1
H              19.92200000     15.80240000     15.62570000     -0.00986072      0.07644340     -0.00866009       1
O              10.93080000      4.50669000     13.84260000      0.00646090     -0.05713420      0.00172709       8
H               9.57064000      3.17168000     13.72150000      0.02399530      0.02082290     -0.00482339       1
H              12.51100000      3.35372000     14.26180000     -0.03245170      0.03859930      0.00193264       1
O              15.52730000     19.97620000     10.57740000      0.00839958     -0.01837770     -0.02065910       8
H              15.67060000     18.22270000     11.20810000     -0.01053180      0.01815850      0.00453507       1
H              16.00740000     20.96600000     11.98020000      0.00058675      0.00564893      0.01865950       1
O              19.98870000      3.11707000     18.28180000      0.02233260      0.01505240      0.02534650       8
H              18.84570000      1.79222000     17.90860000     -0.00405722     -0.00799801      0.00019519       1
H              20.87030000      2.78447000     19.88010000     -0.01575040     -0.00272061     -0.02062930       1
O              -0.57247100      2.34690000     -0.53267000      0.01005150      0.03929370     -0.02388940       8
H               0.46616800      1.04360000      0.06774500      0.01426550     -0.01839950      0.01479050       1
H               0.72022900      3.43322000     23.46580000     -0.02936360     -0.01876770      0.00896827       1
O               7.30513000      3.69608000     21.99770000      0.03573690      0.00542489      0.03488390       8
H               7.27689000      5.35633000     21.25980000     -0.00213773      0.00387503     -0.00639577       1
H               6.17908000      2.58338000     21.24580000     -0.03248140     -0.00722498     -0.02171280       1
O               5.59909000     11.31930000     23.62790000     -0.00248394      0.01675150      0.00872175       8
H               4.34641000     11.05750000      0.09638300      0.00130327      0.00040612     -0.01653910       1
H               4.85334000     11.73330000     21.93420000     -0.00830117      0.00227131      0.03799150       1
O              14.52560000     15.75630000     13.35740000     -0.01782260     -0.04564560     -0.02416760       8
H              15.70590000     14.67100000     14.27130000     -0.00409615      0.00917162     -0.00494478       1
H              13.26890000     14.43930000     12.63170000      0.02076900      0.03693650      0.03273030       1
O              -0.45711300     -0.66214200     16.95370000     -0.03612780     -0.04180580     -0.08874440       8
H              23.32450000     23.56100000     18.24460000     -0.00630440     -0.00428985      0.01902220       1
H              -1.40880000     23.07870000     15.32150000      0.05149470      0.04440920      0.05852860       1
O              18.96980000      8.03754000     20.49740000      0.00510854      0.01058470     -0.03799080       8
H              20.23290000      9.08429000     19.63220000     -0.00988154     -0.00862363      0.02406320       1
H              18.50180000      6.93521000     19.06960000      0.00341705     -0.00324284      0.02326910       1
O               8.77184000      9.04367000     21.21650000      0.03487570     -0.01705820      0.00434014       8
H               7.84254000      9.91741000     22.51630000     -0.00743373     -0.00403411     -0.00175067       1
H              10.38220000      8.74671000     22.10020000     -0.00171951      0.00322900     -0.01333470       1
O              13.14750000     17.37190000     23.32460000      0.00211400     -0.00680222      0.03846570       8
H              14.22100000     17.24800000      0.28665200     -0.03352560     -0.00267113     -0.05756120       1
H              11.54570000     16.39070000     23.49390000      0.02407500      0.01654370      0.00812076       1
O              -0.57116000     16.65630000     23.83800000      0.06629160      0.06646400      0.00154960       8
H              23.33550000     15.25550000     23.99470000     -0.05759220     -0.05751670     -0.00143913       1
H              23.65390000     17.99490000     22.80010000     -0.01547010     -0.00553143     -0.00607902       1
O              19.14610000      8.65083000      1.48968000     -0.00966445     -0.03918610      0.15913600       8
H              19.13790000      9.10129000     -0.04070700     -0.02801960      0.01960740     -0.18841300       1
H              20.69670000      7.80051000      1.53860000      0.02917590     -0.02031310      0.01856230       1
O              23.42520000     15.03070000      5.49844000      0.03219820      0.02613140     -0.04789290       8
H              22.40270000     15.83470000      6.64198000     -0.03000200      0.04060930      0.03428360       1
H              23.05200000     13.41940000      5.94471000     -0.00707937     -0.06859440      0.01364150       1
O               2.55017000      3.08047000     19.59660000     -0.00444117      0.00847919     -0.01207110       8
H               1.66128000      4.46687000     18.80260000      0.00476902      0.00024734      0.00977805       1
H               2.37772000      1.82111000     18.29570000     -0.00359841     -0.01043610      0.00391921       1
O               8.86636000     15.11090000      1.39519000     -0.02499120     -0.08027420     -0.03649720       8
H               9.94929000     14.19230000      2.61094000     -0.01456130      0.01666140     -0.01825650       1
H               7.92099000     13.48590000      0.25008200      0.02781300      0.06671860      0.04407470       1
O               3.28235000      0.92537100      2.92102000      0.04429250     -0.00632420     -0.00882631       8
H               4.92878000      1.84312000      3.25694000     -0.03723160     -0.01036420     -0.00369227       1
H               3.86407000     -0.56562500      1.96617000     -0.01134770      0.01055920      0.01429860       1
O              23.63260000     10.06690000     14.10910000      0.08022510     -0.09807480      0.27921500       8
H              23.47970000     10.44540000     12.66570000     -0.06569890      0.09504340     -0.30455800       1
H               0.36074900      9.11322000     13.75010000     -0.01253830      0.00487083      0.02231040       1
O              12.45670000     -0.83847300      8.67505000      0.01585120      0.00432595     -0.00686363       8
H              13.43360000     22.67870000      9.44180000     -0.00149125     -0.00258142     -0.00456489       1
H              10.77990000     -1.10917000      9.23095000     -0.01568960      0.00135729      0.00804014       1
O               4.00743000      8.09996000     12.47410000     -0.05759220     -0.01599880     -0.10824600       8
H               5.23206000      8.58984000     11.22710000     -0.00695070      0.00838591     -0.00234389       1
H               4.84250000      8.25998000     13.88380000      0.06548150      0.01263330      0.11587000       1
O               8.62331000      8.58594000     15.91960000     -0.03932750     -0.09858830     -0.15430300       8
H               9.52767000      6.78487000     15.11920000     -0.02134790      0.06142800      0.03508860       1
H               9.46160000      9.02678000     17.25090000      0.06183170      0.02986750      0.12090100       1
O               9.98757000     23.56990000      1.88803000     -0.01295480     -0.00601793     -0.05755690       8
H              10.19860000     -0.50458700      0.20469800     -0.00513904     -0.02142450      0.01278910       1
H              10.70740000      0.01103100      2.79466000      0.02167460      0.02963440      0.04208390       1
O              13.72310000      9.09274000     23.80010000     -0.02973550      0.03473160      0.05466580       8
H              12.31900000     10.83460000      1.47498000      0.05371530     -0.02140460     -0.03246280       1
H              15.03830000     10.35090000     23.55530000     -0.01116720     -0.00876570     -0.00485184       1
O              15.20160000     12.87530000      8.81405000      0.05162830      0.06139710     -0.05020220       8
H              15.51670000     14.39560000      9.82910000     -0.01671120     -0.03067540      0.00102301       1
H              14.17680000     11.59930000      9.29926000     -0.04351590     -0.03869120      0.04251900       1
O              14.79880000      3.35508000      0.29733200      0.00094346      0.01122310     -0.01297990       8
H              14.61340000      3.25759000      2.09056000     -0.00300644     -0.00433730      0.00658134       1
H              14.60560000      5.15877000     -0.03682400      0.00378000     -0.00295886     -0.00277703       1
O              15.26450000      2.22065000     15.90530000     -0.01417840     -0.08637250      0.03148360       8
H              14.79710000      1.40951000     17.63970000      0.00330924      0.03932840     -0.04317760       1
H              15.50390000      0.43908800     15.15320000      0.00114643      0.04136650      0.00727852       1
O              16.68400000     16.75270000      2.06254000     -0.22162700      0.13945500      0.10580200       8
H              17.24470000     18.26220000      1.45876000      0.02497060      0.06565620     -0.00563310       1
H              17.71590000     15.77450000      1.53819000      0.19300100     -0.20020100     -0.09554420       1
O              11.36390000      8.50832000      9.02826000     -0.02096940      0.05624610     -0.04761270       8
H              11.84360000      7.21093000      9.98001000      0.04838170     -0.07388750      0.05760880       1
H               9.61047000      8.26603000      9.29669000     -0.02171750      0.01523750     -0.01297940       1
O               7.83560000      0.15099700     12.12390000     -0.00865465      0.11411800     -0.08061720       8
H               7.68715000     23.73880000     13.16560000     -0.01457870     -0.10002300      0.08356480       1
H               6.14593000      0.92328500     11.95760000      0.01705440     -0.01436280     -0.00069844       1
O              20.48140000     20.26840000      2.77533000     -0.03218050      0.03397200      0.01602290       8
H              21.77200000     19.22030000      2.22950000      0.03494790     -0.01437010     -0.00978131       1
H              20.97320000     22.04070000      2.89062000     -0.00059408     -0.01963470     -0.00973203       1
O              16.34920000     21.75640000     15.82180000     -0.14574400      0.14104900      0.05948470       8
H              15.83200000     20.95110000     17.31780000     -0.02304880     -0.00637436      0.01724740       1
H              17.48250000     20.84250000     15.23350000      0.16113600     -0.12487200     -0.07637080       1
