192
TotEnergy=-1103.68873000 cutoff=-1.00000000 nneightol=1.20000000 pbc="T T T" Lattice="23.84683000       0.00000000       0.00000000      -0.00000100      23.84683000       0.00000000      -0.00000100      -0.00000100      23.84683000" Properties=species:S:1:pos:R:3:force:R:3:Z:I:1
O               5.66447000     20.46770000     22.06740000      0.02275170      0.00454088     -0.00252689       8
H               7.49666000     20.30090000     21.50080000      0.00416712     -0.00138897      0.01024520       1
H               4.56117000     19.03920000     21.60860000      0.00193845     -0.01078580     -0.01704360       1
O              19.56370000      1.39107000      4.05023000     -0.00919215      0.00164712      0.00046007       8
H              20.61640000      2.83834000      3.82869000      0.00295956      0.00952082     -0.00088423       1
H              20.59930000      0.21176200      4.91135000      0.01153960     -0.01332100      0.00507507       1
O              13.24800000      1.02635000     13.34130000      0.01275750     -0.00760448     -0.00026124       8
H              11.73930000      0.81334600     12.35840000     -0.01896740     -0.00323435     -0.00767319       1
H              13.00330000      2.41343000     14.44160000     -0.00409027      0.01503010      0.00925294       1
O              12.86640000     17.90070000      9.85538000     -0.00543134     -0.00154002      0.00066792       8
H              14.55090000     18.08540000     10.46140000      0.00204794      0.00642011      0.00284720       1
H              12.77920000     18.79580000      8.24438000     -0.00600829     -0.00693363      0.00632712       1
O              16.93300000     13.20980000     15.57220000     -0.00465322      0.01416570     -0.00200972       8
H              17.50520000     11.80030000     14.60630000     -0.00277978     -0.01076150     -0.00484920       1
H              18.12610000     13.19520000     16.94970000      0.00076733     -0.00187320      0.00482056       1
O              23.31080000     11.93320000     22.89040000     -0.00507250     -0.00200081     -0.00280053       8
H              24.90060000     11.03680000     23.29050000     -0.00055343     -0.00214203      0.00472411       1
H              23.36090000     13.54870000     23.68110000      0.00723941      0.00774304      0.00348945       1
O               9.36356000     13.90100000     10.14980000     -0.02340900     -0.00243742      0.01050250       8
H               8.35021000     15.37840000      9.80416000      0.00851217     -0.00725754     -0.00669358       1
H              11.07870000     14.39650000     10.01610000      0.01677600      0.01190490     -0.00626159       1
O              16.12950000     19.57180000      3.02596000      0.00089273     -0.00514654     -0.00193043       8
H              16.99230000     18.83240000      4.46727000     -0.00211231      0.00217679      0.00194191       1
H              16.63420000     21.30390000      2.89735000     -0.00215928      0.00044378      0.00352949       1
O              17.67210000     20.29440000     11.70290000      0.00857277     -0.01033560      0.00449589       8
H              19.00500000     21.59100000     11.61180000     -0.00821965     -0.00009366     -0.00255035       1
H              18.09900000     19.35010000     13.19560000     -0.00277139      0.00630217     -0.00180884       1
O               2.57075000      8.07156000      5.22867000     -0.00867323     -0.00027257      0.00211654       8
H               3.76315000      8.06573000      6.58211000      0.00862738      0.00369854      0.00448444       1
H               1.90677000      6.39352000      5.09601000      0.00601285     -0.00668437      0.00097588       1
O              15.48380000     12.88060000      7.11364000     -0.00127935      0.00888541      0.00866511       8
H              14.62110000     12.08540000      5.75223000     -0.00321513     -0.00725396     -0.01094790       1
H              16.38300000     11.59370000      7.99005000     -0.00006916     -0.01089080      0.00153083       1
O              23.54670000     16.32140000     15.93390000      0.02094680     -0.01232270      0.01598610       8
H              22.07040000     16.73800000     15.06290000     -0.02098850      0.00919928     -0.01508960       1
H              24.93240000     16.37060000     14.76410000     -0.00855138      0.01137310      0.00011488       1
O               6.91432000      5.27090000     11.57800000     -0.00391735      0.00817309     -0.00143357       8
H               7.27951000      5.42390000     13.33340000      0.01067170     -0.00111242      0.01350810       1
H               8.41790000      4.53965000     10.88920000     -0.00302474     -0.00980350     -0.00354845       1
O              11.67500000      8.38446000      2.95571000     -0.01049380      0.01126480     -0.00497092       8
H              10.41400000      7.12239000      2.68304000     -0.00849327     -0.00547292      0.00305659       1
H              13.22140000      7.44508000      3.14368000      0.00846756     -0.00097435      0.00156262       1
O              20.98840000     12.36300000     18.43270000      0.00104640     -0.00256211     -0.00070291       8
H              22.10220000     13.48350000     17.52750000      0.00367437      0.00172488     -0.00182045       1
H              21.69240000     12.32920000     20.12080000      0.00573779     -0.00266096      0.00284819       1
O               2.06650000     22.74410000      0.91458000     -0.02086200      0.01167740      0.02711530       8
H               3.56946000     21.89510000      0.57192200      0.01412470     -0.00330568      0.00370139       1
H               1.16066000     23.20400000     -0.59065600     -0.00667989     -0.00310703     -0.00840925       1
O               2.56568000     13.02010000     12.03000000      0.00406363      0.00702372     -0.00288559       8
H               2.56547000     13.58610000     13.74020000     -0.00130610     -0.00680721      0.00313897       1
H               2.75100000     11.18300000     12.18060000     -0.00956457     -0.00107153     -0.00475043       1
O               6.89088000     15.92780000      4.79590000     -0.00460541      0.00835423      0.00477836       8
H               6.62964000     14.22120000      4.29140000      0.00647641     -0.01422580     -0.00240271       1
H               7.94979000     16.57470000      3.49918000      0.01107580      0.00323471     -0.00109178       1
O              15.95190000      5.97187000      2.90937000      0.00531325     -0.01010220      0.00055745       8
H              17.18250000      5.83430000      4.22941000     -0.00356334      0.00141487      0.00229581       1
H              16.87270000      6.49974000      1.45138000      0.00128368      0.00075364     -0.00342552       1
O               0.83194200      1.23269000     14.51400000     -0.00688258     -0.00018796     -0.00629021       8
H               0.50550400      2.10486000     16.06670000     -0.00377425      0.00295477      0.00368146       1
H               2.59453000      0.91411200     14.60850000      0.01150870     -0.00147981      0.00157792       1
O               3.94952000      2.03229000      4.64209000     -0.00141160      0.01140560      0.01538910       8
H               3.93078000      0.43680800      5.47914000      0.00100604     -0.00082504      0.00124289       1
H               2.87203000      1.85127000      3.21604000     -0.00148165     -0.00731805     -0.01298020       1
O              13.18930000     21.45030000     17.23880000     -0.00280161     -0.00091676      0.00457242       8
H              13.31950000     22.66350000     15.86580000     -0.00554757     -0.00106446     -0.00164597       1
H              14.90000000     21.27390000     17.83070000      0.00615344     -0.00624039     -0.00552536       1
O              11.04050000     19.99380000     21.58020000     -0.01821940     -0.00608744      0.00546492       8
H              11.99890000     20.60620000     20.12930000     -0.00586445      0.00596309     -0.00689102       1
H              11.53300000     21.13790000     22.91230000      0.00564357      0.01150000      0.00420796       1
O              22.70010000      7.70931000     16.18280000      0.00103856     -0.00899085     -0.01138480       8
H              23.11170000      6.24314000     17.15940000     -0.00132693     -0.00310289      0.01034280       1
H              22.22210000      9.06425000     17.29720000     -0.00094519      0.00590139      0.00193416       1
O               4.03689000      4.73229000     21.94920000     -0.00858710     -0.00519361     -0.00536923       8
H               5.46593000      3.54458000     22.23430000      0.01163850     -0.00438211     -0.00128955       1
H               4.77824000      6.35558000     22.19600000     -0.00418013      0.00605071      0.00749614       1
O              11.99810000      0.92497900      5.29591000     -0.02034060     -0.00270105     -0.00790918       8
H              12.97780000      1.48264000      6.68886000      0.01894280      0.01230570      0.00708131       1
H              10.76170000      2.21535000      4.84642000     -0.00035837      0.00422943      0.00934517       1
O               8.25359000      2.30047000     22.34500000     -0.01584070     -0.01287090     -0.00934107       8
H               9.64221000      1.30277000     22.92210000     -0.00072041      0.00779949     -0.00067325       1
H               5.06796000     -1.64473000     21.67700000      0.01002710      0.00439858     -0.00084720       1
O               7.11912000     11.39110000     14.79620000      0.00432453      0.00010020      0.00298884       8
H               6.28033000     10.91680000     13.26850000      0.00373381      0.00187057     -0.00251271       1
H               8.06536000     12.88740000     14.44570000      0.00536644      0.00215617     -0.01030620       1
O               6.94326000     20.37720000     10.53010000     -0.01705130     -0.01021440      0.00173548       8
H               5.47533000     19.50530000      9.82264000     -0.00095253     -0.00399551      0.00137644       1
H               8.03340000     19.18890000     11.28320000      0.01296020     -0.00787998      0.00488733       1
O               9.02443000      0.42898300      9.80324000      0.00728717     -0.00032501      0.00291151       8
H               8.00828000     -1.28464000      9.98983000      0.02427900      0.03477220     -0.00783681       1
H              10.08950000      0.32222200      8.32517000     -0.01221850     -0.00549957      0.00467465       1
O               4.16429000     19.24710000     14.95550000      0.00035186     -0.00402803      0.00429517       8
H               5.94623000     18.83950000     15.01790000      0.00137222      0.00047225     -0.00506895       1
H               4.08567000     20.90310000     14.20370000     -0.00027278     -0.00721422      0.00412019       1
O              -0.08984500     17.32800000     22.62370000     -0.00247039      0.01033920     -0.00170160       8
H               0.79749800     16.91760000     21.08620000      0.00289438     -0.00651650     -0.00275725       1
H               1.18396000     17.41340000     23.91200000     -0.00576359     -0.00579626      0.00608856       1
O              18.91710000      9.70582000      0.20115400      0.00589630     -0.01536270     -0.00116218       8
H              17.43930000     10.69950000      0.62321200     -0.00967403      0.00416705      0.00239511       1
H              20.17610000     10.86940000     -0.38896500      0.01165820     -0.00220505     -0.00066018       1
O              22.80110000     22.28110000     20.81750000      0.00699327      0.02264650     -0.01457930       8
H              23.30010000     20.66060000     21.37900000     -0.00765628     -0.02285490      0.00445495       1
H              21.01760000     22.46510000     21.17780000     -0.00375365     -0.00176338      0.00695857       1
O              18.72010000      4.98304000     20.95690000     -0.01276290     -0.00030702     -0.00323189       8
H              20.29260000      4.30433000     20.37980000      0.01890810      0.00311696     -0.00607055       1
H              19.08820000      6.58415000     21.71770000      0.00076440      0.00868930      0.00239145       1
O              17.31340000      7.08560000      8.44037000      0.00310911     -0.00235775      0.00690736       8
H              17.08180000      5.25953000      8.73537000     -0.00259157      0.00871606     -0.00352969       1
H              18.94120000      7.30658000      7.67801000      0.00397410     -0.00331010     -0.00409000       1
O              22.41390000     20.55030000      6.01043000      0.00233350      0.00657711      0.00176406       8
H              23.50740000     19.77100000      4.78127000     -0.00749165      0.00291544     -0.00209725       1
H              20.93450000     19.51120000      6.18566000      0.00206318     -0.01009410     -0.00221718       1
O              21.06490000     23.84360000     10.77740000     -0.00853228     -0.00350539     -0.00156830       8
H              21.70170000     23.00340000      9.30798000      0.01087080     -0.00191757     -0.00105169       1
H              22.27370000     23.64280000     12.13310000      0.00751834      0.00961590     -0.00072534       1
O               3.02304000     17.90380000      9.22268000     -0.00115135      0.00060184      0.01385460       8
H               2.46317000     16.49430000     10.24990000      0.00139827     -0.00133352     -0.01273080       1
H               2.29833000     17.91310000      7.58665000     -0.00792455     -0.00533454     -0.00369089       1
O              10.94280000     19.54550000      5.43422000     -0.00259667      0.00143833     -0.00449637       8
H              11.64880000     18.52780000      4.10924000      0.00689224      0.00702495      0.00237622       1
H              11.45040000     21.27430000      5.10219000     -0.00013789     -0.00163836     -0.00323191       1
O              15.93010000      2.14061000      9.19178000      0.00146628      0.01845030     -0.04363880       8
H              17.44040000      1.18128000      9.23328000      0.00632465     -0.00763373      0.00844971       1
H              15.04430000      2.01038000     10.72550000     -0.00685315     -0.01183330      0.03350850       1
O               3.59601000      9.51837000      0.56413500     -0.01241340     -0.00266472      0.01166030       8
H               3.39530000      8.95170000      2.35222000      0.00046903      0.00324485     -0.01945970       1
H               4.90067000     10.76100000      0.65836500      0.01506240      0.00402280     -0.00215029       1
O               3.80401000     16.38240000     19.54340000      0.00554632      0.01684960      0.00741201       8
H               3.68182000     17.22870000     17.93590000     -0.00227509      0.00201233     -0.00352503       1
H               3.72903000     14.56030000     19.25010000      0.00163063     -0.00500984      0.00649860       1
O              13.02430000      0.40565500      0.47117400      0.00190219     -0.00901392      0.00133561       8
H              14.78640000      0.81130600      0.57539300      0.00346673     -0.00001560     -0.01334470       1
H              12.45680000      0.83986400      2.14364000      0.00191510     -0.00200532     -0.00141395       1
O              17.69920000      7.89677000     13.79120000     -0.00081306      0.00559959     -0.00127675       8
H              19.05730000      6.91754000     14.48890000      0.00748445      0.00578563     -0.00078707       1
H              17.85510000      7.80386000     11.98360000     -0.00224278     -0.00382866     -0.00769376       1
O              14.81510000      5.78940000     17.18990000     -0.03381240     -0.03672530      0.04286060       8
H              15.30850000      6.72374000     15.80120000      0.02759510      0.02405280     -0.03363120       1
H              16.20600000      5.15391000     18.18890000     -0.00028451      0.00843372     -0.00352157       1
O               8.08681000      5.17028000      4.83387000      0.01148490     -0.00585706      0.00012558       8
H               6.47759000      4.35817000      4.65357000     -0.00412414     -0.00935601     -0.00306724       1
H               8.10427000      5.85895000      6.49952000     -0.00000684      0.00836149      0.00225250       1
O              23.61360000      3.45493000     19.53720000      0.00222438     -0.00012683     -0.00543022       8
H              25.14060000      4.07300000     20.44660000      0.00168858     -0.00373793     -0.00010394       1
H              23.72950000      1.62197000     19.52700000     -0.00214373      0.00342600      0.00782701       1
O               2.53677000      7.93524000     12.49870000      0.00260341      0.00590417     -0.00292235       8
H               1.33611000      7.52114000     13.81320000     -0.00348033      0.00367590      0.00281042       1
H               3.84531000      6.68658000     12.45750000     -0.00179103     -0.00573942     -0.00426906       1
O              18.56510000     18.43830000     22.34050000     -0.00725179     -0.00510401     -0.00491499       8
H              19.77290000     17.12020000     22.60060000      0.00357804      0.00243613      0.00278166       1
H              17.56130000     18.57680000     23.85800000      0.00062217      0.00011107      0.00316754       1
O              17.63530000     18.86750000     17.43840000      0.00583417      0.00554611     -0.00799991       8
H              17.00710000     17.73230000     16.19820000     -0.00888406     -0.01200090     -0.00144359       1
H              17.33900000     18.05810000     19.03820000      0.00815886      0.00082196      0.00936931       1
O              11.50580000     14.92810000     22.44430000      0.00185792     -0.00108683      0.01427450       8
H              11.62890000     16.73290000     22.45260000     -0.00278215      0.01083250     -0.00546285       1
H              11.22630000     14.39640000     20.72810000      0.00133070     -0.00464120     -0.01081910       1
O               8.13363000     12.01140000      1.13445000     -0.00979959      0.00549603      0.00169283       8
H               9.34605000     12.78460000      0.01426000     -0.00041259      0.00819440      0.00003798       1
H               9.14422000     11.20450000      2.39390000      0.00709160     -0.01229040      0.00329474       1
O               7.04976000      9.69350000      8.39933000      0.02124900      0.03809650     -0.05266280       8
H               6.53255000      8.93544000      9.84832000     -0.01268390     -0.03055910      0.05209800       1
H               8.09822000     11.17080000      8.87234000     -0.01064230     -0.01338750     -0.00336230       1
O               2.33719000     15.80210000      3.14557000     -0.00939716      0.00774677     -0.00244705       8
H               4.11724000     16.28320000      3.14723000     -0.00524454     -0.00475846      0.01258030       1
H               2.05356000     15.06850000      4.78360000      0.00190683     -0.00214343     -0.00660527       1
O              14.74360000     11.98810000      1.31416000      0.00886841      0.00426278      0.00806935       8
H              13.48980000     11.03360000      0.42923600     -0.00599609     -0.00442060      0.00566402       1
H              14.34400000     13.71080000      0.96663500     -0.00255629      0.00417877     -0.00792374       1
O              18.42050000      0.37627800     22.92070000     -0.00492781     -0.01095810     -0.00638134       8
H              18.71820000      2.11853000     22.47840000     -0.00833884      0.00507318      0.00116281       1
H              18.75910000      0.30584100     24.69740000      0.00858782      0.00309980      0.00578944       1
O               9.71908000      5.11082000     16.68630000     -0.00071670     -0.00186960     -0.00513503       8
H               9.10774000      5.30880000     18.37770000     -0.00403722     -0.00828988      0.00824562       1
H              11.54660000      5.11325000     16.92480000     -0.00160007      0.00423210      0.00199896       1
O               3.81837000     11.62540000     18.19370000     -0.00745720      0.01070160      0.00224033       8
H               4.43630000      9.95138000     18.40020000     -0.00363915     -0.00928182      0.01020220       1
H               4.93199000     12.16940000     16.84070000      0.00300199     -0.00642455     -0.00410687       1
O               5.55637000      0.15639500     17.72200000      0.01831410     -0.03534220      0.00449550       8
H               5.91923000     -1.56444000     18.49760000      0.00017099      0.05417080     -0.03864360       1
H               7.19760000      0.99889200     17.35580000     -0.02090790     -0.01352530      0.01916280       1
O              21.52460000      7.25469000      4.28403000     -0.03664120     -0.01461720     -0.01919180       8
H              20.69920000      8.22519000      2.91909000      0.00801979     -0.00428893      0.00938212       1
H              22.79360000      8.26763000      4.98546000      0.01925020      0.01886930      0.00726517       1
O              11.14480000     12.26000000     18.28130000     -0.00083477      0.00495455      0.00148448       8
H              12.42540000     11.08920000     18.79590000      0.00081081     -0.00422583     -0.00600256       1
H               9.66012000     11.30960000     17.87520000      0.00198567     -0.00601777     -0.00095241       1
O              18.23520000     17.04620000      7.32657000      0.01645280      0.01131750     -0.01816400       8
H              17.09600000     15.62920000      7.32424000     -0.00761543     -0.01263070     -0.00222579       1
H              18.14020000     17.85440000      8.92217000     -0.00320483      0.00986397      0.01666020       1
O               9.05394000     17.40800000     15.50560000     -0.00522728     -0.00111249      0.00014427       8
H              10.07730000     18.25910000     16.71640000      0.00476674      0.00883344      0.00857611       1
H              10.31070000     16.83650000     14.35750000      0.00665301     -0.00578196     -0.01278490       1
