192
TotEnergy=-1102.28636000 cutoff=-1.00000000 nneightol=1.20000000 pbc="T T T" Lattice="23.93621000       0.00000000       0.00000000      -0.00000100      23.93621000       0.00000000      -0.00000100      -0.00000100      23.93621000" Properties=species:S:1:pos:R:3:force:R:3:Z:I:1
O              13.17080000      3.43711000      4.94716000     -0.00849136      0.01195560     -0.00219270       8
H              11.71190000      4.65035000      5.34181000      0.02937170     -0.04947910     -0.01060880       1
H              12.61450000      1.78300000      4.32208000     -0.00949388      0.03074070      0.00956506       1
O               3.26132000     20.94990000      0.47814200     -0.08189440     -0.02181260      0.07007950       8
H               1.46499000     20.93190000     -0.06900200      0.02415040     -0.00788541      0.00933838       1
H               3.93040000     21.18150000     22.90410000      0.05355140      0.01544700     -0.09570930       1
O               9.96434000     21.65620000     17.22270000     -0.05604320      0.02774880      0.04190520       8
H               8.58202000     20.31960000     16.88860000      0.02797180      0.01729610      0.01599800       1
H               8.97346000     23.02060000     18.30040000      0.02450410     -0.04787670     -0.04630740       1
O              14.57300000     15.52020000      6.36020000     -0.02530580      0.03055620      0.00652154       8
H              16.06980000     15.33050000      7.28906000      0.02440690     -0.00377371      0.01259870       1
H              14.17260000     17.34390000      6.66831000     -0.00056460     -0.02248320     -0.00770052       1
O              21.79630000     10.64590000     20.91800000      0.00142859      0.01701990     -0.07090930       8
H              21.25950000     10.27220000     19.06620000      0.00277317      0.01054290      0.06007740       1
H              21.02000000      9.39737000     21.93090000     -0.01017120     -0.01852580      0.01704820       1
O               4.88279000     10.79610000      2.33785000      0.01145540      0.00651538      0.04541170       8
H               3.90222000      9.77620000      3.46919000      0.00206952      0.00265443      0.01078160       1
H               3.92200000     10.54950000      0.92254200     -0.02369890      0.00262858     -0.05899530       1
O              20.93960000     15.46240000     13.74300000     -0.02824590      0.09410190      0.06560990       8
H              21.10620000     16.13590000     15.61400000     -0.01118340     -0.02884450     -0.05908860       1
H              21.68980000     13.92920000     13.71650000      0.03500070     -0.05994720     -0.00003791       1
O               4.98199000     10.87690000      8.85069000     -0.04404930     -0.05450820      0.00876842       8
H               5.93957000      9.43632000      9.41885000     -0.00154467      0.00208193      0.00526732       1
H               6.15948000     12.07880000      8.54995000      0.04492620      0.05048610     -0.01614290       1
O               9.74286000      9.37019000      2.61468000      0.24738800      0.07266090     -0.08468720       8
H               8.40933000      8.71325000      3.03681000     -0.20753000     -0.10145200      0.05120150       1
H              10.74310000      8.23998000      1.31775000     -0.02518620      0.02538090      0.03423570       1
O              12.12530000     10.72460000      8.12499000     -0.12189300     -0.27676500     -0.00533745       8
H              12.54860000     12.15610000      7.88955000      0.09345480      0.28553700     -0.03785110       1
H              10.91320000     10.58110000      6.60696000      0.03114870     -0.01065100      0.03387680       1
O               3.57198000      0.63411100     18.99540000     -0.10003800     -0.05224580      0.08979540       8
H               4.29145000      1.24933000     17.62530000      0.04394920      0.04572210     -0.08646150       1
H               1.65890000      0.97545400     18.85710000      0.05745660     -0.00845662      0.00146174       1
O              19.44060000     10.51810000     16.26280000      0.02626770     -0.02095950     -0.01752680       8
H              21.20870000      9.94974000     15.66380000     -0.06521590      0.00207006      0.00805175       1
H              18.04590000      9.20687000     16.27280000      0.03834930      0.01119920      0.00242035       1
O              20.24100000      4.11949000     19.12280000     -0.03196870      0.02249060      0.02937760       8
H              18.79480000      5.30333000     19.52950000      0.02286500     -0.02051730     -0.00736377       1
H              20.87810000      4.73061000     17.59530000      0.00205346      0.00393784     -0.02910650       1
O               1.51956000     18.66400000     19.03910000      0.00154178     -0.08973240      0.03062050       8
H               0.51882700     17.22160000     18.29620000      0.01814750      0.03566350      0.02486940       1
H               1.34488000     19.98920000     17.99320000     -0.01135380      0.06209700     -0.04758010       1
O              10.43190000     23.09700000      2.47937000     -0.01082720      0.04073980     -0.07091710       8
H               8.71828000     23.53420000      2.72971000     -0.02008850      0.00748928     -0.00162448       1
H              10.78200000     22.22110000      3.89469000      0.02796800     -0.05065060      0.07189720       1
O               4.90941000      1.34346000      9.05919000      0.00367108      0.00915119      0.00824089       8
H               4.92318000      0.54754700      7.41493000     -0.01330520      0.00962922     -0.00083456       1
H               3.35250000      2.30467000      9.40312000      0.02114190     -0.02723760     -0.00639473       1
O               4.04588000      6.21847000      4.61555000      0.00764870      0.00104837      0.01484600       8
H               5.48233000      6.83806000      5.65505000     -0.02010650     -0.01747970     -0.02133760       1
H               4.65307000      5.53012000      3.02080000      0.00943268      0.01108380      0.01037430       1
O              14.79300000     19.66270000     13.62940000      0.01697070      0.13098600      0.03157020       8
H              15.31060000     19.25170000     12.09180000      0.03788930     -0.00859743     -0.09495180       1
H              14.18210000     18.24120000     14.14610000     -0.05592930     -0.12038100      0.06433940       1
O               5.50271000      5.26861000     23.37850000     -0.00614214     -0.08652380      0.07675520       8
H               3.72287000      4.91146000     23.23440000     -0.00047804     -0.01117850     -0.00930732       1
H               5.69956000      6.47385000     22.25520000      0.01656700      0.09607950     -0.07638040       1
O              13.30080000      6.34147000     23.25980000     -0.01637260      0.00278304      0.02817860       8
H              11.34840000      2.62579000     23.23240000     -0.00006617      0.06063690     -0.02137000       1
H              13.83250000      6.46357000      1.09556000      0.00288609     -0.00132307     -0.02197910       1
O               0.10237200     20.79740000     12.12310000     -0.05035280      0.08737720     -0.06036310       8
H              22.16790000     21.30350000     11.74850000      0.05674740     -0.01149610      0.01621500       1
H              -0.01747000     19.35970000     12.99110000     -0.00566415     -0.07861740      0.04560600       1
O               6.86315000      3.82656000     16.52960000      0.11020100     -0.19864500      0.06111520       8
H               7.54957000      4.42342000     18.04250000      0.00976343      0.00802293      0.02317830       1
H               6.05002000      5.04165000     16.02270000     -0.12861800      0.18214900     -0.08556680       1
O              15.97110000     -0.21258300     17.03910000     -0.04967790     -0.02878380      0.05687730       8
H              15.76670000     22.44650000     15.70460000     -0.00378818      0.00268470      0.01300220       1
H              14.84300000     23.06230000     18.67730000      0.04990470      0.02123520     -0.06130270       1
O               9.17186000      4.76601000      7.61486000     -0.02786250     -0.01107490     -0.01445580       8
H               9.65567000      5.96877000      8.81814000      0.00283892      0.01477310      0.02406600       1
H               7.75541000      3.81541000      8.34284000      0.01214080      0.00324933     -0.00146855       1
O               1.47706000     12.24080000     12.94910000      0.04262720      0.05038520      0.00370280       8
H               1.67905000     11.37800000     11.40700000      0.00262976     -0.01188480     -0.02161540       1
H               2.88741000     13.63810000     12.66350000     -0.04572700     -0.03925800      0.02288050       1
O              17.75050000      4.50945000     13.84310000     -0.07389000      0.04183670      0.03075060       8
H              16.18570000      5.91646000     13.66070000      0.06664470     -0.06242930      0.00527808       1
H              17.27610000      3.54173000     15.40980000      0.00257459      0.02173870     -0.02622140       1
O              21.82050000     11.88250000      3.15456000     -0.00465076     -0.02304060      0.00112110       8
H              21.96790000     10.14410000      2.45083000     -0.00600558      0.03158540      0.01090950       1
H              22.76780000      8.52259000      8.40308000      0.01031700     -0.06076210     -0.07732800       1
O               7.22143000     20.70140000     11.16890000      0.02896130      0.05263140      0.03450300       8
H               5.98094000     22.03460000     10.67900000      0.01735310     -0.01558770      0.00607393       1
H               8.41633000     21.67510000     12.44760000     -0.04201770     -0.03299640     -0.05121620       1
O               2.93685000      7.09413000     14.49470000      0.02116840     -0.06543930      0.00652300       8
H               2.29039000      8.71824000     14.37380000     -0.02519780      0.03131440     -0.00875520       1
H               1.95356000      5.62293000     13.87540000      0.00332211      0.03392160     -0.00368425       1
O              15.66190000      7.32921000     18.85610000      0.01667370     -0.02280250     -0.06501000       8
H              15.46680000      7.86043000     20.47360000     -0.00646733      0.01966010      0.07206320       1
H              14.32260000      6.07557000     18.73760000      0.00222333      0.00517608     -0.01302690       1
O              10.12740000      2.95523000     21.72830000     -0.03421370     -0.07237060      0.05573460       8
H               8.46807000      4.01952000     22.26610000      0.03225700     -0.01861580      0.00235738       1
H               9.58882000      1.07270000     22.04150000     -0.00651252      0.04204900     -0.02767410       1
O              16.72560000      8.89732000     11.16080000     -0.01758850     -0.04452440     -0.01522130       8
H              17.44010000     10.35590000     11.80030000      0.00727172      0.03688240      0.00646452       1
H              15.49150000      9.13837000      9.83406000      0.00618741      0.01210790      0.00915094       1
O              11.65630000      0.16119400     10.65110000      0.06840840      0.05262870      0.05223970       8
H              12.52370000     23.46650000     12.28530000     -0.02631080      0.01320560     -0.04358930       1
H              12.43780000      2.03967000     10.67790000     -0.03578330     -0.06878360     -0.00651061       1
O               5.30047000     16.05440000      3.10438000      0.03228650      0.11649200     -0.02891250       8
H               4.79457000     14.52030000      3.51340000     -0.04366050     -0.10119200      0.01779120       1
H               3.91637000     17.24070000      2.84953000      0.01172660     -0.01726570      0.00248051       1
O              20.11310000      6.63632000      0.13123100      0.17328400     -0.02500340     -0.13329200       8
H              21.37590000      5.01030000     -0.02980400     -0.04885240      0.05297170      0.00532439       1
H              19.03050000      6.34298000      1.26898000     -0.12164000     -0.03209200      0.12510100       1
O               8.28649000     16.36350000      7.29566000      0.04376290      0.04643230      0.14285900       8
H               7.35048000     16.40000000      5.91876000     -0.06518180      0.00383229     -0.09846530       1
H               7.53494000     17.79800000      8.43769000      0.02168770     -0.04423290     -0.03675710       1
O              12.36610000     11.86560000     21.73230000     -0.12022000     -0.00438356     -0.09644320       8
H              13.50810000     12.82100000     22.35990000      0.11395200      0.07952060      0.06488550       1
H              12.53130000     10.24440000     22.21460000      0.01424910     -0.07692310      0.03222660       1
O               2.20005000     20.11210000      7.32342000      0.01772790     -0.01741050     -0.02012750       8
H               1.77363000     21.76580000      6.83335000      0.00015045      0.01963330     -0.00905322       1
H               1.47971000     19.95400000      8.94947000     -0.00978623     -0.00097394      0.02777810       1
O               7.81037000      8.00894000     19.35660000      0.22772800     -0.12881900      0.15711100       8
H               9.45604000      8.90212000     19.34210000     -0.03147360     -0.01216750      0.00033787       1
H               6.75663000      8.71860000     18.52690000     -0.19498000      0.14338100     -0.15011800       1
O              14.37560000     14.70450000     16.66700000     -0.01197300     -0.04896520     -0.00278986       8
H              13.11570000     13.33130000     17.22310000      0.04116360      0.03611940     -0.01147690       1
H              15.93430000     13.78330000     16.13900000     -0.02702980      0.01370200      0.01449000       1
O              17.40290000     18.55510000     22.79960000     -0.00094477     -0.01652110      0.03598870       8
H              17.01350000     16.92400000     -0.17532700     -0.00177025      0.02806160     -0.01262260       1
H              15.92230000     19.59860000     22.98090000     -0.00868799     -0.00576104     -0.01480960       1
O              20.13410000     21.53470000      2.27475000     -0.00032986     -0.02035390     -0.06240940       8
H              20.74870000     19.84920000      2.89622000     -0.00209386      0.00994703      0.00885799       1
H              18.61840000     21.02010000      1.00796000      0.05145330      0.00106854      0.02613300       1
O              15.95090000     14.33650000      1.79029000      0.03110160      0.00131742     -0.01116010       8
H              17.74160000     14.00420000      2.25178000     -0.02219790     -0.00397310     -0.00295503       1
H              15.05370000     14.72930000      3.35363000      0.00715733     -0.00007918     -0.00006485       1
O              22.94050000      6.62113000      6.54658000     -0.03470090     -0.01782000      0.02498130       8
H              21.13190000      4.14676000      6.18557000      0.02185380      0.04033320      0.00386930       1
H               0.42386300      6.37717000      5.24522000     -0.01407830      0.02325440      0.03445600       1
O              19.94700000      0.56602900     11.83750000      0.02612120     -0.03609300     -0.06411760       8
H              18.94400000      1.71922000     12.67760000     -0.02910860      0.03914040      0.02554110       1
H              19.43350000      0.79609100     10.05250000      0.00348179     -0.00865909      0.02388000       1
O               5.15024000     16.83350000     13.64410000     -0.03795490     -0.05287790     -0.07120700       8
H               5.72123000     17.59940000     15.06360000      0.02529760      0.02769640      0.05452110       1
H               5.95614000     17.52470000     12.17340000     -0.00225078      0.01213000      0.01196010       1
O              21.20600000     22.90440000     19.39810000     -0.02755020     -0.00219070      0.01128880       8
H              20.46850000      0.39740000     20.29860000      0.01863890      0.00231509     -0.00640834       1
H              19.61570000     22.21190000     18.77100000      0.01693690     -0.00182317     -0.00383831       1
O               3.33378000     11.15070000     20.42200000     -0.00300493      0.01208030     -0.00485479       8
H               1.49899000     11.45000000     20.29050000      0.02025310     -0.00043550      0.00745285       1
H               4.29180000     12.73160000     20.36770000     -0.01548780     -0.01538430      0.00307561       1
O               8.06657000      7.41887000     12.61800000      0.26729600     -0.01069700     -0.18118200       8
H               8.75840000      9.14258000     12.57460000     -0.00061601     -0.01495950     -0.00286955       1
H               6.83726000      7.61071000     13.44490000     -0.27020600      0.03090630      0.17388000       1
O               1.67011000      5.54910000     19.53150000     -0.02660710     -0.00985182      0.06195000       8
H               2.25288000      5.78759000     17.93600000      0.02082460      0.01486220     -0.05670210       1
H              -0.14549500      5.66631000     19.48300000      0.00296215     -0.00131062      0.00608949       1
O              12.11930000      5.10249000     15.87990000     -0.03133030     -0.02049030      0.01628170       8
H              12.12610000      0.36393500     18.05010000      0.01197410      0.02340740     -0.02218170       1
H              10.24610000      5.32784000     16.12440000      0.04142260     -0.00760702     -0.01425170       1
O               6.80866000     17.61330000     18.27310000      0.00225725      0.03558930     -0.01598800       8
H               5.24763000     18.00840000     19.14320000     -0.00089083     -0.01240910     -0.00088814       1
H               7.36888000     15.93910000     18.58050000     -0.00419076     -0.00814400      0.01453870       1
O              18.76310000      1.35630000      5.78562000      0.09012560     -0.02292360      0.00233441       8
H              18.95090000      0.04024000      4.47733000      0.00404707      0.01542930      0.01058210       1
H              17.17470000      1.96227000      5.79689000     -0.07812300      0.03376450     -0.00433220       1
O              16.00880000      8.59879000      3.98283000      0.03268410      0.02332820     -0.01092200       8
H              14.85440000      8.53092000      5.37923000      0.00717917      0.01568430     -0.00239386       1
H              17.06860000     10.20600000      3.84480000     -0.03290420     -0.04176040      0.01332300       1
O              23.38250000      1.99117000     -0.04369700     -0.02369790     -0.03610310      0.03272040       8
H               0.72250300      1.51537000     22.76660000      0.01788280     -0.00050410     -0.02160020       1
H              22.34920000     -1.70141000      0.50237000     -0.04101410      0.04365670      0.02379020       1
O              13.42410000     21.71710000     21.83300000     -0.06746540     -0.03434100     -0.04087300       8
H              11.70510000     20.61350000     20.54100000      0.06703840      0.04571330      0.05596470       1
H              12.86020000     22.10680000     23.56800000     -0.01100900     -0.00791275     -0.02094420       1
O               7.68003000     14.39530000     21.94230000      0.06091380     -0.00516326     -0.09137740       8
H               9.52931000     14.49440000     22.11770000     -0.02417110     -0.01438940     -0.00068804       1
H               7.05164000     14.58270000     23.47660000     -0.04017230      0.01067010      0.09785600       1
O              12.35270000     20.48720000      6.81982000     -0.02204110     -0.00357102      0.04034670       8
H              12.64730000     21.72900000      8.27543000     -0.01236060     -0.01933680     -0.02898000       1
H              10.89340000     19.40550000      7.44042000      0.02954800      0.02260760     -0.01561030       1
O              22.35930000     17.66410000      5.13786000     -0.00943339      0.05942300      0.00034777       8
H              24.13970000     18.06650000      5.36107000     -0.00617254     -0.01017280      0.00644701       1
H              21.92950000     16.01370000      4.80317000      0.00633539     -0.05462810     -0.01424000       1
O               0.45001700      3.36163000     11.06070000      0.04019310     -0.01043310      0.11571600       8
H              22.90770000      2.47363000     11.05990000     -0.05531920     -0.03524490      0.00262125       1
H              24.73560000      4.01444000      9.59579000      0.00866194      0.05745660     -0.11279700       1
O              20.85830000     16.25040000     19.96890000      0.08278650     -0.20442800     -0.08887090       8
H              20.02660000     17.22240000     20.92970000     -0.09260950      0.10475400      0.10077100       1
H              20.50540000     14.22620000     20.63160000      0.01915790      0.08553740     -0.02576310       1
O              18.67970000     18.20090000      9.83788000     -0.08321630      0.02284280      0.07533310       8
H              19.98990000     17.50080000      9.07493000      0.08236730     -0.03672590     -0.05382140       1
H              18.77520000     17.39340000     11.54300000      0.00364415      0.01247510     -0.02525430       1
O               3.62662000      0.44331400      3.87932000     -0.02110540     -0.03081160     -0.02797010       8
H               2.80390000     23.28270000      2.46944000      0.03518570      0.02302680      0.03565230       1
H               2.64224000      1.92168000      3.71151000     -0.00720488      0.01731160      0.00149670       1
O               8.96354000     12.60030000     12.52560000      0.08682440     -0.21382100      0.20647600       8
H              10.63740000     12.86090000     12.33880000      0.07009490      0.00578296     -0.00499911       1
H               8.30501000     13.57290000     11.60580000     -0.15155900      0.21033400     -0.19558200       1
