192
TotEnergy=-1102.74104000 cutoff=-1.00000000 nneightol=1.20000000 pbc="T T T" Lattice="24.26503000       0.00000000       0.00000000      -0.00000100      24.26503000       0.00000000      -0.00000100      -0.00000100      24.26503000" Properties=species:S:1:pos:R:3:force:R:3:Z:I:1
O               4.52993000      3.75060000     13.27400000     -0.04204420      0.04387460      0.00589662       8
H               4.86656000      3.55242000     11.55170000      0.02223290     -0.01045160     -0.03185640       1
H               3.13403000      5.01039000     12.96800000      0.02389270     -0.01391760      0.01520410       1
O              16.56500000     10.01940000      1.36163000     -0.02648290     -0.01079610     -0.01295440       8
H              18.03670000      9.43147000      0.53510700      0.01369720     -0.01047500     -0.01078450       1
H              17.09020000     10.57970000      2.94375000      0.00642752      0.01472490      0.02777420       1
O              16.21770000     10.09980000     16.41500000     -0.04832590      0.00021641      0.09724230       8
H              17.56450000      9.17171000     15.98490000      0.07033140     -0.04148890     -0.01496250       1
H              15.79230000     10.92540000     15.01270000     -0.02541710      0.04501220     -0.08040820       1
O              10.26010000     23.21650000     11.07470000     -0.00071088     -0.00228349      0.01164280       8
H               9.78396000     22.59420000      9.47426000     -0.00055344      0.00287545     -0.03232110       1
H               9.37922000     21.91780000     11.99530000      0.00360472     -0.00260525      0.01582320       1
O               3.64083000     23.87170000     15.14220000     -0.03335480      0.09068630      0.07438240       8
H               3.72144000     25.57700000     14.23990000      0.00280342     -0.02788190      0.00742077       1
H               3.96168000     22.66700000     14.06470000      0.02682760     -0.09072990     -0.08578450       1
O               7.96111000      9.93430000     14.26010000      0.01288220      0.00602746      0.01893740       8
H               8.95569000     10.62640000     15.59780000      0.00809702     -0.00189258      0.01760590       1
H               9.55229000      8.80426000     13.45040000     -0.02312040      0.02370220     -0.02532030       1
O              20.70260000      7.64296000     22.92380000     -0.18171400      0.29356500     -0.12290200       8
H              21.41460000      6.53481000     23.55180000      0.17809800     -0.29862700      0.15785700       1
H              20.71220000      7.44789000     21.18660000      0.00201563      0.00387318     -0.03899790       1
O               2.81269000     20.67140000     20.00170000     -0.09410490     -0.01971870     -0.03673410       8
H               2.65480000     21.81730000     18.61610000      0.00708592      0.00644379     -0.00373158       1
H               4.32251000     20.92570000     20.68600000      0.08920940      0.01403390      0.03939440       1
O              12.08340000      7.49820000     19.12790000      0.08108830     -0.07724260      0.02945860       8
H              12.95320000      5.81934000     20.66480000     -0.03892860      0.07923010     -0.07495670       1
H              13.64700000      7.52274000     17.87340000     -0.04996070      0.00326190      0.04173070       1
O               8.57595000     17.82710000     20.38280000     -0.06936820     -0.01547910     -0.01239590       8
H               9.09956000     18.98480000     21.55700000      0.01219650      0.03542580      0.02899960       1
H               9.99786000     17.07770000     19.75660000      0.04995760     -0.02143480     -0.02065620       1
O              19.62330000      3.41590000      9.11205000     -0.01897810     -0.07804130     -0.00578837       8
H              20.03720000      1.98110000      7.79365000     -0.01361300      0.04563340      0.04986670       1
H              18.35540000      2.61551000     10.36810000      0.04167680      0.00845560     -0.03724470       1
O              11.44740000      7.65293000     11.31870000     -0.02053330     -0.07311720      0.00560851       8
H              11.82320000      5.72978000     10.95270000     -0.00939803      0.06977720      0.01289160       1
H              12.93940000      8.58278000     10.93600000      0.02143970      0.00495924     -0.00197183       1
O              22.18120000      8.79927000      3.58351000      0.06632490      0.00665112      0.02555760       8
H              22.03320000      8.78058000      1.83020000     -0.01410480      0.00749993     -0.03708670       1
H              24.05240000      8.29968000      3.69539000     -0.05192580      0.00885358      0.00891306       1
O               8.82542000     23.06890000     20.41060000      0.01907320      0.02928650      0.00750756       8
H               7.52573000     24.27010000     19.87740000     -0.00210529     -0.01158630      0.00688902       1
H              10.04290000     24.13150000     21.37660000     -0.01596760     -0.01477800     -0.01009730       1
O              11.41520000      7.84490000      0.91111400      0.02829930      0.01451060      0.01179220       8
H              12.89960000      8.82314000      1.55115000     -0.01691270     -0.01843140     -0.01822170       1
H              10.34610000      7.86558000      2.35332000     -0.00827510     -0.00363063      0.00534104       1
O               4.84767000      1.92721000     19.48170000     -0.02807820     -0.01613590     -0.01445100       8
H               6.05583000      3.24449000     19.40920000      0.00407112      0.02639220     -0.00581011       1
H               4.10872000      1.83569000     17.75420000      0.01635680     -0.00410220      0.03151580       1
O              19.20420000     14.47580000      8.68085000      0.12820500     -0.01038450      0.02185910       8
H              20.01490000     15.51100000      9.99264000     -0.01792760     -0.01559880     -0.01547510       1
H              17.58210000     14.81070000      8.57728000     -0.11309500      0.02483630     -0.00811675       1
O               5.02804000     14.39170000     22.40890000     -0.02332310     -0.06575230      0.02243050       8
H               5.43107000     15.59430000     21.25820000      0.02229640      0.06405790     -0.03849920       1
H               5.74998000     12.93800000     21.49470000      0.00356817      0.01295480      0.02367450       1
O               3.30819000     10.55630000      6.84404000     -0.15036900     -0.01804480     -0.02900480       8
H               4.76916000     11.20950000      6.35854000      0.08959370      0.04531640     -0.03752290       1
H               1.84078000     11.13030000      5.53855000      0.06558640     -0.01489190      0.05617800       1
O              23.29290000     18.85440000      4.57758000     -0.06799390     -0.01094150      0.08013220       8
H              21.21330000     18.89550000      6.72804000      0.06687340      0.00187447     -0.07885110       1
H              23.09590000     16.99720000      4.61725000      0.00677505      0.01077630     -0.00006664       1
O              23.65970000      9.84981000     12.49610000     -0.11637300     -0.00096276      0.03035470       8
H              22.24000000      8.69436000     11.75810000      0.03757250      0.02831230      0.01495070       1
H              25.14410000      9.38055000     11.81830000      0.07621780     -0.02161660     -0.03694090       1
O              15.71260000      3.07529000     18.79530000      0.01843850     -0.05615600     -0.01147540       8
H              17.52280000      2.36071000     18.94530000     -0.03223570      0.02147610     -0.00268673       1
H              14.94080000      1.50528000     17.95500000      0.00842085      0.03928280      0.01516330       1
O               0.75688200     12.60820000     20.27230000      0.01418720     -0.00321202      0.00252470       8
H              -0.72262500     13.56450000     20.70860000     -0.01103360     -0.00332374      0.00429804       1
H               2.07279000     13.22690000     21.41410000     -0.00223073      0.01073830     -0.00813287       1
O              14.61060000      3.53154000      7.70356000      0.00152367     -0.00438551     -0.02372840       8
H              15.32790000      2.93023000      6.01327000     -0.02861730      0.00856483      0.03415210       1
H              16.05680000      4.13606000      8.57213000      0.00365140      0.00632557      0.00112137       1
O               9.73007000      4.76297000      5.72550000     -0.00622615      0.03934380     -0.01408900       8
H              10.73630000      3.95491000      6.93412000      0.01870690     -0.02126300      0.01301670       1
H              10.44120000      6.47441000      5.82801000     -0.01313830     -0.01373010      0.00079906       1
O              20.88600000     15.23410000     21.64710000      0.02109960      0.04148510      0.06837340       8
H              19.08820000     15.41150000     21.44610000     -0.00667321     -0.01148920      0.00497304       1
H              21.24560000     16.04280000     23.44370000     -0.02119680     -0.02708950     -0.06002440       1
O              16.35930000     21.06010000      5.53031000     -0.00126529     -0.07601010      0.02532340       8
H              16.13740000     21.98320000      4.12234000     -0.00628974      0.04821870     -0.04764420       1
H              16.73380000     22.13360000      6.87495000     -0.00128544      0.02245600      0.03054870       1
O              22.71360000     22.48410000     22.77790000      0.01026670     -0.06722010      0.06590090       8
H              24.17230000     21.58040000     22.18150000      0.00656899      0.00197928     -0.00373633       1
H              22.38240000     23.72760000     21.69770000     -0.01319490      0.06645380     -0.06943900       1
O               1.12996000     15.46240000     10.88510000     -0.00912942     -0.03721650     -0.02989060       8
H               1.08793000     13.99940000      9.55400000     -0.00259347      0.04955740      0.04842370       1
H              -0.51299500     15.51510000     11.88110000      0.02719190     -0.01229860     -0.02783220       1
O              16.14380000     10.05140000     10.83630000      0.02703950     -0.01582420      0.01525880       8
H              17.90100000     10.05620000     10.18010000     -0.01816630     -0.01418660      0.00974393       1
H              15.48940000     11.36540000      9.88590000     -0.01983990      0.03398540     -0.02151170       1
O              12.61470000     23.27770000     16.55250000     -0.05566700      0.02229830     -0.02136400       8
H              11.07110000     24.03740000     17.50860000      0.04050420     -0.03374410     -0.02484460       1
H              12.00030000     23.07210000     14.73790000      0.01863860      0.00647335      0.04791150       1
O              22.81370000     17.82440000     17.77440000     -0.04880170      0.00509203     -0.03271200       8
H              24.52370000     17.97080000     17.74030000      0.06507990      0.00578015     -0.00319840       1
H              22.45700000     17.41200000     19.46300000     -0.01563940     -0.01384630      0.02672890       1
O               5.41937000      2.14930000      4.24114000      0.09945810      0.04216720      0.05123980       8
H               4.34936000      2.34012000      2.92971000     -0.04846050      0.00866412     -0.06075290       1
H               6.75012000      3.66309000      3.93192000     -0.04515130     -0.06261770      0.02234100       1
O              22.63970000     22.82890000     15.26770000     -0.05351090     -0.00393204      0.01090830       8
H              22.57720000     21.82120000     16.76710000     -0.00023459     -0.01308580     -0.00182935       1
H              24.28500000     22.68690000     14.79030000      0.06187020      0.00369441     -0.02272700       1
O               6.79582000      6.44961000     18.14200000      0.04623930     -0.00736647      0.00016022       8
H               6.56777000      6.31658000     16.34390000     -0.00380525     -0.00008666      0.00253274       1
H               8.71145000      6.37753000     18.29760000     -0.03211590      0.00845547     -0.00044564       1
O              14.32270000     13.94980000      7.43415000      0.02887930     -0.01572910      0.02090230       8
H              12.80750000     13.59890000      8.32688000     -0.02454620      0.00311714      0.00959784       1
H              14.03020000     14.89990000      5.97839000     -0.00639406      0.01076930     -0.02836590       1
O              21.48930000      9.80239000     17.34800000      0.05293640      0.01541300     -0.01780000       8
H              22.29950000      8.63890000     16.11230000     -0.01188720      0.02132860      0.01700300       1
H              22.87650000     11.19280000     17.42330000     -0.04173910     -0.04504810      0.00505047       1
O               3.86952000     19.83770000     11.14960000      0.01801090      0.01965300     -0.04415200       8
H               4.13870000     20.02860000      9.26860000      0.00363891      0.00838081      0.03666120       1
H               3.02425000     18.25700000     11.09570000     -0.01729350     -0.02517380      0.00845722       1
O              16.22200000     22.93070000     10.14540000     -0.10047800      0.05278740      0.00173619       8
H              16.60250000     21.58260000     11.24490000      0.00098498     -0.02141760      0.01692550       1
H              13.90990000     23.42700000     10.42450000      0.10288900     -0.02819860     -0.00963623       1
O              23.26880000      4.34700000      4.28759000     -0.03415610      0.02082260      0.01872000       8
H              23.80160000      4.68055000      2.64320000      0.01837980     -0.00203367     -0.02664350       1
H              23.99720000      2.84787000      4.77682000      0.02526090     -0.04697310      0.01359380       1
O               4.79299000     19.24350000      1.04775000     -0.02395020      0.12568100      0.06183820       8
H               3.23773000     20.23370000      1.91581000      0.05970200     -0.03837490     -0.03355290       1
H               4.12561000     17.75490000      0.66916600     -0.03885150     -0.08734970     -0.02780600       1
O              19.18110000     19.42500000      1.38860000     -0.05364770      0.05124890     -0.02886480       8
H              20.06890000     20.71260000      0.38295100      0.00781228     -0.01692420      0.01140010       1
H              17.47140000     20.36850000      1.45076000      0.05040260     -0.04026200      0.00300148       1
O              19.69660000      2.26935000      0.70898800      0.00348698      0.02760030      0.04333940       8
H              20.81940000      1.02385000      0.14113700      0.01240810     -0.02206320     -0.00871098       1
H              20.47690000      2.67193000      2.39951000     -0.01307500     -0.00074690     -0.02800130       1
O               9.27706000     10.64490000      6.80366000     -0.00338975     -0.05384620      0.05786850       8
H               9.51452000     11.99380000      5.78799000      0.00356376      0.05232660     -0.04612070       1
H               9.71443000     11.36880000      8.48686000     -0.00726864     -0.00677365     -0.01399390       1
O              22.87880000     13.72520000      5.43031000      0.01950070     -0.02139800     -0.02548150       8
H              21.66600000     13.21290000      6.66922000     -0.01481600      0.00963085      0.00753811       1
H              22.77520000     12.36190000      4.17732000     -0.00526540      0.01139670      0.00918378       1
O              10.34520000     13.77600000     10.67700000     -0.02160970     -0.03584930     -0.00424362       8
H               6.46032000     12.47000000     15.15770000      0.02415970     -0.02856230     -0.03576770       1
H              11.29830000     15.20090000     11.01580000      0.01909030      0.03444890      0.01294990       1
O              14.73230000     15.26320000      2.38883000     -0.04412710      0.01463720     -0.02751570       8
H              14.24040000     17.02230000      2.41736000      0.01766000      0.00319081      0.01076250       1
H              13.39410000     14.82380000      1.14471000      0.02486450     -0.01315230      0.01414290       1
O               6.20922000     21.28420000      6.16293000      0.00564903      0.00763946     -0.02689800       8
H               6.27794000     20.04890000      4.71692000     -0.00220821      0.03775890      0.02490380       1
H               6.26229000     23.10240000      5.50977000     -0.00523187     -0.03909730      0.00236735       1
O               3.92431000      8.77892000     22.34050000      0.03995990      0.01793030     -0.02020690       8
H               2.76123000     10.01690000     21.59420000      0.00618608     -0.01676450      0.00308506       1
H               5.67543000      9.05953000     21.53700000     -0.05433130     -0.00946354      0.01205030       1
O              15.21280000      1.60977000      3.35682000     -0.01324650     -0.03121330     -0.08022680       8
H              14.07610000      0.67965100      2.00234000      0.02983390      0.03977140      0.04981440       1
H              16.57130000      2.25236000      2.22367000     -0.01350830     -0.01039990      0.01344850       1
O              16.04700000     12.79450000     21.31380000      0.01087580     -0.05015870     -0.07262650       8
H              16.44000000     11.88190000     19.36660000     -0.01762780      0.02193640      0.08790280       1
H              15.55000000     11.51920000     22.60480000      0.01363070      0.01585230     -0.02489580       1
O               3.24505000      4.19485000     24.45760000     -0.02065850     -0.05190770     -0.07999820       8
H               3.68509000      5.90245000     24.09750000      0.00095540      0.01612240     -0.00756763       1
H               3.08215000      3.38422000     22.50720000      0.01190360      0.03208200      0.08113090       1
O              21.18360000     14.79230000     13.21970000      0.04298400     -0.02165390      0.10225400       8
H              21.59530000     12.89950000     13.36720000     -0.00935956      0.03827360     -0.01110320       1
H              21.95780000     15.43420000     15.07260000     -0.03195290     -0.01667020     -0.06530550       1
O              20.39910000      8.04375000      9.40776000      0.03560780      0.07839000      0.00633536       8
H              20.06340000      6.41251000      8.87950000     -0.00371641     -0.05154910     -0.01949530       1
H              21.83170000      8.80113000      8.49173000     -0.02460130     -0.01830480      0.00120415       1
O              23.89110000     23.51390000      6.75465000     -0.01516640     -0.02603180     -0.02813290       8
H              24.15880000     21.72730000      6.13104000     -0.00704646      0.02935000      0.00850211       1
H              25.17210000     23.82420000      7.92498000      0.02048370      0.00179749      0.01836090       1
O              13.65260000     16.49670000     19.51500000     -0.04266560     -0.01544340      0.00723001       8
H              13.83250000     14.66990000     19.25510000      0.00976913      0.02274560      0.01115670       1
H              14.99030000     17.38260000     18.81260000      0.02739020     -0.00127701     -0.01829520       1
O              16.85160000     21.02140000     18.60220000     -0.07191480      0.00725447     -0.11032800       8
H              17.03610000     20.48850000     20.15620000      0.01641680     -0.04002420      0.11401000       1
H              14.96650000     20.51460000     18.19600000      0.05686690      0.03565800      0.00260120       1
O              18.02180000     18.93690000     13.39900000      0.02259230      0.03353010      0.06698440       8
H              18.59290000     19.90580000     15.04840000     -0.02458450     -0.02804850     -0.05910500       1
H              19.05130000     17.44860000     13.61200000     -0.00631707     -0.00304860     -0.00972316       1
O               7.53324000     14.39430000      3.41270000     -0.04262920     -0.01142710     -0.01772250       8
H               8.29831000     15.84140000      3.98231000      0.04022130      0.03621080      0.02370700       1
H               6.01105000     15.28910000      2.87952000      0.00478249     -0.02408210     -0.00556324       1
O               8.64351000     18.33350000     14.24030000      0.17066000     -0.10557800     -0.04433210       8
H               7.78370000     19.33510000     15.07450000     -0.11865900      0.13802500      0.12576800       1
H               7.71159000     17.88790000     12.92500000     -0.05403490     -0.03123220     -0.07991650       1
O               8.94119000     11.19280000     21.99530000     -0.02337960     -0.05559510      0.02903570       8
H              10.10240000      9.83662000     21.33000000     -0.01800480      0.02377600      0.01556320       1
H               7.93490000     10.29500000     23.48530000      0.04956550      0.03640590     -0.04812070       1
O              20.22640000      0.71725700     18.68320000     -0.03919680     -0.05095010      0.06030810       8
H              19.46760000     -1.09448000     19.05800000      0.01537590      0.06557770     -0.01607730       1
H              21.02170000      0.40360500     17.12980000      0.01684510      0.00525057     -0.03348180       1
O              12.18970000      2.19733000     22.91520000      0.02238270     -0.04780900     -0.01813350       8
H              11.09620000      3.34780000     23.62330000     -0.01621490      0.04101450      0.02202540       1
H              13.70010000      2.87971000     22.14760000     -0.00241318      0.00245443     -0.00094027       1
O               3.89590000      8.39836000     11.03330000      0.05293120      0.00359893      0.00668420       8
H               5.09907000      8.88801000     12.51080000     -0.02951460     -0.01270650     -0.06091600       1
H               4.69304000      8.59223000      9.22977000     -0.02345890      0.00129867      0.06242250       1
