192
TotEnergy=-1102.43163000 cutoff=-1.00000000 nneightol=1.20000000 pbc="T T T" Lattice="24.36613000       0.00000000       0.00000000      -0.00000100      24.36613000       0.00000000      -0.00000100      -0.00000100      24.36613000" Properties=species:S:1:pos:R:3:force:R:3:Z:I:1
O              16.92450000      2.94082000      3.88243000     -0.11996900      0.02483030      0.05407850       8
H              15.71050000      4.20062000      3.07109000      0.02378710     -0.01824560      0.03186650       1
H              18.10450000      3.12916000      2.75364000      0.10709100      0.00124995     -0.08502740       1
O              20.97380000      8.35071000     15.16900000      0.02253390     -0.01864210      0.00646764       8
H              22.13860000      8.81928000     16.51020000     -0.00794557     -0.00317932      0.01294840       1
H              21.87010000      6.80920000     14.55990000     -0.01599650      0.02622590     -0.00252879       1
O              22.22990000     12.39240000     12.24790000     -0.01057440     -0.01063740     -0.03211630       8
H              22.43810000     11.15940000     10.77990000      0.00692465      0.02172860      0.03265260       1
H              21.54450000     11.40510000     13.67570000     -0.00462301     -0.00409659     -0.01700260       1
O              23.60200000      1.18035000     10.26900000     -0.02558010     -0.01504620     -0.03045410       8
H              21.55740000      0.92982000      9.75860000      0.03999520      0.01793330      0.00689587       1
H              24.18270000     -0.38020800     10.96590000     -0.00094773     -0.00937238      0.00876019       1
O               5.75240000     23.75670000      9.77537000     -0.00593230      0.01548900     -0.00185695       8
H               5.01156000     22.16360000      9.39507000     -0.00463762     -0.01660680      0.00966583       1
H               5.97941000     24.52650000      8.14910000     -0.00347038      0.00187743     -0.00902914       1
O               2.38611000     17.41950000      6.13817000     -0.01760280     -0.00419894     -0.01963970       8
H               2.76410000     18.36740000      7.58743000      0.01036730      0.00661119      0.02567030       1
H               0.64256400     17.81900000      5.67701000      0.01371920     -0.00269844     -0.00441392       1
O              21.82300000     -0.79856900      4.26878000     -0.05384490      0.01181020      0.02674570       8
H              22.60410000      0.79063800      5.00261000      0.00170888     -0.01601740     -0.01670350       1
H              19.96050000     -0.75801300      4.78091000      0.05019060      0.00594923     -0.01460500       1
O              10.14830000     17.85370000     13.86410000     -0.03155620      0.00617984      0.02472780       8
H              11.61170000     17.81710000     15.06860000     -0.02220920      0.00921657     -0.01193940       1
H               8.43060000     18.11500000     14.76740000      0.04483680     -0.00579033     -0.02075520       1
O              12.72260000      8.62753000     19.85820000     -0.01497800     -0.02976340      0.06053870       8
H              11.92180000      7.82907000     21.46270000      0.02329400      0.03657600     -0.04099270       1
H              11.56070000      7.97387000     18.68670000     -0.01476910     -0.00321941     -0.02748040       1
O               0.05786300      6.33657000     11.74450000     -0.02961080     -0.06037370     -0.02521190       8
H              -0.07023900      4.40813000     12.08860000      0.00464575      0.05342880     -0.01359270       1
H              -0.81938400      6.44450000     10.02520000      0.03052210      0.00073825      0.04333710       1
O              10.96120000     11.54050000     23.94290000     -0.00852537     -0.03181700      0.06891730       8
H               9.76019000     11.85680000     22.71180000     -0.02295340      0.01703890     -0.03106780       1
H               9.80414000     11.04300000     25.41660000      0.03860420      0.01193980     -0.03115370       1
O              14.45440000     17.34950000      4.74493000     -0.08049140     -0.10924500     -0.25752600       8
H              15.31060000     15.59360000      4.23018000     -0.03380610      0.05363530      0.01152910       1
H              15.11300000     17.60020000      6.09959000      0.11332200      0.05513750      0.24358400       1
O               9.04040000     17.97850000      4.92627000      0.10954400     -0.00503040      0.00589411       8
H               8.40019000     16.25690000      5.26873000     -0.00380463      0.00992771     -0.00580755       1
H              11.37520000     17.66640000      4.82105000     -0.09324370      0.01010430      0.00246059       1
O              24.43150000      0.67697500     23.49220000      0.02556690     -0.01171110     -0.06195030       8
H              24.91430000      0.34892500     21.62640000     -0.01272370      0.01781520      0.04534780       1
H              23.65180000     -0.88704800     23.84980000     -0.01018570     -0.00963027      0.01467990       1
O              16.64590000      1.74933000     20.40560000     -0.04420700      0.00282280      0.00239043       8
H              16.53770000      3.50625000     20.85090000      0.01084300     -0.01263950     -0.00313627       1
H              14.88040000      1.31069000     20.94310000      0.02985750     -0.01177730     -0.00231647       1
O               6.18019000     14.15530000      5.07854000     -0.05414790     -0.00731915      0.03688940       8
H               6.12178000     13.00800000      6.59035000     -0.00067618      0.02454160     -0.02671680       1
H               4.51807000     15.27280000      5.40653000      0.04885590     -0.03003250     -0.01151680       1
O              23.96090000     13.74410000      2.15540000      0.02531990      0.07939610      0.01510230       8
H              23.74740000     15.71530000      2.64085000      0.01155420     -0.06587950     -0.02122330       1
H              22.35880000     13.25740000      2.67212000     -0.03498330     -0.01572990      0.00517803       1
O              15.16860000     12.17090000     13.56280000      0.06177000     -0.09633870     -0.14313900       8
H              14.67770000     13.52050000     14.26520000     -0.05360710      0.14271500      0.10349700       1
H              15.49020000     13.12140000     11.81030000      0.00090780     -0.04917540      0.05114610       1
O               7.23206000      7.77137000     16.06070000     -0.00031257     -0.04258090      0.00889307       8
H               6.39688000      9.35091000     15.99890000     -0.01370380      0.00438940      0.00016095       1
H               6.02641000      6.44587000     16.76060000      0.02385990      0.04534890     -0.00684380       1
O              11.87730000     10.09680000      8.10416000      0.05262270      0.02234480      0.05615650       8
H              13.47450000      9.93311000      9.35556000     -0.07075770     -0.00249012     -0.04154510       1
H              10.70160000     11.24090000      9.07477000      0.02449830     -0.01797800     -0.00845261       1
O              13.44540000     23.42040000     23.39070000     -0.04979500     -0.04739870     -0.00595697       8
H              12.38320000     21.74660000     23.18820000      0.04203370      0.04209280     -0.00069200       1
H              12.43370000     24.10140000     24.73920000      0.00725897      0.00828049      0.00665417       1
O               0.67049100     10.06230000      8.09898000      0.02820360      0.02416370      0.05458970       8
H               1.06548000     10.02910000      6.37701000      0.00443612      0.00157218     -0.02724520       1
H               2.25917000     10.77400000      8.99626000     -0.04056320     -0.02548750     -0.03221100       1
O               4.16664000      5.73616000     19.64690000     -0.03517800      0.03833270      0.01620060       8
H               3.89410000      4.04016000     19.26990000     -0.00667786     -0.03126500     -0.00180688       1
H               2.36490000      6.39236000     19.95890000      0.03596130     -0.01246640     -0.01654980       1
O              11.41180000     20.91810000      9.35528000      0.01596410      0.03185550      0.07995890       8
H              10.71030000     20.22070000     10.90950000      0.00296898     -0.00176202     -0.00005987       1
H              10.61430000     20.11800000      8.10326000     -0.04795860     -0.04612850     -0.07280610       1
O              22.72580000     18.56480000      3.07713000      0.02223430      0.05581180     -0.04200740       8
H              21.72330000     19.98090000      3.75572000      0.01191200     -0.01099630     -0.00183678       1
H              23.72230000     19.57280000      1.63251000     -0.03610620     -0.04176760      0.04377340       1
O               9.92698000      7.97597000      3.91585000     -0.07157760      0.02275560      0.06999130       8
H               7.95122000      8.03334000      4.36654000      0.06944100     -0.01475270     -0.02861440       1
H              10.42220000      8.38413000      5.76329000      0.00158127     -0.00790410     -0.04067020       1
O              19.44980000     11.31210000      1.36936000      0.10372000     -0.03659960     -0.01156710       8
H              18.41170000     10.87420000      2.72337000     -0.01545910     -0.00563684      0.00997946       1
H              21.28500000     10.18490000      1.79917000     -0.08247450      0.03008400     -0.01343610       1
O              17.25840000     21.65900000     17.06130000     -0.02505950      0.00203328      0.02241530       8
H              16.31650000     22.63000000     18.32460000      0.01699410      0.00026481     -0.01353320       1
H              18.75280000     22.56440000     16.69010000      0.00770605      0.01213910     -0.00515915       1
O              16.75200000      5.74445000     12.74460000     -0.03638910     -0.01860040     -0.00727740       8
H              14.82390000      5.72563000     12.72050000      0.03261930      0.00311463     -0.00518957       1
H              16.99660000      7.10034000     13.85230000      0.01295320      0.02377760      0.01528330       1
O              12.58710000      0.08966900      4.39369000      0.03949980      0.05976750      0.01181550       8
H              13.88440000      1.63505000      4.29361000     -0.03677010     -0.06500190     -0.00064565       1
H              11.88540000      0.43842000      6.04948000     -0.00629895     -0.00435441     -0.01036270       1
O              12.30910000     18.43160000     23.03740000     -0.17882300      0.09593430      0.09489870       8
H              13.47080000     17.84010000     22.20880000      0.18328300     -0.09010060     -0.13722000       1
H              12.53750000     17.72990000     24.62550000     -0.00605304     -0.01117050      0.03824830       1
O               3.41297000      4.58954000     24.91930000     -0.00109908      0.04000200     -0.09729350       8
H               1.97693000      3.95414000     23.90930000      0.01136280     -0.00369581      0.02509100       1
H               4.28091000      5.50465000     23.36220000     -0.02387570     -0.02627480      0.05109050       1
O               6.08406000      4.13120000      4.21200000      0.04255080     -0.05899930     -0.00308060       8
H               6.89049000      2.31022000      4.03658000     -0.02528020      0.06559200      0.00428858       1
H               5.88354000      4.70239000      2.45244000     -0.00461187     -0.01827750      0.02713710       1
O               4.05910000      1.99445000     14.33920000     -0.00719090      0.08200670     -0.04089270       8
H               3.82574000      4.03602000     14.22110000      0.01073860     -0.08386730     -0.00042348       1
H               3.98786000      1.46399000     12.51580000      0.00987040      0.00588517      0.03251070       1
O              15.75150000     21.78170000      8.31185000      0.01922700      0.00556891     -0.05778570       8
H              14.16150000     21.04950000      8.88803000     -0.00541452      0.00574960      0.00988517       1
H              15.34390000     21.90160000      6.43582000      0.01259940      0.00602801      0.04030990       1
O              19.83710000      1.98758000     15.85440000     -0.00669716      0.01389810      0.01435360       8
H              19.60010000      1.87840000     17.67400000      0.00782946     -0.00683542     -0.00055680       1
H              19.08090000      3.65147000     15.71110000      0.00125572     -0.00642731     -0.01540420       1
O               2.67330000     11.21140000     23.11920000      0.04769020      0.01827660      0.02426050       8
H               1.63577000     11.34340000     24.59670000     -0.01577730      0.00351478      0.00236795       1
H               4.19020000     12.07060000     23.81670000     -0.01896100     -0.01444120     -0.01713080       1
O               4.84488000     18.28000000     16.02970000      0.04027210     -0.08839520     -0.01113850       8
H               3.40981000     19.14500000     16.45660000     -0.04289850      0.02545510      0.01689070       1
H               4.44260000     16.20090000     16.62380000      0.01376490      0.07964970     -0.00539194       1
O              16.12820000     12.13600000      4.91871000      0.01269370     -0.00296241      0.02415200       8
H              14.80130000     11.98770000      6.17607000     -0.00988059     -0.00387885     -0.00630485       1
H              17.62250000     12.08020000      6.03015000     -0.01521030      0.00981827     -0.01074450       1
O              16.32710000      6.50894000     22.57420000      0.00123706      0.01583090     -0.06584290       8
H              15.07220000      7.02554000     24.13500000      0.04641070     -0.00020475      0.00129767       1
H              15.89570000      7.29595000     20.86820000     -0.01855380     -0.00093335      0.04079510       1
O               3.01553000     19.43430000     11.05520000     -0.07032030      0.01458290     -0.06354360       8
H               1.06596000     19.28650000     10.77580000      0.05312660      0.00309199      0.01650310       1
H               3.04798000     18.89020000     12.71670000      0.01403740     -0.01586600      0.04488020       1
O              23.96500000     19.26860000     22.28880000     -0.00897373      0.24306700     -0.00354592       8
H              22.84170000     19.93800000     20.72210000      0.03963970     -0.00753081      0.05659460       1
H              23.70830000     17.81080000     21.82210000     -0.02319100     -0.23387400     -0.04823450       1
O              22.69190000      7.57049000      3.37164000      0.02493870     -0.02343870      0.02737470       8
H              23.06220000      6.50584000      4.91892000     -0.01021070      0.02149730     -0.02916440       1
H              23.97900000      6.83330000      2.28238000     -0.00952730      0.00278703     -0.00348582       1
O              18.74840000      1.96660000      9.47261000      0.02364500      0.00717861      0.06138950       8
H              18.62040000      2.35284000     11.42210000     -0.01020920     -0.01037540     -0.06556930       1
H              17.48000000      0.76063400      8.97284000     -0.00568641     -0.00501920      0.00684328       1
O              10.16210000     12.90860000     12.26660000      0.02882240     -0.01112050      0.02370630       8
H              11.42380000     11.93130000     13.30750000     -0.02599540      0.01563490     -0.02551550       1
H              10.62040000     14.69270000     12.61430000     -0.01868590     -0.01068000     -0.00284830       1
O              24.34610000      9.12174000     19.69480000     -0.02095450      0.03517330     -0.01236000       8
H              22.94210000     12.47060000     19.60750000      0.24393400     -0.02042000     -0.07676690       1
H              25.76780000      9.61902000     20.75690000     -0.00729020      0.00704051     -0.00081179       1
O               6.61062000     22.69360000      4.63170000     -0.07417540      0.03405350     -0.02643730       8
H               7.33528000     21.29190000      5.34788000      0.03292330     -0.05112300      0.01401090       1
H               4.86464000     22.04620000      4.21862000      0.03974860      0.01654920      0.00400083       1
O              17.96050000     13.60410000      9.43498000     -0.03383870      0.01381360     -0.02016100       8
H              19.46440000     12.85130000      9.89804000      0.03721820     -0.03126670      0.01584920       1
H              18.35200000     15.38200000      9.44602000     -0.01247060      0.01804700     -0.00764718       1
O              14.74470000      7.58120000      2.74603000      0.02637880      0.02914820      0.00805139       8
H              13.01340000      7.90049000      3.32395000      0.00242409     -0.00082426     -0.00792720       1
H              15.88260000      8.94056000      3.63410000     -0.04221280     -0.03882490     -0.03067880       1
O              14.54690000     17.95310000     15.93910000     -0.01836180     -0.07407820      0.00728442       8
H              15.34420000     19.45660000     16.27100000      0.02800770      0.05737680      0.00574248       1
H              14.97170000     16.91900000     17.43410000     -0.00649969     -0.00253302     -0.01714930       1
O               8.03558000     15.10090000     21.65400000     -0.03504480     -0.00222365     -0.00052221       8
H               9.12339000     16.15280000     20.68520000      0.00175353      0.00921275      0.00108582       1
H               6.39988000     15.97670000     21.79430000      0.02602240     -0.00450617     -0.00215106       1
O              15.57970000     13.93680000     19.32200000     -0.00647073      0.00041708     -0.00477823       8
H              14.49680000     12.63450000     19.98860000     -0.00243664      0.00297782     -0.00048103       1
H              17.13550000     13.06300000     18.90880000     -0.00242195      0.00465253      0.00508292       1
O              11.75740000      6.55948000     12.61680000     -0.02099360     -0.05995450      0.05156800       8
H              11.46570000      4.64879000     12.24590000     -0.00599624      0.05016810     -0.00120089       1
H              11.10450000      6.63040000     14.45050000      0.01056420      0.00310063     -0.05507750       1
O              23.12210000     18.30400000     13.78070000     -0.03428800     -0.00463290     -0.00438872       8
H              21.60040000     18.79980000     14.78230000      0.03202640     -0.01365800     -0.02040280       1
H              20.31900000     15.37440000     11.41840000      0.03518500      0.02117880      0.03729280       1
O              20.04520000     12.16860000     20.42990000     -0.11142500      0.00040857      0.03945470       8
H              19.91650000     11.93720000     22.30840000      0.00469752      0.00122549     -0.01407240       1
H              21.79960000     12.34170000     20.03630000     -0.11437600     -0.03040260      0.05869770       1
O               0.74320100      1.63267000     17.96080000     -0.02852610     -0.02873880     -0.04576510       8
H              -0.22780100      0.94191800     16.39580000      0.02035220      0.02553900      0.05482440       1
H               2.39304000      1.56358000     17.18640000      0.00118257     -0.00465056     -0.00247680       1
O               9.96145000      1.80511000     10.22830000     -0.05782860     -0.00839764      0.00673698       8
H              11.15510000      0.59396700      9.89232000      0.04858860     -0.02873970     -0.00697907       1
H               8.48016000      0.49012500     10.20180000      0.02692890      0.04250140      0.01264330       1
O              18.23740000     18.29740000     11.32660000     -0.04187510     -0.01602840      0.04884250       8
H              18.14830000     20.02700000     10.77140000      0.00116614      0.00159343     -0.00910878       1
H              17.09060000     18.20480000     12.92310000      0.03247430      0.00007323     -0.04419080       1
O               3.70867000     14.41590000     18.50760000      0.03294350      0.00263470      0.02467020       8
H               4.98923000     13.28510000     19.21210000     -0.00712022      0.01298170     -0.00371959       1
H               2.73549000     13.34620000     17.53770000     -0.03039450     -0.03582550     -0.01876580       1
O               0.70967300      2.97235000      5.54050000      0.03299860     -0.07215400      0.06360010       8
H               0.80277900      1.37688000      8.01421000     -0.03500610      0.05393450     -0.03813160       1
H               2.38027000      2.18267000      5.06604000     -0.03285510      0.03215210     -0.00390975       1
O              20.77910000     18.11460000     18.28300000      0.00560972     -0.08433570      0.03997700       8
H              21.06830000     16.20520000     18.94400000     -0.00765594      0.07322200     -0.03080130       1
H              19.09130000     18.32420000     18.89300000     -0.00648926      0.01038790     -0.00057922       1
O               5.28761000     12.37920000     10.05890000      0.02437630     -0.01521940      0.00199604       8
H               3.99652000     12.53440000     11.26540000     -0.02132450      0.00869731      0.01833970       1
H               6.63367000     11.75060000     11.16470000     -0.00261070      0.00697837     -0.01413060       1
O               2.37188000     10.92910000     14.60920000     -0.05988450     -0.03723160     -0.02205930       8
H               0.96152900      9.60674000     14.05430000      0.06143130      0.03076220      0.01643630       1
H               1.19733000     12.32140000     14.66530000      0.00568099      0.00766100     -0.00485253       1
O              21.35100000      4.67794000     22.21360000     -0.02190870      0.02097740     -0.00729576       8
H              22.36470000      3.35202000     22.99260000     -0.01862430      0.00359381     -0.00617364       1
H              18.18070000      5.85184000     21.94350000      0.02338440     -0.00512558      0.06188170       1
