192
TotEnergy=-1102.94343000 cutoff=-1.00000000 nneightol=1.20000000 pbc="T T T" Lattice="24.08210000       0.00000000       0.00000000      -0.00000100      24.08210000       0.00000000      -0.00000100      -0.00000100      24.08210000" Properties=species:S:1:pos:R:3:force:R:3:Z:I:1
O              15.07390000      2.62629000      9.50058000     -0.04733920     -0.01351440     -0.04423600       8
H              13.14880000      2.55094000      9.41551000      0.04008680      0.00380434      0.01325900       1
H              15.48060000      3.07808000     11.15560000      0.00784250      0.00632890      0.02718550       1
O               0.31562900      1.83994000      3.89804000     -0.07267350      0.00867138     -0.02725620       8
H               0.79249300      0.85640300      5.21378000      0.01570200     -0.03838640      0.06384550       1
H               1.79012000      2.39209000      3.25558000      0.07234150      0.02685830     -0.03951100       1
O              21.62520000     20.58080000     19.19320000      0.01412060     -0.03962410      0.01817970       8
H              20.36460000     21.76640000     19.28690000     -0.02962690      0.04449830     -0.00364434       1
H              21.46390000     19.85300000     20.86640000      0.00835856     -0.00934557     -0.01377770       1
O              19.12020000     17.99330000      1.03837000     -0.07374860     -0.06383110     -0.02933220       8
H              20.21130000     19.20380000      1.40033000      0.07502780      0.07546580      0.02726390       1
H              17.55420000     18.84900000      0.74118900     -0.00004398     -0.01082480      0.00131603       1
O              20.66020000      4.33104000      5.51739000     -0.01190070     -0.01475030     -0.01679850       8
H              19.92110000      2.93059000      4.56387000     -0.00611276      0.01046900      0.01572710       1
H              22.38310000      3.97731000      4.99294000      0.00302774     -0.00274700      0.00901433       1
O              22.78720000     21.88820000      1.12921000     -0.00188990     -0.00435410      0.10159200       8
H              22.93810000     -0.48411700      1.78394000      0.00679608     -0.00334131      0.00005017       1
H              22.51640000     21.97470000     23.57060000     -0.00585002      0.01311990     -0.10404200       1
O               1.26643000     14.86090000     14.37180000     -0.01884830     -0.11661800     -0.09025980       8
H               1.15134000     16.24580000     15.25270000     -0.00809288      0.11315100      0.07239050       1
H              -0.17812800     14.90760000     13.14780000      0.03103920      0.00736350      0.01011260       1
O              20.15990000      6.90655000      1.14281000     -0.00577838      0.01180170     -0.03137290       8
H              21.71990000      7.36352000      0.28814400     -0.00812820     -0.00064539      0.00318602       1
H              20.42280000      6.10099000      2.70451000      0.01030900     -0.00596517      0.02315670       1
O               2.00940000      8.27956000     13.07420000      0.01966620     -0.01087780     -0.05803060       8
H               1.22925000      9.07269000     14.46420000     -0.01511250      0.02128770      0.00139793       1
H               1.69637000      8.93111000     11.29240000     -0.00499812     -0.00829477      0.05271060       1
O              14.93180000     22.63560000      0.48776600     -0.19473500      0.11392700      0.27822000       8
H              13.16220000     22.55000000      0.80945100     -0.07046260      0.01381210     -0.00908129       1
H              15.51190000     23.08550000      2.02673000      0.06576000      0.02752900      0.08493160       1
O               6.85416000     15.38330000     15.92970000     -0.01605210     -0.02831120      0.02680590       8
H               5.87755000     15.33370000     14.40650000     -0.00809475      0.00034922      0.00014207       1
H               5.92038000     14.15390000     17.12480000      0.02108130      0.02413440     -0.03298440       1
O              10.62290000      7.12839000      8.89593000     -0.01143090      0.03915170      0.07517410       8
H              12.55120000      7.22905000      9.22182000     -0.05748050      0.00885470     -0.00635411       1
H               9.42818000      8.04021000     10.60450000      0.05935200     -0.03507200     -0.06752740       1
O               8.98927000     22.11360000      6.53326000      0.05996830      0.00945834      0.03897820       8
H               9.03623000     22.83220000      4.90262000     -0.00428963      0.00858252     -0.02173290       1
H              10.65660000     22.77850000      7.33340000     -0.05606330     -0.02051160     -0.01946170       1
O               4.43909000     11.09520000     18.44860000      0.14105200     -0.02225770     -0.01223390       8
H               4.54178000     11.44820000     20.16260000      0.00085333      0.00275457      0.04445950       1
H               2.90062000     11.32340000     17.99900000     -0.14334000      0.01883840     -0.04540500       1
O               9.35447000     17.18530000      4.45697000     -0.04044790     -0.00142833      0.03871400       8
H               9.69638000     18.76330000      5.26794000      0.00095423      0.00914920      0.00701463       1
H              10.42070000     16.99010000      3.11844000      0.04378820     -0.00907583     -0.04181850       1
O              15.89650000      3.54078000     17.03000000      0.03040450      0.03970730     -0.03330800       8
H              17.25560000      3.01334000     15.77100000     -0.03070840      0.01332460      0.02326540       1
H              15.78580000      5.45690000     16.71480000      0.00514437     -0.05283550      0.01002220       1
O              21.21820000     16.28340000     11.00540000      0.04215180      0.06646990     -0.03726180       8
H              21.89560000     18.13640000     10.40810000     -0.02558110     -0.08411320      0.02749520       1
H              20.60260000     16.62820000     12.65350000     -0.02035680      0.00842010      0.01313250       1
O              22.57870000     11.00210000     16.45300000     -0.02833420     -0.03350800     -0.01674550       8
H              23.21120000     12.32840000     15.39690000      0.00582503      0.00935743      0.00122569       1
H              21.30590000     10.02130000     15.42560000      0.01905570      0.02172950      0.02263100       1
O              18.50230000     12.29970000      8.41263000      0.06938190      0.07308220      0.03717070       8
H              17.20710000     12.91620000      7.35345000     -0.01019460      0.00505190     -0.02122710       1
H              19.60790000     14.17350000      8.97183000     -0.04240480     -0.08046450     -0.02379210       1
O               4.57888000     23.42200000     21.05600000      0.04546200      0.04318470      0.02872100       8
H              15.57080000     -1.93727000     23.36840000      0.18913600     -0.13833100     -0.32348500       1
H               4.34567000     22.05530000     20.00310000     -0.00116732     -0.03181120     -0.02578690       1
O               8.61793000     19.04860000     19.28980000     -0.06686860     -0.03322550      0.02652610       8
H              10.17310000     19.60740000     18.85070000      0.05243290      0.02667500     -0.02311340       1
H               7.68006000     18.31870000     17.88620000      0.01234460      0.00173693      0.00532794       1
O               7.88799000     11.65300000      5.31345000      0.01444890      0.00822931      0.02739970       8
H               8.74091000     10.14430000      6.10839000     -0.01151850      0.04655070     -0.00576576       1
H               8.35840000     13.34400000      6.14336000     -0.00575494     -0.05639460     -0.01798510       1
O              10.52910000      0.31557700      1.43830000      0.02603610     -0.02184480      0.12267300       8
H              10.19650000      0.93875100     -0.10823900     -0.03275340      0.03805490     -0.10441100       1
H              10.26500000      1.72909000      2.68784000      0.00998141     -0.02014400     -0.02942510       1
O              -0.49820200      2.86516000     19.44120000      0.03403930      0.05089800      0.07345360       8
H              22.76540000      2.05790000     20.99510000      0.02904470      0.02902840     -0.04289030       1
H               0.98832400      4.56822000     20.29930000     -0.04976040     -0.07164700     -0.02756590       1
O              13.79680000      8.53417000     19.86480000     -0.06340350      0.00778279     -0.05874740       8
H              13.95490000     10.27220000     19.96140000      0.00821652      0.03851100      0.00140018       1
H              14.99760000      7.83702000     20.83280000      0.05525030     -0.03954310      0.05640590       1
O               9.11086000      1.44383000     20.45510000     -0.07072370      0.06816120      0.03388640       8
H               7.63767000      3.00034000     20.54700000      0.07555490     -0.06827800     -0.00784961       1
H               6.57548000     -0.10758200     20.89500000     -0.04148900     -0.01316290     -0.00369749       1
O              23.21110000      9.39506000     21.69310000     -0.12405200     -0.02934390      0.01914340       8
H              22.50790000      9.63916000     20.05690000      0.00384635      0.00305658     -0.00862765       1
H               0.71649400      9.80699000     21.68770000      0.12480400      0.02576150     -0.00578353       1
O              17.48980000      9.26104000     15.69180000     -0.00673897      0.00829141      0.00093268       8
H              16.34690000     10.33660000     14.69210000      0.01185780     -0.00750456      0.01291720       1
H              17.11590000      9.50227000     17.48090000     -0.00408654     -0.00092217     -0.02112500       1
O              19.07480000      2.53697000     12.68580000     -0.04123670     -0.07119780     -0.03484330       8
H              19.33350000      0.83656400     11.75790000     -0.00220005      0.05788210      0.03064010       1
H              20.63040000      3.21317000     13.09410000      0.04724860      0.01307630      0.01216370       1
O               4.60825000      4.96813000      2.27603000      0.05223710     -0.02982360     -0.02644610       8
H               6.44794000      5.54717000      1.97895000     -0.06079180     -0.00721549      0.02611690       1
H               3.43932000      6.04953000      3.08216000      0.00696664      0.03388460      0.00941519       1
O               8.70041000      7.12885000     19.18490000     -0.08149380      0.02629610     -0.00089789       8
H               7.53117000      7.95692000     17.91330000      0.03365200     -0.02629140      0.02769730       1
H              10.36020000      7.24251000     18.66800000      0.03940250      0.00134556     -0.01360940       1
O              12.48780000     16.00710000     23.14240000      0.01785330      0.10718900     -0.05782640       8
H              11.64200000     16.97040000     21.60820000      0.03133440     -0.02571560      0.04967700       1
H              11.52210000     14.62940000     23.16330000     -0.05052550     -0.08446840      0.01108950       1
O              16.10050000     15.26060000      4.48308000     -0.01339760      0.06629700      0.12336000       8
H              17.65120000     15.98160000      4.18094000      0.04661220      0.01946520     -0.00248631       1
H              15.82340000     14.45090000      3.09846000     -0.03426460     -0.08085120     -0.11428200       1
O               0.11861700     23.16090000     12.07100000     -0.13603800     -0.07784090      0.05182450       8
H               1.45019000     23.78740000     11.42140000      0.13992600      0.05859270     -0.07456410       1
H              -0.56152400      0.51115100     12.90800000     -0.00074228      0.01319640      0.01786360       1
O              10.34760000     10.29150000     -0.11181100      0.05037560     -0.02166340     -0.01517350       8
H              11.67710000      9.31678000     22.95880000     -0.03823650      0.01922400      0.01948340       1
H               8.94860000     10.36140000     22.85850000     -0.01417710     -0.00389237     -0.00956304       1
O              15.37390000     10.55980000      2.29667000      0.08606930     -0.02413540      0.00507351       8
H              17.19910000     10.24510000      1.54891000     -0.05705010      0.01054950      0.02463380       1
H              14.45070000     11.18750000      0.95966100     -0.02428800      0.01178050     -0.03200690       1
O               2.59442000      9.29039000      3.90049000     -0.01471730     -0.02387850     -0.07357130       8
H               4.16142000      9.41719000      4.58501000      0.07267940      0.00840403      0.01691690       1
H               1.69777000      9.84567000      5.23247000     -0.05765860      0.02677390      0.05954410       1
O              10.07950000      2.60019000     11.20380000      0.01320500     -0.06965340     -0.00860378       8
H               9.53718000      4.26793000     11.22160000     -0.01326710      0.03212080      0.01667160       1
H               9.56908000      1.39365000     12.53460000      0.00336950      0.03387970     -0.00355708       1
O              15.59740000      7.74721000      7.23369000     -0.00175430      0.05176230     -0.04018390       8
H              16.11020000      6.12861000      7.50334000      0.01936210     -0.06092640      0.01680720       1
H              16.34230000      8.13214000      5.56070000     -0.01620760      0.00478714      0.02733200       1
O              23.38880000      8.09944000      8.06489000     -0.03495500      0.00536591     -0.02366800       8
H              21.65520000      8.87857000      8.11611000      0.03151980     -0.01019220      0.00177075       1
H              23.27010000      7.07286000      6.51294000      0.00210618      0.01542340      0.02922240       1
O              12.51370000     19.81990000     13.83300000     -0.05591120      0.01058570     -0.01537520       8
H              11.66210000     19.85960000     12.16740000      0.03032330     -0.00908903      0.01092430       1
H              10.97030000     20.44400000     14.71400000      0.03327530     -0.00073467      0.00501562       1
O              14.55230000     18.51550000      8.51694000     -0.04533860     -0.04941780     -0.01731190       8
H              14.66800000     17.57670000      6.90989000     -0.01230330     -0.00839273      0.01886660       1
H              15.79510000     19.62250000      8.16593000      0.05573670      0.05739700      0.00074378       1
O              13.63870000     19.99730000     19.50330000      0.02725200      0.02843430      0.07688150       8
H              14.56530000     21.26520000     20.68340000     -0.03708030     -0.04224230     -0.06884320       1
H              14.31890000     20.09460000     17.87630000      0.01226100      0.01239660     -0.02605280       1
O               7.47381000      7.61995000     14.07360000      0.00768563     -0.02150280     -0.00677020       8
H               8.16574000      9.01033000     14.97880000     -0.00050894      0.01191400     -0.01292990       1
H               5.79006000      8.03995000     13.57740000     -0.01236980      0.00451702      0.00011758       1
O              18.97110000      0.94463000     21.60030000      0.05721480     -0.01680850      0.03473540       8
H              17.97450000      0.95345900     20.21740000     -0.04263590      0.01898510     -0.06772220       1
H              17.86820000      0.69371400     22.92440000     -0.01783070      0.01001590      0.03071470       1
O               1.75989000     19.79280000     16.49110000      0.12656200     -0.13200300     -0.04584300       8
H               0.66050300     20.87070000     16.89690000     -0.12374500      0.12302100      0.04785250       1
H               2.36462000     20.24670000     14.86360000      0.00137704      0.00789303     -0.00541998       1
O               2.13977000     18.55240000      3.00598000     -0.10441300      0.05516810      0.10633300       8
H               0.56033900     19.60310000      2.56464000      0.04868690     -0.02473050     -0.00178271       1
H               2.91031000     18.02790000      1.63718000      0.05577910     -0.03220830     -0.10196200       1
O              17.23330000     -0.11809500      5.30267000     -0.01235210     -0.01561430     -0.07739920       8
H              18.36970000     22.73090000      5.82365000      0.03444070     -0.03076430      0.00960573       1
H              16.90780000      0.71901800      6.76719000     -0.02591870      0.04413250      0.05924700       1
O               3.61917000      6.19347000     21.41180000      0.03906140      0.02004610      0.00017741       8
H               3.70523000      5.79372000     23.23560000      0.00488869     -0.00084940     -0.01909240       1
H               5.38313000      6.89424000     20.92690000     -0.05156300     -0.02676740      0.01264330       1
O              15.30220000      5.84913000     23.76310000     -0.00900593     -0.01915540     -0.01276420       8
H              17.02970000      5.34949000     -0.26332400      0.01488960      0.00558351      0.00233999       1
H              14.86600000      6.24386000      1.36913000     -0.00236582      0.00820657      0.01081020       1
O              11.24720000      0.64916800     16.37220000      0.03458690      0.02039080     -0.05578200       8
H              12.22730000      2.09490000     15.65830000     -0.01144330     -0.03222330      0.01223790       1
H              10.63260000      1.39575000     17.91940000     -0.02654230     -0.00138269      0.03304880       1
O               4.88765000      3.16297000      9.09334000      0.01709010      0.00633837     -0.00400852       8
H               6.67325000      2.95211000      9.68231000     -0.03160020      0.00380071     -0.02333520       1
H               4.81925000      3.66581000      7.30734000      0.01387000     -0.00915122      0.02534000       1
O               6.30548000     17.39840000      0.32178800      0.03438840     -0.00099476      0.04056340       8
H               7.56634000     17.65330000     23.06950000     -0.01411080      0.01048670      0.01449710       1
H               7.18057000     17.66040000      2.15030000     -0.02365260     -0.01173770     -0.06326740       1
O               0.19159200      3.58430000     14.44320000     -0.00330634      0.01070000      0.00492365       8
H               0.30874000      5.12731000     13.40140000      0.01602560     -0.01282560      0.02320970       1
H               0.88724400      3.77290000     16.19730000     -0.01909860     -0.00108816     -0.03637760       1
O              22.94940000     15.41300000      5.78975000      0.06690170      0.06776660     -0.01265690       8
H              22.28530000     14.55160000      4.35091000     -0.00558266     -0.00432968     -0.00844095       1
H               0.53026000     16.66280000      4.98340000     -0.06180160     -0.05224590      0.02067880       1
O              20.67930000     12.78210000      1.64441000      0.05793200     -0.10719900      0.12803300       8
H              19.98220000     13.81560000      0.64687600     -0.06781380      0.11124600     -0.11677800       1
H              22.26650000     12.24020000      1.05842000      0.00973732     -0.00754470     -0.01720210       1
O              10.07580000      5.72763000      3.63614000     -0.00253563     -0.03971290      0.06613490       8
H              10.70090000      6.83572000      4.97068000     -0.00509236     -0.00991921     -0.00511189       1
H              10.19810000      6.55765000      2.16079000      0.01194400      0.04579810     -0.06646390       1
O               9.49956000     12.03610000     12.43870000     -0.02632520      0.04853620      0.05042790       8
H               9.15162000     13.40350000     13.86690000      0.01320200     -0.04553800     -0.04694210       1
H              11.27160000     11.79420000     12.39770000      0.01928100      0.00706760     -0.00322835       1
O              15.07790000     13.35410000     11.68900000     -0.12513700      0.08006000      0.12433200       8
H              16.21960000     12.86240000     10.62250000      0.10175700     -0.03019840     -0.09267880       1
H              14.83610000     15.25760000     11.84520000      0.01449360     -0.05443610     -0.01501240       1
O               3.16476000     22.34720000      6.96087000      0.04081720     -0.01152700     -0.01389890       8
H               2.65303000     22.21280000      5.19858000      0.01318570     -0.01501570      0.01411490       1
H               5.03772000     21.84140000      6.94205000     -0.05124910      0.01792430      0.00020417       1
O              21.29670000     20.99880000      7.53410000     -0.03317010     -0.08143160     -0.09009220       8
H              21.38020000     19.00570000      7.11527000      0.00461048      0.06774490      0.01553240       1
H              21.81170000     21.34390000      9.13007000      0.03043920      0.01482720      0.06376600       1
O              17.49120000     13.17340000     20.38170000     -0.04676960      0.01843020      0.06173780       8
H              18.43210000     12.77270000     19.00440000      0.03344790     -0.00107731     -0.05467820       1
H              16.42050000     14.65540000     20.15250000      0.01446790     -0.01450490     -0.00648998       1
O              18.38980000     18.37710000     14.85000000     -0.01446830     -0.07571150     -0.08843720       8
H              19.11600000     19.00460000     16.17480000      0.06597890      0.04909910      0.10909500       1
H              16.95920000     19.29250000     14.56720000     -0.05113880      0.02710750     -0.01763070       1
O               5.02828000     12.17880000     23.11010000      0.00759238      0.01136700      0.04358640       8
H               4.74937000     12.18990000      0.88458200     -0.00227080     -0.01156930     -0.02644620       1
H               6.02157000     13.71520000     -1.04614000     -0.00538422      0.00540056     -0.00259660       1
