192
TotEnergy=-1102.36927000 cutoff=-1.00000000 nneightol=1.20000000 pbc="T T T" Lattice="24.04733000       0.00000000       0.00000000      -0.00000100      24.04733000       0.00000000      -0.00000100      -0.00000100      24.04733000" Properties=species:S:1:pos:R:3:force:R:3:Z:I:1
O               6.69427000     24.08950000      5.41690000     -0.06531260      0.01795700     -0.04703830       8
H               4.97771000     24.40970000      4.19082000      0.06479500     -0.01519400      0.06830110       1
H               6.29172000     23.60730000      7.24342000     -0.00336038      0.00021621     -0.05052910       1
O              18.07460000      3.50330000      3.38863000     -0.02828730     -0.01308720     -0.04052680       8
H              16.77750000      4.01467000      1.94597000      0.03413450     -0.01771090      0.04005030       1
H              18.95180000      1.94692000      2.79625000     -0.00945554      0.03493710      0.00264201       1
O              19.31700000     15.50860000      5.15918000      0.01219290      0.00779021     -0.01602400       8
H              17.91590000     15.23580000      6.20811000     -0.02400700     -0.00044596      0.02616710       1
H              20.71820000     15.47190000      6.33012000      0.00251784     -0.00204887     -0.00823190       1
O               0.98994400     12.11040000     24.03720000     -0.01337180      0.00972609     -0.03311320       8
H               0.38752600     11.14720000     22.55240000      0.01387490      0.01815070      0.02013600       1
H               1.78777000     10.94200000     25.11820000      0.00820330     -0.02218750      0.00937725       1
O               6.58421000     10.01150000     18.71080000     -0.03701540      0.10735100      0.00677242       8
H               8.34431000      9.67944000     18.81700000      0.01974750     -0.00182998      0.01103930       1
H               6.35703000     12.18640000     18.95230000      0.01479770     -0.11160300     -0.01228820       1
O               2.59022000     20.77660000     15.71150000      0.03043450     -0.02179820     -0.02589920       8
H               3.16412000     20.05250000     14.02780000     -0.02133770      0.01200090      0.02523290       1
H               4.14530000     20.48920000     16.67510000     -0.00907944      0.01030010     -0.00228729       1
O              22.23290000     15.60720000     12.01940000     -0.05934180     -0.07601220      0.05078990       8
H              22.48760000     13.89870000     13.36830000      0.00681152      0.04260700     -0.05292070       1
H              20.31640000     15.02700000     11.65760000      0.04424240      0.04156680     -0.00808673       1
O               5.99789000      9.62638000     13.02150000      0.01710480     -0.03377960      0.00979368       8
H               7.20458000      8.18506000     13.19120000     -0.01492680      0.02307360     -0.00751560       1
H               4.96487000      9.43331000     14.52600000      0.00196970      0.01009430     -0.00624341       1
O              12.06940000     18.27020000      4.00113000      0.04597940     -0.04606850      0.02412010       8
H              12.90990000     17.42070000      5.64712000     -0.02878550      0.03411220     -0.06337100       1
H              13.07660000     19.74880000      3.58421000     -0.00741642     -0.00073257      0.01148850       1
O               2.59549000     17.57980000     11.49730000     -0.04292400     -0.03930230      0.07790000       8
H               2.72085000     18.18940000      9.93765000      0.01950040      0.03767200     -0.09116880       1
H               0.70724000     16.95960000     11.38360000      0.03082050     -0.00100213      0.01665810       1
O              18.19280000     20.82220000      1.67756000     -0.03905140     -0.08249770     -0.02738970       8
H              18.68210000     18.87080000      1.11430000     -0.02248110      0.08691050      0.02785320       1
H              16.23250000     20.98880000      1.46276000      0.06530650     -0.01319240      0.00456854       1
O               7.78409000      0.90137100     20.16720000      0.10004500     -0.07740900      0.02360400       8
H               6.54618000      1.83353000     19.66650000     -0.10654200      0.08807480     -0.04662990       1
H               7.07312000     -0.09728200     21.52350000      0.00839267     -0.00434464      0.02332440       1
O              13.56790000      7.56173000      6.15605000      0.05960300      0.02435510     -0.02376300       8
H              12.45170000      6.22170000      5.67722000     -0.00952327     -0.01079010     -0.00507936       1
H              14.82650000      7.90349000      4.68766000     -0.04846540     -0.01370920      0.03842330       1
O               7.99725000     20.31760000     17.44700000     -0.00676975     -0.05040140     -0.05997280       8
H               9.10946000     19.83430000     15.97630000     -0.02183570      0.02154290      0.04013380       1
H               8.70101000     21.64950000     18.34060000      0.01811640      0.03326760      0.01395280       1
O               4.95164000      4.58814000     17.48820000     -0.04483290      0.02372490     -0.01516890       8
H               6.03361000      6.05295000     17.21480000     -0.01488710     -0.01048560      0.00793608       1
H               3.06338000      5.24970000     17.24310000      0.05873670     -0.01094620      0.01161330       1
O              10.27430000     19.11160000      8.86628000     -0.01157230     -0.06485390      0.01707980       8
H              10.39660000     17.23790000      9.27931000     -0.01090380      0.04957090     -0.01704300       1
H              11.83900000     19.75000000      9.42877000      0.02392770      0.00874807      0.00654414       1
O              22.94760000      2.95346000     13.72470000      0.07365930      0.04092230      0.02288600       8
H              23.69080000      4.44850000     14.84920000     -0.03242640     -0.04971770     -0.02754830       1
H              24.60180000      2.29605000     12.95410000     -0.04887580      0.01266420      0.01199480       1
O               7.21995000     14.81560000     13.45210000      0.01216670     -0.02600690     -0.02898390       8
H               5.49637000     15.45220000     13.12130000      0.01405860     -0.00344856     -0.00942905       1
H               7.51269000     13.47150000     12.07090000     -0.03614060      0.03519200      0.03890490       1
O               3.15175000      4.29380000     23.06060000     -0.16979800     -0.11891400      0.04765850       8
H               4.04575000      5.18541000     22.11290000      0.13555500      0.12129900     -0.10492900       1
H               1.87711000      3.90058000     21.53850000      0.02803620     -0.00208341      0.05928880       1
O              22.54560000     12.48100000     18.98290000     -0.05838420      0.01085580      0.07609500       8
H              20.41600000     13.27950000     21.12220000      0.04612570     -0.02606250     -0.04814250       1
H              22.94370000     14.28240000     18.84570000      0.01674650     -0.00507133      0.00067876       1
O              13.40480000      8.94994000     13.73310000     -0.04439340     -0.15364900      0.05174050       8
H              13.28730000     10.36950000     12.94410000     -0.00311387      0.12111400     -0.06303340       1
H              11.77480000      7.98159000     13.13050000      0.05453080      0.02160390      0.01555370       1
O               0.54055300      6.32465000      7.80586000      0.04358220     -0.07098350      0.02041440       8
H               1.37540000      4.61399000      8.54520000     -0.02247470      0.05039400     -0.02974000       1
H              -0.49141800      6.64800000      9.22042000     -0.01933600      0.01338950      0.00877510       1
O              11.69290000      8.21212000     19.40920000     -0.00448445     -0.04225790      0.09140240       8
H              12.45310000      6.44627000     19.40760000     -0.01830870      0.00422982      0.00458461       1
H              11.95780000      8.72755000     17.85020000      0.02223520      0.02997620     -0.10372100       1
O              21.72880000     24.25410000      1.03327000     -0.00476722     -0.00025950     -0.01834590       8
H              21.87610000     24.06670000     -0.81082000     -0.00493864      0.00225068      0.02739120       1
H              20.50450000     22.96260000      1.55449000      0.01101110      0.00010783     -0.01019140       1
O              10.83340000      3.30747000      4.85435000      0.03158480      0.00710278     -0.06814070       8
H               9.33861000      2.13295000      4.64607000      0.02542860      0.01864280     -0.00403661       1
H              11.89920000      3.70938000      3.05123000     -0.05428440     -0.02492790      0.06431900       1
O              12.66300000     13.81670000     17.73090000      0.30188800      0.12747000      0.23094100       8
H              11.61600000     13.16300000     16.96760000     -0.28858900     -0.17494000     -0.21870500       1
H              13.68590000     12.30150000     18.46760000     -0.01658760      0.05190140     -0.01204390       1
O              13.53370000     21.35710000     23.52930000      0.16645500     -0.04342010      0.09652170       8
H              14.27110000     22.93500000     23.32670000      0.01685050      0.03565830     -0.00082555       1
H              12.18980000     21.51450000     22.73230000     -0.19667300      0.01595310     -0.09631690       1
O              12.22500000     12.63280000      6.64180000     -0.01240450      0.01612490     -0.05575270       8
H              12.94110000     10.94030000      6.56025000     -0.00323746     -0.00646805     -0.00691109       1
H              11.64080000     13.01410000      3.75285000      0.01041370      0.00144798      0.06982910       1
O              18.61390000      6.63221000     18.64870000     -0.02517680     -0.04908570      0.02156940       8
H              17.78460000      4.91351000     18.76620000      0.01323910      0.04549190      0.01013770       1
H              18.60970000      6.76069000     16.87580000      0.01096480      0.00915587     -0.03488120       1
O               4.10938000     17.69500000     23.24490000      0.08005050     -0.07657670     -0.05210750       8
H               5.40116000     17.31970000     21.63880000     -0.04835350      0.01475620      0.05268610       1
H               4.20027000     15.70180000     23.86240000     -0.00798155      0.07635270     -0.00723961       1
O              16.84410000     24.17100000     18.97240000      0.04241260     -0.12346800     -0.05851350       8
H              18.40690000     24.93570000     19.08820000      0.03161810      0.04361270      0.01611380       1
H              17.11830000     22.55620000     17.89800000     -0.00933027      0.02971690      0.02495590       1
O              13.61730000     10.05970000      1.53340000     -0.00809712      0.04282130     -0.04002540       8
H              14.89830000     10.58450000      0.25551600     -0.01538000     -0.00796199      0.02875640       1
H              12.27880000     11.44620000      1.09867000      0.03494590     -0.04359490      0.00185128       1
O              13.94290000      4.59181000     24.19040000      0.02112190      0.05614970     -0.01968530       8
H              13.44040000      3.72114000     22.56760000     -0.00763549     -0.00244158     -0.00844421       1
H              14.24190000      6.40731000     23.45430000     -0.01625660     -0.05639790      0.03449980       1
O              18.73150000      5.76676000      8.20913000     -0.05472770      0.04108090      0.06689060       8
H              18.80930000      5.08101000      6.65030000      0.01644330     -0.03972690     -0.07429930       1
H              16.85060000      6.12416000      8.18209000      0.03508360     -0.00085626      0.00804604       1
O               2.59208000     10.86450000      9.14970000      0.04738170     -0.05181170     -0.00027807       8
H               4.04621000     10.08140000     10.19110000     -0.04196710      0.02543340     -0.01217520       1
H               2.24392000      9.32170000      8.09453000     -0.00259131      0.02822060      0.01741760       1
O               8.17206000      1.05556000     14.19080000      0.00290341      0.01165080     -0.00872640       8
H               7.42120000      1.19724000     15.81940000     -0.00642035     -0.00112339      0.00809662       1
H               9.84641000      0.48248400     14.51250000      0.00418119     -0.00788467      0.00842245       1
O               1.41582000     23.94610000      4.61280000     -0.02162790     -0.04723350     -0.03631540       8
H               0.87125800     22.06780000      4.19375000      0.02461720      0.06088500      0.02367290       1
H               0.79661300     24.80070000      3.09720000     -0.00344042     -0.00225478      0.01162380       1
O               8.56693000     16.32260000     20.29370000      0.03127460     -0.03693520      0.01428110       8
H               9.82287000     15.08710000     19.59750000     -0.00665398      0.02017320      0.01694110       1
H               7.34737000     16.19460000     19.03320000     -0.02016580      0.01194270     -0.03174850       1
O              19.44480000      7.67876000     13.35740000     -0.01292890     -0.04002820     -0.06217500       8
H              17.72720000      8.22583000     12.82830000      0.02318690     -0.00742183      0.00685309       1
H              20.02200000      6.49234000     11.79750000     -0.02526940      0.04106860      0.05570100       1
O              24.38670000      6.84257000     17.48950000     -0.04573160      0.03419720      0.03127320       8
H              23.17010000      7.75364000     16.42800000      0.01930130     -0.00607391      0.00359021       1
H              22.31830000      8.75292000     20.01630000      0.03427440     -0.02370250     -0.04613100       1
O              12.70720000      3.11523000     19.70930000     -0.03726110     -0.02323110     -0.00184197       8
H              10.78760000      2.61838000     19.67200000      0.06318960      0.01107180      0.00622611       1
H              15.08550000      0.26615700     19.11300000     -0.07522510      0.05992940      0.01338910       1
O              23.61380000     20.22310000     21.51350000     -0.08902300      0.02826550     -0.05646470       8
H              24.79190000     19.05110000     21.86800000      0.05540380     -0.04815780      0.02041120       1
H              22.65200000     19.32730000     20.02450000      0.03593810      0.02752360      0.04131640       1
O              15.19750000     22.88840000      5.60587000     -0.01079750     -0.01763940      0.00185460       8
H              16.83620000     22.21130000      5.32542000      0.01063240     -0.00663557      0.00035084       1
H              15.43440000     24.64550000      5.54368000     -0.00096314      0.02899040     -0.00814268       1
O              20.21490000      8.62063000      2.15567000      0.04091410     -0.01492440      0.03212620       8
H              20.41840000      8.05572000      3.94882000     -0.01779350      0.01047850     -0.02976040       1
H              22.03860000      8.29104000      1.74079000     -0.02146110      0.00187850      0.00130251       1
O              23.58820000      1.46905000     20.09150000     -0.00307505     -0.01138500      0.00364857       8
H              23.41930000      0.83293100     18.40480000      0.00378560      0.00573468     -0.00958025       1
H              24.31890000      0.00012200     20.91860000      0.00172527      0.00027288     -0.00239005       1
O              16.95830000     16.06210000     10.45950000     -0.02224320     -0.10026100      0.00532602       8
H              12.41520000     15.43180000     12.26480000      0.03800190     -0.03975160     -0.01852700       1
H              17.17350000     17.72690000     10.41670000      0.01198270      0.08549740     -0.00303364       1
O              15.19660000     21.48730000     10.55060000     -0.04079850     -0.01198790      0.00608355       8
H              14.77340000     22.75410000      9.37961000      0.00026633      0.01185800     -0.02551020       1
H              16.86000000     21.78720000     10.99290000      0.04405130      0.00451141      0.01385220       1
O              20.49380000     22.31840000     13.33470000      0.03677750     -0.03436170     -0.03661640       8
H              20.78670000     24.07410000     13.19100000      0.00273585      0.02486940      0.00438595       1
H              22.00650000     21.69230000     12.27960000     -0.04490280      0.00855720      0.03311120       1
O              18.75480000     12.95210000      0.70800500      0.02347850      0.01838780      0.00492930       8
H              18.57690000     14.33910000      2.02251000      0.01175510     -0.02739240     -0.01798620       1
H              20.12820000     11.82250000      1.43253000     -0.03317670      0.01248570     -0.00737118       1
O               1.05252000      7.57463000      2.71154000      0.01112450     -0.03411710     -0.03534570       8
H               1.42281000      6.01918000      1.56301000      0.00129414      0.03804380      0.03069970       1
H               0.93248200      7.08163000      4.46215000     -0.00008565     -0.00862559     -0.00026208       1
O              23.41090000     17.11990000     17.57310000     -0.01479600      0.00115077     -0.00937965       8
H              24.39180000     18.09970000     16.36480000      0.01146640      0.00753538      0.00599282       1
H              21.95730000     16.69810000     16.56640000     -0.00344097     -0.00006778     -0.00649700       1
O              17.20760000     11.72170000     19.64470000      0.00878519     -0.04957930      0.03481930       8
H              17.80880000     11.41460000     21.48490000     -0.02618750      0.00827353     -0.04636180       1
H              17.23190000      9.93180000     18.88860000      0.00591820      0.04015120      0.02294160       1
O               1.63922000      1.32097000      9.62299000      0.06196920     -0.03831560     -0.00231030       8
H               3.22097000      0.16999500     10.11180000     -0.05212050      0.04085610     -0.01743310       1
H               1.47513000      0.99359100      7.77280000     -0.00235241     -0.00580537      0.01452770       1
O               9.36844000      5.49624000     11.96080000     -0.01362960      0.02477910     -0.01955730       8
H               7.78868000      5.27919000     11.03330000      0.01762170      0.00015521      0.00168479       1
H               9.16854000      4.34101000     13.31200000     -0.00277488     -0.02518770      0.01602370       1
O               7.24514000     22.37040000      0.18696200     -0.02682410     -0.07131280     -0.03778860       8
H               7.09890000     22.42630000      1.96037000      0.00150241      0.00078059      0.01957760       1
H               5.81548000     19.50340000     -0.35865400      0.00635188      0.04148290      0.02784510       1
O              11.13330000     14.18780000      0.80038100      0.11155000     -0.00370880      0.12899200       8
H              12.43150000     16.32580000      1.56149000     -0.04211070     -0.05292730      0.01825250       1
H              10.48960000     15.16630000     -0.34211300     -0.07786280      0.06856400     -0.09800760       1
O               0.23083300     14.17660000      5.51533000     -0.04260910     -0.03791860     -0.08734110       8
H               1.50434000     13.70470000      6.57965000      0.03976580     -0.02295700      0.04346240       1
H               0.00116000     12.59760000      4.29285000      0.00724862      0.06300780      0.04648080       1
O              22.83010000     11.21100000     14.33800000     -0.01030610      0.00247091      0.03859260       8
H              22.83340000     11.65580000     16.28260000     -0.00865993     -0.01374260     -0.04258570       1
H              21.35920000     10.05340000     14.02630000      0.01787210      0.01903090      0.00022408       1
O               2.72033000     19.45480000      6.17388000     -0.02741720     -0.08758530     -0.02333430       8
H               2.94861000     17.62230000      5.43987000     -0.01132920      0.06180220      0.02509370       1
H               4.33914000     20.11370000      6.24078000      0.03989340      0.01730360     -0.00256061       1
O              12.89530000     22.22700000     15.00910000      0.03041940     -0.00709564     -0.03910270       8
H              13.08860000     23.03950000     13.24530000      0.00660882     -0.03448340      0.04890150       1
H              14.10170000     20.71850000     14.99000000     -0.03474370      0.04325080     -0.00509269       1
O              14.70310000     19.01910000     18.65940000     -0.01020610     -0.04753380      0.01905910       8
H              14.35970000     17.26410000     17.78790000      0.00884168      0.05176310      0.04259490       1
H              14.30360000     18.97080000     20.57060000      0.01074500     -0.00633426     -0.05944500       1
O               7.54824000     13.74810000      7.86153000     -0.03714260     -0.05403780      0.03934160       8
H               6.44341000     12.22500000      8.52729000      0.02819950      0.05507590     -0.03023790       1
H               9.14636000     12.94970000      7.43026000      0.00393047     -0.00077875     -0.01061020       1
O              12.27900000     13.52680000     11.79450000     -0.07369790      0.05659320     -0.02861620       8
H              10.29440000     13.69320000     11.86770000      0.04230530     -0.01752600      0.00142528       1
H              12.50930000     13.23120000      9.73396000      0.00886954      0.01561800      0.01498520       1
O               6.83435000     22.52930000      9.73303000     -0.08969580     -0.10367400      0.02152660       8
H               7.58415000     20.89200000     10.27850000     -0.00204694      0.02778200     -0.01651750       1
H               7.93097000     23.76070000      9.79974000      0.08627360      0.07979230      0.02016420       1
