192
TotEnergy=-1103.23786000 cutoff=-1.00000000 nneightol=1.20000000 pbc="T T T" Lattice="24.01105000       0.00000000       0.00000000      -0.00000100      24.01105000       0.00000000      -0.00000100      -0.00000100      24.01105000" Properties=species:S:1:pos:R:3:force:R:3:Z:I:1
O              -0.35792900     14.18880000      8.08827000     -0.09854510      0.00876819     -0.02000210       8
H              21.80370000     13.63340000      7.33757000      0.06934090      0.00909934      0.03264160       1
H              22.90890000     15.71960000      8.93864000      0.02559490     -0.01845540     -0.01518300       1
O              13.69020000     20.46330000     15.81190000     -0.02780500      0.00446737      0.01121800       8
H              13.35540000     22.30490000     15.54590000      0.00103093     -0.02328310      0.01037610       1
H              12.04890000     19.70560000     16.52000000      0.03701840      0.02782000     -0.01637470       1
O              17.14480000     13.79510000     16.25430000      0.00527448      0.00297959      0.00867386       8
H              18.80680000     12.84810000     16.03180000     -0.02490400      0.02804320      0.01300500       1
H              16.96290000     15.35090000     17.52290000      0.01050580     -0.04130490     -0.02837500       1
O               6.75135000     21.52570000     10.87700000      0.04944530      0.00817709     -0.06430650       8
H               7.92835000     22.80330000      9.98554000     -0.02414250     -0.02578530      0.02949680       1
H               6.01133000     22.31050000     12.23830000     -0.01661370      0.01910300      0.04005800       1
O               3.54693000      8.21838000      8.84079000     -0.01980140      0.02645950     -0.02374330       8
H               4.19166000      6.51092000      8.78987000      0.00154339      0.01083880      0.02752580       1
H               3.40926000      9.45487000     10.22280000      0.01354900     -0.03830090     -0.00432703       1
O               6.28211000      0.20498700     18.70130000     -0.05333570      0.00454408     -0.01115910       8
H               5.66261000      1.17357000     17.16470000      0.02124980     -0.01202570      0.03266530       1
H               4.67952000     -0.20418600     19.67500000      0.02633290      0.01372130     -0.01645860       1
O               9.55256000     15.46490000     10.84010000     -0.03479670      0.07067840      0.05115000       8
H               9.26287000     17.50770000     11.45800000      0.01077220     -0.09447650     -0.02903950       1
H               8.22577000     14.58980000     11.89520000      0.02451850      0.02111650     -0.02153900       1
O               8.27684000      3.07640000     23.66970000     -0.06670290      0.01583760     -0.00467285       8
H               9.97975000      2.77196000     23.61720000      0.06004850     -0.01485310     -0.00505363       1
H               7.57637000      2.68010000     22.02030000      0.00834879     -0.00643562      0.00634149       1
O               0.26134700      4.30516000     16.94610000      0.00921970     -0.02188880     -0.00703686       8
H              23.50310000      4.37573000     18.67720000      0.01223260      0.02328190     -0.03401850       1
H               1.61093000      5.47011000     16.41010000     -0.02030070      0.00183006      0.03074080       1
O               1.72860000     -0.11649600     21.55340000     -0.04064420     -0.00644246     -0.00335478       8
H              -0.01299700     -0.49596600     20.89260000      0.02997080     -0.01019110     -0.00743862       1
H               1.20027000      1.30379000     22.54140000      0.01343710      0.01462450      0.00974585       1
O              22.76870000     19.93590000      8.44358000     -0.03086070      0.00129994      0.08477230       8
H              22.21100000     20.26150000     10.43250000      0.03697470      0.00188060     -0.07189370       1
H              21.04630000     19.83780000      7.83883000      0.00623672     -0.00298165     -0.01738760       1
O               7.02902000     14.15580000      5.27803000     -0.06159040     -0.00898527      0.10073300       8
H               8.73720000     14.63960000      4.98794000      0.01015900      0.01736110      0.00675721       1
H               6.36770000     14.44440000      7.46835000      0.04024540     -0.00401166     -0.10428100       1
O              21.53090000     17.89020000     22.05660000      0.05203790      0.03779960      0.04722980       8
H              22.47600000     16.39650000     21.69470000     -0.00156946     -0.01169070     -0.01613590       1
H              22.99770000     18.62960000     23.41430000     -0.05447910     -0.01427960     -0.03442800       1
O               3.82084000      8.19644000     16.22470000     -0.00106420     -0.06609840      0.04909650       8
H               3.44792000      9.17477000     14.85660000     -0.00340983      0.05259120     -0.03089730       1
H               4.66871000      8.74964000     17.73230000      0.00228001      0.01541820     -0.01385060       1
O              23.02140000      3.55379000     12.10770000     -0.03852790     -0.00823290      0.01342640       8
H               0.52491600      3.80583000     11.21180000      0.02062740      0.00175798     -0.00153400       1
H              23.11440000      3.89093000     13.94700000      0.01378560      0.00220562     -0.01240190       1
O               6.86612000      8.16105000     20.95590000     -0.00073246      0.01113170     -0.00175814       8
H               7.46399000      6.71185000     21.92380000      0.00226119      0.01944090      0.00432928       1
H               7.42314000      9.78753000     21.71120000      0.00015853     -0.03290250      0.00251314       1
O               2.54486000     20.46680000     15.26600000     -0.01054830     -0.06705140     -0.07028800       8
H               2.21477000     21.46820000     16.62900000     -0.02764120      0.02741930      0.04226740       1
H               0.99705500     19.53240000     14.56030000      0.03586690      0.04280300      0.02751970       1
O              14.50960000     -0.16847700      8.15278000     -0.03327050     -0.03579760     -0.08173890       8
H              13.62190000     22.56840000      6.65269000      0.04032080      0.05154960      0.05277490       1
H              15.28010000      1.12880000      7.01989000     -0.00716223     -0.02144270      0.02496410       1
O              19.20690000     19.17360000      4.42922000      0.05918170      0.01361510     -0.04793320       8
H              18.37120000     17.60390000      4.15085000     -0.00123047     -0.00449695     -0.01198000       1
H              20.70120000     19.19880000      3.05364000     -0.05603790     -0.00293011      0.05490620       1
O               8.33997000     13.70650000     17.62890000      0.02938700     -0.05359730     -0.03522740       8
H               9.72445000     12.41980000     17.22460000     -0.04769470      0.01406450     -0.01939120       1
H               9.24927000     14.13770000     19.03550000      0.01582620      0.03748080      0.06572060       1
O               8.70001000     19.88160000     17.89140000     -0.04369470      0.01666160     -0.01537380       8
H               7.33649000     21.22970000     17.71350000      0.03969590      0.00966347      0.02071390       1
H               7.67403000     18.83640000     16.83150000      0.01232260     -0.02928390     -0.00495443       1
O              11.94440000     10.29080000      6.58794000     -0.03521970      0.03438270     -0.00330926       8
H              12.66000000     10.55130000      8.20415000      0.01728160     -0.00388996      0.01773900       1
H              10.75010000     11.77570000      6.61215000      0.01730910     -0.03696660     -0.00944600       1
O               4.93123000      1.02254000      3.64240000      0.03384440      0.02699030     -0.03437400       8
H               5.60885000     23.28440000      3.70819000     -0.00458915      0.00293426      0.00280384       1
H               6.37519000      2.05987000      2.77668000     -0.04566520     -0.03106240      0.01811080       1
O              10.08670000      2.07653000      9.99319000     -0.03365130      0.01676730     -0.02589500       8
H              11.81670000      1.64211000      9.60841000      0.00314178     -0.00189203     -0.00502392       1
H               9.43308000      3.04853000      8.45396000      0.02430500     -0.01898270      0.03319590       1
O              16.20430000     14.85800000      3.35229000      0.02921300      0.04680760      0.05277220       8
H              15.69370000     13.25170000      2.82294000      0.00531381     -0.04155530      0.00191177       1
H              17.13360000     14.83540000      5.08715000     -0.03889990     -0.02754010     -0.04937480       1
O              17.30170000     20.20940000     11.10350000     -0.09776860      0.04369890     -0.01177740       8
H              15.49400000     21.31120000     10.40350000      0.09153320     -0.03384430      0.01193920       1
H              16.51210000     19.88070000     12.72580000      0.00640933     -0.01223330      0.00126767       1
O              19.24890000      8.35191000     11.96520000      0.04148980     -0.00329060     -0.00002045       8
H              20.15660000      6.69934000     11.47890000     -0.00603208      0.05375430      0.01844110       1
H              20.45260000      9.71761000     12.69010000     -0.03374020     -0.06212600     -0.02227370       1
O               9.38315000      9.86837000     13.85250000      0.02907160      0.02544460     -0.01305340       8
H               9.61966000      8.06172000     13.94370000      0.00562186      0.00905356      0.00509095       1
H              11.03080000     10.73870000     13.32770000     -0.03343380     -0.03784250      0.00858918       1
O              13.67510000      2.17288000     15.95750000      0.02523520     -0.03056050      0.05715310       8
H              15.34720000      1.92177000     16.97350000     -0.03732980      0.01431320     -0.03238040       1
H              13.93510000      2.69729000     14.28410000      0.01947350      0.01201490     -0.02420440       1
O              14.64180000      9.63561000      1.29846000     -0.00270404      0.00858127     -0.02636670       8
H              15.21030000      9.97702000     23.50190000     -0.00738635     -0.02638860      0.04202800       1
H              14.92960000      7.86841000      2.00571000      0.00935464      0.02693460     -0.02847990       1
O              21.60060000     22.04230000     18.85350000     -0.00262597      0.03548560     -0.04084020       8
H              21.39410000     22.21220000     16.96340000      0.00656807     -0.01388690      0.03376480       1
H              21.37620000     20.38230000     19.48870000     -0.00034696     -0.02568080      0.00562823       1
O               5.24480000      7.91405000      3.51892000      0.02696820      0.00123183     -0.06017650       8
H               6.26823000      9.04439000      2.35729000     -0.00615675     -0.03092510      0.01904400       1
H               4.78647000      9.14225000      4.66186000     -0.01565240      0.02334420      0.04380080       1
O              11.96250000      6.57788000     17.99850000     -0.04017740      0.02223700      0.02878530       8
H              12.14150000      4.79266000     17.40250000     -0.01841090      0.02103380      0.01371970       1
H              10.28110000      7.21172000     18.93850000      0.06186080     -0.04152030     -0.04335300       1
O              -0.16476900     13.59140000     20.62640000      0.02679960     -0.00322114     -0.00879088       8
H              23.34990000     13.15570000     22.36310000      0.01431840     -0.01204560     -0.00959306       1
H               1.68136000     13.34210000     20.28560000     -0.03988020      0.00129891      0.01960070       1
O              18.27430000     12.44220000      8.10364000     -0.02359090     -0.00752488      0.04602190       8
H              17.20910000     12.18150000      9.75067000      0.02909380      0.01197390     -0.05045840       1
H              19.13360000     10.84100000      7.92791000     -0.00270414     -0.00229706      0.00132306       1
O               9.24955000     10.60500000      1.26559000      0.04996360      0.00652616     -0.00151704       8
H              11.21160000     10.04430000      1.15395000     -0.05573690      0.02383740      0.00764215       1
H               9.21559000     12.38000000      1.88531000      0.00740486     -0.03078420     -0.01420900       1
O              22.94020000     10.99080000      1.52420000      0.08590030      0.00604440      0.01938430       8
H               0.22211000     11.89590000      2.67757000     -0.04375340     -0.00495066     -0.02799490       1
H               0.36662400      9.98698000      0.69225200     -0.04144220      0.00508740      0.00372936       1
O               9.89863000      5.31484000      5.71225000      0.00452467     -0.02955430     -0.00932917       8
H              10.53970000      6.92799000      6.33637000     -0.02438910      0.00874492     -0.01113120       1
H               8.25061000      5.19701000      4.83117000      0.02522880      0.03196530      0.01465610       1
O              17.05380000      9.14395000     19.34970000      0.00577710      0.00901574     -0.00106404       8
H              16.98040000     10.73140000     18.39880000     -0.00488716     -0.01223270      0.00335843       1
H              15.82050000      8.02505000     18.63530000     -0.01174150      0.00413581     -0.00166256       1
O              14.76550000      5.03205000     11.35810000     -0.01652390     -0.02909470     -0.00326759       8
H              13.02320000      5.62569000     11.64030000      0.04089580      0.01426150     -0.00683482       1
H              16.28450000      6.05638000     11.24370000     -0.02950420      0.01661150      0.00880613       1
O              13.96360000     12.39020000     11.94760000     -0.05187460      0.05188380      0.05961970       8
H              14.56280000     12.74130000     13.76940000      0.00764028     -0.01106130     -0.04084960       1
H              12.38470000     13.66250000     12.02520000      0.05136380     -0.03187200     -0.02183430       1
O              21.76430000     11.34760000     15.96480000     -0.01690320      0.00139860      0.05792720       8
H              22.43050000     12.20410000     17.56050000     -0.00823057     -0.01684530     -0.04265470       1
H              22.31910000     12.10240000     14.46210000      0.03075440      0.02114980     -0.00837094       1
O               8.49319000     20.12590000     23.36580000      0.00404273     -0.00333094     -0.03889540       8
H               8.71751000     20.12550000     21.45520000     -0.00552008     -0.00245824      0.04019740       1
H               8.02456000     21.81770000     23.79140000      0.00300579      0.00405193     -0.00147532       1
O               0.56967400     19.51790000      1.93575000      0.05706460      0.09384630     -0.05515490       8
H               1.47475000     21.31640000      1.14931000     -0.04751310     -0.07413980      0.03311250       1
H               2.11443000     18.50820000      1.91658000     -0.01522340     -0.00909001      0.01330280       1
O              13.42670000      0.94084100     23.79300000      0.02948260      0.01530390      0.01070460       8
H              14.35670000      1.77927000      1.24930000     -0.01724300     -0.00692361     -0.03777530       1
H              14.44500000      1.27275000     22.25710000     -0.00919703     -0.00123829      0.02322020       1
O              16.53010000     17.51480000     19.39630000      0.04138330      0.07792170     -0.05217100       8
H              16.25880000     19.39000000     17.99110000     -0.00018079     -0.07821840      0.05386080       1
H              18.43650000     17.43400000     19.76920000     -0.04927940      0.00957990      0.00241508       1
O               3.88217000     17.63470000      8.70098000      0.00893054      0.04494940      0.01280090       8
H               2.17346000     18.38850000      8.51183000      0.02050400     -0.00901762     -0.00119146       1
H               4.98297000     19.07320000      9.39594000     -0.02912060     -0.03315790     -0.00925818       1
O               3.78274000      2.47671000      8.92033000      0.02087630     -0.04325620      0.01645510       8
H               3.54805000      1.81365000      7.19791000      0.00637767      0.00668748      0.01536370       1
H               4.57761000      0.99992600      9.90850000     -0.02643820      0.04323930     -0.03498410       1
O              22.31110000      8.26996000      6.27822000      0.05991610      0.01741840     -0.00419653       8
H              22.44330000      9.37649000      4.75868000     -0.00253941     -0.02049370      0.01652740       1
H               0.17327800      8.11365000      6.91014000     -0.05476290      0.00490233     -0.01493430       1
O               2.11266000     15.29090000      3.42500000      0.00342662     -0.02629790     -0.00318005       8
H               1.14106000     14.92590000      4.92202000     -0.00573228      0.01286040      0.01122730       1
H               3.58814000     14.27410000      3.74336000      0.01293920      0.00937015     -0.00122092       1
O              15.29910000      4.89243000      2.96330000     -0.11735700      0.01500970      0.00170390       8
H              13.12590000      5.26726000      3.79496000      0.08813660     -0.02257510     -0.02167370       1
H              16.46160000      4.77217000      4.30224000      0.01574470     -0.00235203      0.03125660       1
O              19.35390000      4.17129000      6.31056000     -0.00444430     -0.01111930     -0.00420188       8
H              20.35780000      2.80786000      6.98329000     -0.00302355      0.00649301     -0.00198603       1
H              20.52350000      5.42521000      5.66341000      0.00491752      0.00378152      0.01080320       1
O              21.41570000     22.22560000     12.86800000      0.01856280     -0.03655790      0.03047930       8
H              19.78660000     21.51970000     12.30570000     -0.00937814      0.03073150     -0.00458411       1
H              21.87060000     -0.03430900     12.90570000     -0.01236070      0.01164500     -0.01851810       1
O              12.34880000     14.03190000     21.26070000      0.02264550      0.08448570      0.04752770       8
H              12.82050000     15.69920000     20.48650000     -0.00145259     -0.03546590     -0.00938591       1
H              12.66930000     14.93180000     23.01580000     -0.02046110     -0.04878860     -0.04210930       1
O               1.80073000     12.52150000     12.90310000      0.05881740      0.05986200      0.00155564       8
H               1.49346000     12.83460000     11.13280000     -0.00797177      0.00064291     -0.00217722       1
H               3.30183000     14.20020000     13.27900000     -0.04179920     -0.06576360     -0.00480953       1
O              20.95610000      5.83603000     20.18540000      0.03945530     -0.02007810      0.04675260       8
H              19.78650000      6.72222000     19.05630000      0.01915480      0.02257790      0.02336650       1
H              22.35760000      6.63757000     21.43100000     -0.05627810     -0.00441305     -0.05865780       1
O              10.87580000     15.78080000      2.73008000      0.02590170      0.05129600     -0.01445470       8
H              11.13020000     17.68450000      2.29652000     -0.00475511     -0.05615980      0.01563100       1
H              12.56540000     15.21030000      3.23985000     -0.00512480      0.01266400     -0.00002949       1
O              17.74620000      1.52483000     19.30810000     -0.00214888     -0.00335735      0.00258863       8
H              18.64080000     -0.05055800     19.25030000     -0.00155481     -0.01123640     -0.00104369       1
H              19.15060000      2.60185000     19.73680000     -0.00344450      0.01965780      0.00173623       1
O               6.68454000     20.36470000      4.36924000      0.01623150     -0.06401340     -0.04495520       8
H               7.23423000     18.97510000      2.91044000     -0.02600540      0.05805480      0.06408580       1
H               5.90556000     19.39450000      5.76072000      0.00547100      0.00214193     -0.01961950       1
O               0.52328900      3.38413000      1.92409000      0.01346020     -0.03540260     -0.01139500       8
H              22.61900000      3.18622000      1.68826000      0.05829450     -0.01725260      0.01153290       1
H               2.13948000      1.78094000      2.15777000     -0.06088140      0.05214890      0.00737869       1
O               6.83101000      4.19423000     15.12980000      0.01899770     -0.02758760     -0.00980895       8
H               6.97366000      3.65574000     13.33610000     -0.01894920      0.01934970      0.03198770       1
H               5.33058000      4.97718000     15.85000000      0.00639632      0.00574441     -0.03265730       1
O               1.29904000      7.45223000     22.64780000      0.03205340     -0.03026560      0.01314950       8
H               3.06719000      6.97657000     22.23030000     -0.02137810      0.02162440     -0.00808916       1
H               1.14289000      6.16052000     -0.01223100     -0.00868397      0.00578770      0.00279056       1
O               5.39970000     15.91000000     14.43920000      0.00623358     -0.01482080      0.03138930       8
H               4.10871000     17.04000000     15.03930000      0.00471654      0.01107220      0.00145223       1
H               6.30284000     15.15990000     16.03780000     -0.01565650      0.00632997     -0.03938560       1
O              14.26230000     20.93500000      3.38822000      0.01627730      0.03199570     -0.05787120       8
H              16.08200000     20.67090000      3.71089000     -0.01372790     -0.00274446     -0.00211179       1
H              14.29690000     21.85150000      1.57552000     -0.00938380     -0.02727010      0.06406250       1
