192
TotEnergy=-1102.72937000 cutoff=-1.00000000 nneightol=1.20000000 pbc="T T T" Lattice="23.74630000       0.00000000       0.00000000      -0.00000100      23.74630000       0.00000000      -0.00000100      -0.00000100      23.74630000" Properties=species:S:1:pos:R:3:force:R:3:Z:I:1
O              11.43880000     23.18350000      2.31922000     -0.02958490      0.04828720     -0.03022730       8
H              10.81910000      0.43686300      0.78677900      0.02743790     -0.02962780      0.03158150       1
H              10.94730000      0.64651100      3.64191000      0.00868338     -0.02396750     -0.00537767       1
O               0.50113100      1.02145000     13.97070000     -0.04096600      0.00522599      0.02763160       8
H               1.35916000      2.48158000     14.59310000      0.02154190      0.00503550      0.00464300       1
H              22.82930000      1.06125000     15.26180000      0.02335350     -0.00104596     -0.02728440       1
O              10.46550000     18.78480000     15.88470000      0.05794370     -0.02944170     -0.00738676       8
H               9.12356000     17.46570000     15.56210000      0.01230100      0.02652100      0.00114004       1
H              10.05000000     20.63340000     15.74190000     -0.00587283     -0.02565180     -0.01013750       1
O              19.01590000     14.48930000     21.45810000     -0.05012290      0.02633730     -0.03056610       8
H              20.42200000     14.43600000     22.45410000      0.04695670      0.00677539      0.02989580       1
H              18.19370000     16.17270000     21.74430000      0.00402437     -0.02803000      0.00052051       1
O              14.79130000     11.94460000     18.49310000      0.05010420     -0.01353780      0.02300300       8
H              13.09440000     12.12240000     18.27310000     -0.05296370      0.01250820     -0.00492026       1
H              15.60800000     12.85400000     17.16390000     -0.00184420      0.00009072     -0.01797800       1
O               2.76554000     12.71240000      4.20785000     -0.03844660      0.02994170      0.05785040       8
H               3.36029000     14.10630000      3.17219000     -0.00031583     -0.00134524      0.01469810       1
H               1.84651000     13.47300000      5.86222000      0.04221810     -0.01980550     -0.07103700       1
O               5.66478000     15.99460000     17.32540000     -0.04094030      0.03461150     -0.08813040       8
H               6.05560000     15.10880000     18.66330000      0.04798220     -0.05673330      0.10432200       1
H               4.22615000     14.91610000     16.74080000      0.02847590      0.02467730     -0.02069420       1
O               1.08752000      9.80932000     11.38410000     -0.01381590      0.00964217     -0.01751660       8
H               2.40047000      9.40065000     12.54790000      0.00468264     -0.01463880     -0.00058482       1
H               0.17356700      8.38149000     10.70730000      0.01196850      0.00832317      0.01401460       1
O              10.33130000     12.15710000     10.05430000      0.28540800      0.03243120     -0.21824500       8
H               9.22641000     12.14310000     11.02410000     -0.28638900     -0.01276660      0.22651200       1
H              11.15960000     13.94240000     10.58190000      0.00161406     -0.02503510     -0.01288540       1
O              16.33840000     13.74690000     13.83710000     -0.04239170      0.03405240     -0.00223678       8
H              14.42820000     14.69300000     13.21260000      0.02594430     -0.00060632      0.00338488       1
H              16.29790000     12.96350000     12.22360000      0.01884360     -0.01660600     -0.00370860       1
O              18.29820000      1.60011000     21.49230000     -0.08468560     -0.08754590      0.03671310       8
H              19.51930000      2.44431000     20.81740000      0.12258200      0.09530130     -0.03485870       1
H              17.70660000      1.09155000     19.87880000     -0.00938259     -0.03334300     -0.01655870       1
O              16.53380000      6.92528000      8.36043000      0.08692840     -0.11805400     -0.10062800       8
H              15.75540000      7.83643000      9.43025000     -0.08433720      0.10306600      0.09906950       1
H              16.97860000      7.72639000      6.81326000     -0.00646162      0.01391960      0.00436861       1
O              16.24990000     19.17430000     22.51730000      0.06563730      0.04280530      0.02246570       8
H              16.58510000     19.96000000      0.51059600     -0.00845930     -0.01984740     -0.03556030       1
H              17.78020000     20.04770000     21.70950000     -0.04898430     -0.02169020      0.01369500       1
O              22.37310000     18.69750000      0.20229700      0.02081560     -0.01325490      0.00097028       8
H               0.48255400     18.34640000     23.74910000     -0.02807670      0.01296730     -0.00407072       1
H              21.50870000     18.69560000     22.34160000      0.01597380      0.00119523      0.00045809       1
O               9.16077000      0.43820800     19.54930000      0.02959990      0.03029630     -0.06005960       8
H              10.70220000      1.47585000     19.87090000     -0.00998306     -0.01417160      0.01246640       1
H               9.00555000      0.96385700     17.68170000     -0.00131245     -0.02161710      0.04713280       1
O               7.54963000     20.97960000      9.01581000     -0.00574350      0.01859020     -0.00345835       8
H               7.62519000     19.16620000      8.51243000     -0.01880280      0.03039560     -0.00901599       1
H               6.88246000     22.58290000      7.94288000      0.01363390     -0.04061610      0.01794380       1
O               0.20439300      8.32459000      2.84821000      0.02542660      0.01256170      0.00439636       8
H              22.97450000      9.87506000      2.61259000      0.01548670     -0.01422980      0.00509386       1
H               1.99093000      8.85048000      3.27288000     -0.04797160     -0.00591588     -0.01328090       1
O              15.58250000     20.82390000     17.40270000      0.01154630     -0.03075340     -0.02475730       8
H              13.87310000     21.52080000     17.14690000      0.02939340     -0.01545670     -0.00741129       1
H              16.18440000     19.35440000     16.27260000     -0.03267640      0.04742020      0.03017570       1
O              10.53440000     10.28470000      0.98181200     -0.09455000      0.04837280     -0.02626930       8
H              10.46390000     11.06430000      2.71916000      0.01655060      0.00247547     -0.02037690       1
H               8.53876000     10.67880000      0.28623200      0.08788950     -0.00981122      0.02668250       1
O              21.15940000      5.51760000     20.90870000     -0.21421000     -0.13837500      0.14293200       8
H              22.23610000      6.40376000     20.30330000      0.19042200      0.16436400     -0.11744600       1
H              20.12920000      6.60677000     22.09010000      0.02380270     -0.02291770     -0.02772580       1
O              20.88410000     17.60200000     12.95680000     -0.03696520     -0.00009454     -0.03502290       8
H              20.59380000     17.92250000     14.72450000     -0.01130540     -0.00590999      0.00067520       1
H              19.33280000     16.77940000     12.13240000      0.03502090      0.00834737      0.04077750       1
O               5.32730000      8.96305000     14.88370000      0.02707300      0.00219730     -0.04400390       8
H               4.18857000      9.63643000     15.99520000     -0.03822320      0.02068600      0.03728680       1
H               5.94258000      7.50920000     15.69240000     -0.00023412     -0.03007290      0.00427019       1
O               5.31972000      3.22023000     16.40060000     -0.01564870      0.06265450      0.01895860       8
H               6.12533000      3.43323000     18.02480000     -0.00558284     -0.00528403      0.00027746       1
H               5.54867000      1.61200000     15.81350000      0.01541270     -0.04802910     -0.02203900       1
O               1.61818000      4.21980000      9.07271000     -0.13301300      0.03441340      0.02749950       8
H               0.18590200      4.09977000      7.66695000      0.02667560      0.00233539      0.02094980       1
H               0.65921800      3.55155000     10.67800000      0.03006730      0.00855403     -0.03764860       1
O              19.25430000      1.22342000     16.06480000     -0.00976486      0.01622060      0.03423860       8
H              18.19250000      2.72958000     16.05330000      0.01270980     -0.00349473     -0.00678094       1
H              19.73640000      0.91027500     14.40320000     -0.00496831     -0.00354740     -0.03268060       1
O              13.34350000      3.43335000      5.45752000      0.01320270     -0.06953720     -0.03328480       8
H              13.63220000      4.55144000      6.69426000      0.02628100      0.05697580      0.06094790       1
H              11.92510000      4.02527000      4.64200000     -0.03651390      0.02508250     -0.03096740       1
O              19.90590000     12.01760000     10.40220000      0.02211690      0.02455900      0.00258220       8
H              19.22710000     11.54510000      8.79032000      0.00403643      0.00582036     -0.00989282       1
H              21.14520000     13.42580000     10.19730000     -0.02926830     -0.03527080      0.00193974       1
O              12.60420000     20.12950000      9.45882000      0.11279800     -0.01851930     -0.04573060       8
H              12.25600000     19.47830000      7.78911000      0.00899659      0.00207788     -0.00031440       1
H              11.07870000     20.57640000      9.94120000     -0.10934600      0.03937630      0.03605280       1
O              20.70040000     10.44780000     18.11310000     -0.05462360      0.05296630      0.01414490       8
H              20.94060000     10.94650000     16.40000000      0.01831490      0.00157358     -0.01118510       1
H              19.27850000     11.78070000     18.52290000      0.04695170     -0.04376270      0.00216511       1
O               6.70299000      5.20406000     21.22250000      0.05181660      0.04738320      0.00498525       8
H               7.96726000      6.61031000     20.51770000     -0.04351790     -0.05210060      0.02703780       1
H               7.34997000      4.83440000     22.96780000     -0.01090450      0.01204970     -0.02973130       1
O               8.86188000      6.75313000      3.21232000     -0.06805520     -0.01330910      0.05216160       8
H               7.40230000      7.68541000      4.29820000      0.05522600     -0.03480470     -0.03323390       1
H               9.47831000      7.90748000      1.94024000      0.00481601      0.00324454      0.00543791       1
O              17.65510000      7.37185000     15.05650000     -0.02048280     -0.03618420     -0.04988550       8
H              18.49400000      8.82906000     15.59960000      0.00770307      0.01797550      0.00807474       1
H              17.23480000      7.57971000     13.22180000      0.00576307      0.00164124      0.04326370       1
O              13.24040000     18.32420000      3.76609000      0.06597240      0.03969910     -0.01644680       8
H              15.03710000     17.67570000      3.71828000     -0.03579070      0.00597830      0.00122148       1
H              13.67940000     20.15160000      3.26078000     -0.02678480     -0.04272580      0.01903180       1
O               4.53733000     23.06540000     21.14100000     -0.05414250      0.00086369      0.01592220       8
H               5.63753000     24.42800000     21.45730000      0.02331850      0.01198330     -0.00797962       1
H               2.96711000     -0.02198700     22.01960000      0.02203070     -0.01227800     -0.00703313       1
O               5.52894000      8.98796000      6.82320000      0.03679270      0.01572880     -0.04525300       8
H               4.68146000      8.19688000      8.09155000     -0.02756020     -0.02782950      0.04390670       1
H               4.37299000     10.06890000      5.97695000     -0.00527543      0.01527910     -0.00096766       1
O               6.41234000     15.74390000      8.55132000     -0.02971880      0.01703510      0.02890330       8
H               6.79760000     15.02320000      6.94870000     -0.00674652      0.00126386     -0.01087540       1
H               4.60093000     16.29160000      8.67695000      0.03427460     -0.01317920     -0.01273270       1
O              18.06180000     10.52200000      0.72209000      0.09854150     -0.00974697      0.10285500       8
H              18.24790000     11.69020000     23.27770000      0.00678105      0.07138460     -0.06970460       1
H              16.66190000      9.73432000      0.35013600     -0.10245300     -0.06504670     -0.02842090       1
O               0.86893000     16.86670000      8.91635000     -0.01632720     -0.07523240      0.00713512       8
H              -0.33344300     17.98610000      8.14234000     -0.00620805      0.00954911     -0.00215780       1
H              23.76510000     15.08430000      9.13073000      0.02963970      0.06805080     -0.00650398       1
O              13.70080000      2.81638000     21.48260000      0.04432370     -0.00343997     -0.01974220       8
H              13.84930000      4.68517000     21.78090000     -0.00233106     -0.03200250      0.00377110       1
H              15.65110000      2.15645000     21.15130000     -0.08501540      0.04215500      0.03234530       1
O              21.49490000     21.37920000      7.40277000     -0.04608340      0.00012865     -0.04144590       8
H              20.31200000     20.47620000      6.18969000      0.02915080      0.01228630      0.02323310       1
H              19.01310000     22.79550000      9.01811000      0.02697640     -0.00299489     -0.01631520       1
O              10.50370000     17.55310000     22.32220000      0.03526700      0.06700590      0.04897270       8
H               9.61781000     18.99100000     21.46330000      0.02263870     -0.02439800      0.02119100       1
H              11.81350000     18.51520000     23.85810000     -0.06380490     -0.04677010     -0.07109900       1
O               2.34407000     20.23650000     17.21590000     -0.07761250      0.04008750     -0.06454820       8
H               2.91058000     21.52140000     18.38260000      0.00339334      0.00682651      0.00467908       1
H               0.90008300     21.25120000     15.88680000      0.07644760     -0.03927100      0.05725550       1
O               1.98740000      8.50303000     19.53410000      0.01044110     -0.02750910      0.02800590       8
H               0.69197200      9.49497000     20.34720000     -0.00037447     -0.00372276     -0.00401872       1
H               2.44319000      7.08470000     20.74440000     -0.00379739      0.03709320     -0.02555570       1
O               1.39629000     14.23700000     15.45680000     -0.01652690      0.05296690      0.04864440       8
H               1.50286000     15.06030000     17.28850000     -0.02325870     -0.02450400     -0.06778230       1
H               0.69859000     15.66990000     14.39160000      0.01647700     -0.03178590      0.02138630       1
O              12.37190000      8.00638000     12.47420000     -0.03745550     -0.04022130     -0.02406380       8
H              11.39740000      6.28111000     12.01240000      0.02873110      0.05758780      0.00469857       1
H              11.61370000      9.29463000     11.30510000      0.01007920     -0.01445510      0.01648270       1
O               5.91025000     11.90750000     21.65130000      0.04480370     -0.03087700     -0.06379530       8
H               4.57534000     11.30670000     20.46650000      0.01432250     -0.00131153      0.02610940       1
H               7.52187000     11.23930000     20.59430000     -0.05221390      0.02876640      0.03397740       1
O               6.52855000     22.35780000     14.01750000     -0.04041840     -0.01249570      0.06341650       8
H               5.04913000     21.84930000     15.24760000      0.04716600      0.00259778     -0.04680990       1
H               6.32042000     21.38440000     12.49400000      0.00084082      0.00146305     -0.01594050       1
O               4.04698000     18.32800000     23.09930000      0.00591601      0.00051784     -0.04660820       8
H               3.84788000     17.01660000     21.72800000      0.01311370      0.03650080      0.02714770       1
H               4.78603000     19.95800000     22.27290000     -0.02343060     -0.04247280      0.01799080       1
O               9.61169000      9.66437000     17.60580000      0.02951940      0.00164828     -0.02843560       8
H               8.42314000      9.72998000     16.17540000      0.00834573      0.00327023      0.01239230       1
H              11.29520000      9.61560000     16.68070000     -0.03519930     -0.00659487      0.01858200       1
O               1.11661000      2.12904000      0.24230600      0.06773690     -0.06533900      0.06041010       8
H               0.28859000      3.08070000     22.93380000     -0.06409450      0.07357040     -0.07972800       1
H               0.32423100      2.40618000      1.86376000     -0.00247421     -0.01308220      0.01294750       1
O              10.11830000      3.73179000     10.27940000      0.01061420      0.01476370     -0.09403040       8
H              10.46600000      3.92793000      7.97794000     -0.01427160     -0.01571890      0.10831000       1
H               8.25984000      3.54640000     10.08030000      0.00672708     -0.01052540     -0.00489625       1
O              12.55900000      1.06704000     14.44470000     -0.01771760      0.01788750     -0.05733290       8
H              13.24770000      2.54743000     15.20780000      0.00177236      0.00479201      0.00535561       1
H              11.92980000      1.78698000     12.67200000      0.00849090     -0.02250970      0.04931300       1
O              17.29690000     22.91660000      2.53641000      0.09123520     -0.07596520      0.05147880       8
H              15.81800000     23.49500000      2.17738000     -0.14717100      0.04454650     -0.01958800       1
H              18.17860000      0.39360300      1.70384000      0.05049660      0.03169580     -0.02656510       1
O              17.07750000     12.12260000      5.84045000      0.08076120     -0.09884420      0.00784939       8
H              17.05910000     12.06070000      4.09903000     -0.00529459     -0.00469945     -0.04871570       1
H              16.33740000     13.46690000      6.41462000     -0.07109370      0.09827630      0.03972860       1
O              22.38160000      1.55781000      4.66934000      0.02144850     -0.02831800      0.03121100       8
H              21.77400000     -0.37546100      5.85201000      0.01817250      0.01323820     -0.00003839       1
H              20.98850000      2.61912000      4.60183000     -0.03253150      0.01784470     -0.00191066       1
O               7.66939000     16.77580000      3.61182000     -0.00023801     -0.05576450     -0.03409750       8
H               7.62618000     16.36700000      1.75243000      0.00519325      0.02608080      0.03999790       1
H               7.50777000     18.50040000      3.93835000     -0.00548427      0.03019910     -0.00903422       1
O              14.22730000      7.77756000     22.37390000      0.05064570     -0.06561640      0.02497900       8
H              13.08840000      8.86236000     23.05870000     -0.05412860      0.04816280      0.01221920       1
H              14.54570000      7.85202000     20.67080000      0.00145683      0.02602490     -0.04617940       1
O              11.95530000     12.83630000      5.20710000     -0.01349870     -0.02023220      0.02525400       8
H              11.83510000     14.64230000      5.24313000     -0.01050680      0.00150228     -0.00167775       1
H              11.21700000     12.18110000      6.85177000      0.01016430      0.01900620     -0.02443710       1
O              18.62420000     22.60470000     10.86190000     -0.02165210     -0.05084840      0.01295990       8
H              19.49320000     20.69940000     11.00070000     -0.02112400      0.05164170      0.00522632       1
H              16.71560000     22.58540000     11.00640000      0.02538820     -0.00790485      0.00255138       1
O               6.04351000      2.10793000      7.71308000     -0.01705340      0.04870190     -0.07751790       8
H               6.06620000      3.14688000      5.81260000      0.00128269     -0.05404040      0.08899930       1
H               2.60200000      2.92432000      8.44486000      0.09149430     -0.06783380     -0.02457600       1
O              21.00340000     19.90110000     18.62360000      0.02693720     -0.06999020     -0.00677895       8
H              22.83420000     20.12240000     18.57470000     -0.01520800      0.01945720      0.00325378       1
H              19.74390000     21.08770000     18.73080000     -0.01314300      0.04943380     -0.00296222       1
O              19.16270000     17.37350000      3.88455000     -0.09821830     -0.01916070      0.10526100       8
H              20.29930000     17.32350000      2.68565000      0.08741690      0.00161804     -0.09141770       1
H              18.97620000     15.67710000      4.58963000      0.00730371      0.01600970     -0.00955984       1
O               5.90964000     22.81470000      2.90412000      0.17618400     -0.01089910      0.19605200       8
H               6.92134000     22.95850000      1.64504000      0.08839870      0.00818203     -0.10777400       1
H               4.47253000     22.79340000      2.41620000     -0.26620900     -0.00304586     -0.08690040       1
O              12.63840000     15.91490000     11.69570000     -0.04734860     -0.13858500      0.09650130       8
H              13.26550000     17.29520000     11.13000000      0.04997130      0.12666900     -0.06194930       1
H              12.47600000     18.06160000     15.35740000     -0.08786870      0.02397610      0.00322804       1
