192
TotEnergy=-1103.85736000 cutoff=-1.00000000 nneightol=1.20000000 pbc="T T T" Lattice="24.51183000       0.00000000       0.00000000      -0.00000100      24.51183000       0.00000000      -0.00000100      -0.00000100      24.51183000" Properties=species:S:1:pos:R:3:force:R:3:Z:I:1
O               1.08344000      4.93827000     12.20480000     -0.01610520     -0.00224360     -0.00176888       8
H              -0.67181400      5.02838000     11.64040000      0.00191942      0.00988975     -0.00102291       1
H               0.95575300      3.38852000     13.15740000      0.01881160     -0.00190876      0.00055556       1
O              15.22870000     -0.14716300     -0.51255100     -0.00319137      0.00237964     -0.00243540       8
H              16.64500000     -0.80118400      0.44631900     -0.00047984      0.00691232      0.00281309       1
H              14.40480000      1.16533000      0.43708800      0.00830868      0.00028648      0.00424350       1
O              20.93880000     10.05750000     14.74860000     -0.00215693     -0.00237971     -0.00160220       8
H              20.60270000      9.37845000     16.41010000      0.00969247      0.01155060      0.00060395       1
H              22.38540000     11.23120000     14.76300000     -0.00921829     -0.00827271      0.00609659       1
O              12.04270000      4.70809000     20.46030000      0.00739799     -0.00443266      0.00013349       8
H              13.72440000      4.13938000     19.97690000     -0.00452734      0.00488875     -0.00580722       1
H              12.48860000      5.94348000     21.70900000     -0.00736863     -0.00163555      0.00090663       1
O               5.36052000      7.48951000     16.68710000      0.00042384      0.00737372     -0.00464755       8
H               6.83903000      8.43899000     16.17290000      0.00573792      0.00359272      0.00553803       1
H               4.12749000      8.04363000     15.47940000     -0.00611747     -0.00733491      0.00012917       1
O               5.96464000      8.24516000      2.91270000     -0.00147477      0.00090469      0.00340492       8
H               4.13381000      8.25408000      2.91842000      0.00500922      0.00188729      0.00450432       1
H               6.40104000      7.95794000      4.66768000      0.00174426     -0.00039955     -0.00619567       1
O              21.03040000      9.46930000     20.28310000      0.00046638      0.00319721      0.00641247       8
H              20.49060000      9.06868000     21.98000000     -0.00004588     -0.01082370     -0.00503242       1
H              22.86360000      9.48434000     20.38490000     -0.00193244      0.00554523     -0.00323381       1
O              22.80100000     19.29670000     17.21550000     -0.00461487     -0.00238890     -0.00383461       8
H              23.11390000     20.73930000     18.30020000      0.00027877     -0.00546008     -0.00490453       1
H              24.35090000     18.80770000     16.33490000     -0.00025875      0.00438476      0.00762381       1
O               0.82586300      7.48301000      3.85210000      0.00937362      0.01859940      0.00102466       8
H               0.75684500      6.05780000      2.70066000     -0.01771210      0.00346242      0.00969166       1
H              -0.16042400      7.54182000      5.37758000     -0.00108532     -0.02158300     -0.01024150       1
O              11.96810000     21.79110000      7.88141000      0.00349385      0.00262509      0.00432345       8
H              11.50350000     20.17420000      8.60677000      0.00793954      0.00934106     -0.00264478       1
H              13.26240000     22.50530000      8.97473000      0.00032451     -0.01422220      0.00375529       1
O              19.64740000      2.66046000      4.39848000     -0.00956422     -0.00890876      0.00588946       8
H              21.02220000      1.52865000      4.00369000     -0.00240598      0.00370659      0.00875597       1
H              18.43880000      1.65527000      5.38343000      0.01640510      0.00380584     -0.01363560       1
O               3.04584000     14.67470000     23.43580000      0.01305320      0.00248901     -0.00448178       8
H               3.56395000     15.81030000     22.09720000     -0.00628159     -0.00074097      0.00570345       1
H               4.63094000     13.77420000     23.75460000     -0.00027380      0.00402641      0.00194531       1
O               0.53872600     20.30260000      7.72279000      0.00568490     -0.00159799      0.00194727       8
H              -0.47238800     18.81200000      7.43259000     -0.00185211      0.00349081     -0.00510208       1
H               2.22158000     19.66900000      8.11582000     -0.00843604      0.00136923      0.00150914       1
O               8.59951000     -0.09162600      3.02584000     -0.00903808     -0.01174160     -0.00240539       8
H               7.39690000      0.29201600      1.67709000      0.00463159      0.00496806      0.01086930       1
H               7.68495000     -0.89973100      4.39306000      0.00115277      0.01117400     -0.01125660       1
O               8.72847000      6.50855000      7.24579000     -0.00329320     -0.00774652      0.00223446       8
H               9.93168000      6.78547000      8.61834000     -0.00052783      0.00405700     -0.00093885       1
H               8.36301000      4.73217000      7.25793000      0.00498304     -0.00039673     -0.00249885       1
O              21.43690000     16.53090000      5.56758000      0.00953591     -0.00932964     -0.00852130       8
H              22.60470000     15.23000000      4.96001000     -0.00243532      0.00526113      0.00731910       1
H              20.64290000     16.94980000      3.96638000     -0.00445167      0.00140696      0.00187873       1
O              11.75030000      7.74180000     11.13160000      0.00288331      0.00251809      0.00239615       8
H              10.86530000      8.71457000     12.40330000      0.00023688     -0.00523641      0.00096897       1
H              13.31700000      8.69249000     10.94170000     -0.00477767      0.00134960      0.00143328       1
O              18.66870000      7.57341000      5.68844000     -0.00087665      0.00769143      0.00028665       8
H              17.33490000      7.17935000      6.86161000      0.00470480     -0.00575417     -0.00565961       1
H              19.12890000      6.03513000      4.79736000     -0.00389136      0.00045598      0.01264920       1
O              15.20120000     11.39530000     12.13040000     -0.00087457      0.00020918      0.00079895       8
H              15.26980000     11.43750000     13.96450000      0.00176151      0.00707933     -0.01256130       1
H              16.20930000     12.75670000     11.43590000      0.00772351     -0.00453466      0.00926257       1
O              13.86320000     23.75030000     18.73690000      0.02799420      0.00359271      0.01615570       8
H              14.96030000     24.66480000     19.91250000     -0.00234232     -0.01956870     -0.00817940       1
H              12.51170000     24.90000000     18.78500000     -0.02360140      0.00455450     -0.01156360       1
O              20.31510000     22.77880000      0.34609500      0.00050558     -0.00023511      0.00312925       8
H              20.35100000     22.99840000     -1.49485000      0.00964523      0.00540727      0.00715237       1
H              21.65030000     23.79430000      1.09391000     -0.00552037     -0.01212210     -0.01095330       1
O               7.86658000     13.03440000      0.45589300      0.00701757     -0.00178840      0.00567757       8
H               9.57602000     12.40860000      0.11177000     -0.00146453      0.00570910     -0.00884303       1
H               7.61983000     12.28410000      2.08243000     -0.01017630     -0.00330097      0.00340753       1
O               4.40733000     17.59640000     10.04920000      0.00538023     -0.00173286     -0.00110688       8
H               6.20866000     17.61390000      9.98076000      0.00472680      0.00205767     -0.00133362       1
H               3.96275000     15.80040000      9.80136000     -0.00245991      0.00304489     -0.00487088       1
O              12.83670000      6.36464000      1.38007000     -0.00733141     -0.00142836     -0.00062607       8
H              11.02430000      6.56530000      1.36384000      0.00258759     -0.00070745      0.00244872       1
H              13.27390000      6.38465000      3.14048000      0.00120749      0.00103517     -0.00216504       1
O              16.13010000     23.14080000     11.38510000      0.00292352      0.00073500     -0.00153051       8
H              17.66310000     22.27720000     11.86790000     -0.00110871      0.00035452     -0.00368392       1
H              16.73660000     24.75310000     10.78070000     -0.00531125      0.00080450      0.00283023       1
O              15.36720000      3.84194000      9.35848000      0.00472310      0.00054300     -0.00151827       8
H              13.98190000      4.44751000     10.37370000      0.00094189     -0.00121688     -0.00445661       1
H              14.70460000      3.39795000      7.71043000     -0.00828779      0.00159457      0.00369201       1
O               0.53992500     12.96090000     13.91160000      0.00367026      0.04280700     -0.00245088       8
H               1.29323000     12.00610000     12.60410000      0.00599161     -0.00854029     -0.01542400       1
H               0.97566800     14.74840000     13.40930000     -0.00791849     -0.03332790      0.01960700       1
O              13.23870000     16.10090000      8.67324000     -0.00380766      0.00816609     -0.00153969       8
H              13.54850000     14.35520000      9.02754000      0.00703984     -0.00041145     -0.00853114       1
H              13.90970000     16.51990000      7.01735000     -0.00319121     -0.00905048     -0.00231813       1
O               9.55284000     10.66070000     15.75060000     -0.00380992     -0.00364243     -0.00287277       8
H               9.98843000     12.08540000     14.66500000      0.00400787      0.00183779      0.00794197       1
H              10.87940000     10.38100000     16.98750000      0.00041972      0.00352903     -0.01205390       1
O              12.91330000      1.89040000      4.95293000      0.00515557     -0.01254880      0.00907831       8
H              11.37210000      2.06929000      3.98640000      0.00115468     -0.00286044      0.00291313       1
H              12.79230000      0.15649800      5.60155000     -0.00075018      0.01435470     -0.01078960       1
O               6.56894000     16.27160000     17.95000000      0.00344735      0.00040026      0.00297436       8
H               7.37965000     17.13700000     19.36500000     -0.00287283     -0.00027610      0.00134936       1
H               7.77367000     14.96530000     17.60090000     -0.00348437     -0.00400129     -0.00533996       1
O               2.66939000     18.17800000     14.80640000     -0.00332142     -0.00291488      0.00076616       8
H               4.04375000     17.53380000     15.84470000      0.00073272      0.00097060     -0.00254365       1
H               3.32350000     18.57830000     13.14250000      0.00145133     -0.00385933      0.00467336       1
O               3.95128000      8.12872000      9.21052000     -0.02971210     -0.01292780      0.01559330       8
H               5.43135000      7.09921000      9.31108000      0.00580159      0.00027638     -0.00221350       1
H               2.59635000      7.18153000     10.17160000      0.03021220      0.01198040     -0.01291000       1
O              21.05210000      2.49977000     15.89780000     -0.00168319      0.00090521     -0.00707994       8
H              20.67500000      4.11897000     15.15660000      0.00289773     -0.00407447     -0.00443851       1
H              20.77300000      1.35292000     14.48880000      0.00488549     -0.00048683      0.00611035       1
O              10.66860000     15.16770000     13.07460000     -0.00089989      0.00388928     -0.02101150       8
H              11.97540000     16.27620000     13.73150000     -0.00289854      0.00191036      0.00388369       1
H              10.97160000     15.32170000     11.24320000     -0.00519416     -0.00195874      0.02133560       1
O              14.34800000     16.71440000      2.99847000     -0.00358738     -0.00603022      0.00944497       8
H              13.32610000     18.05900000      2.26132000      0.01071700      0.00098820     -0.00028656       1
H              16.07500000     16.86750000      2.42943000     -0.00581080      0.00825003     -0.00396495       1
O              17.08010000      4.04030000     19.33210000      0.00529353     -0.00018591      0.00484083       8
H              17.92470000      3.35911000     20.78410000     -0.00187591      0.00455548      0.00949115       1
H              18.49400000      4.28858000     18.22920000     -0.00412919     -0.00417431     -0.00632970       1
O              13.50840000     18.96000000     15.51410000      0.00923424      0.00089734     -0.00388290       8
H              14.21940000     20.59490000     15.04920000     -0.00584664     -0.01128020      0.00361108       1
H              14.73630000     18.17410000     16.62830000     -0.00396139      0.00914890     -0.00077304       1
O               5.77430000      2.70801000     18.68990000     -0.02754430      0.02309870      0.00882346       8
H               5.73186000      4.34378000     17.81930000     -0.01534970      0.00369743      0.01007270       1
H               7.06859000      1.99154000     17.74120000      0.03215230     -0.03100020     -0.01361390       1
O               8.86348000     17.62010000     22.32910000      0.00755379      0.00232253      0.00619369       8
H               8.69081000     16.61180000     23.83130000     -0.00808168     -0.00950187     -0.00347467       1
H              10.33180000     18.60640000     22.78550000     -0.00335059      0.00981998     -0.00381706       1
O              10.13150000      2.42548000     15.95890000     -0.00801900      0.00629785      0.00651456       8
H               9.48839000      3.18657000     14.42480000      0.00639634      0.00463314      0.01297300       1
H              10.12690000      3.61677000     17.39640000      0.00714288     -0.00147085     -0.02302840       1
O               5.68233000      2.88994000     24.15160000     -0.00146932      0.00233933     -0.00549034       8
H               5.13906000      4.43567000     24.94890000      0.00503890     -0.00171334     -0.00097829       1
H               5.58130000      3.17987000     22.32970000      0.01115250      0.00073361      0.01240460       1
O               0.73998300      5.67152000     23.58430000      0.00455907     -0.00259963      0.00074947       8
H               1.39986000      4.40172000     22.46250000     -0.00345265     -0.00260828      0.00025178       1
H               1.07983000      7.27367000     22.78420000      0.00179129      0.00262099     -0.00097843       1
O              20.67810000      5.85235000     11.85460000     -0.00170561      0.00985917     -0.00281717       8
H              20.99200000      7.45405000     12.72570000     -0.00021599      0.00371739      0.00457650       1
H              19.67130000      6.38934000     10.45320000     -0.00487485     -0.00712084     -0.00613041       1
O               0.35407100     24.21740000      4.08418000      0.00308785     -0.00994736      0.00539316       8
H               0.46750800     22.78100000      5.28683000     -0.00531083      0.01110500     -0.00951138       1
H               1.98300000     25.00810000      4.31834000     -0.00615961     -0.00180910     -0.00000257       1
O              21.59290000     23.59740000     20.02870000      0.00128808      0.00132007     -0.00335220       8
H              23.18010000     24.51060000     20.22500000     -0.00223682     -0.00269469      0.00117032       1
H              20.82440000     24.27950000     18.52540000      0.00104062      0.00567772      0.00296073       1
O              11.66480000     20.84440000      0.86736800      0.00033480     -0.00480226      0.00270883       8
H              12.75380000     22.19020000      0.24803400      0.00317587     -0.00474096     -0.00112386       1
H              10.40000000     21.69330000      1.88440000      0.00381517      0.00166779     -0.00485359       1
O               2.76053000     13.07140000      8.84433000     -0.00464619     -0.00440191     -0.01785850       8
H               1.92735000     13.16140000      7.19143000      0.00415830      0.00640164      0.00737309       1
H               3.73438000     11.52790000      8.64731000     -0.00067430     -0.00446283      0.00934406       1
O               1.79003000      0.64436600     21.40020000      0.00659726      0.00216619     -0.00302722       8
H               2.29523000      0.26581300     23.09380000     -0.00284770     -0.00297958      0.00593071       1
H               3.39821000      0.99503700     20.57800000     -0.00970472     -0.00065287     -0.00836743       1
O              17.18930000     13.42460000     21.26150000     -0.00394065      0.00270803      0.00450601       8
H              16.77150000     14.72170000     20.04310000      0.00943861     -0.00754785      0.00380949       1
H              18.75770000     12.58620000     20.86970000      0.00051150      0.00597423     -0.01022080       1
O              14.46230000      9.53654000     17.36470000      0.01176960      0.00094456     -0.00393763       8
H              15.52600000      8.50048000     16.31610000     -0.00666178     -0.00460911      0.00146778       1
H              15.45820000      9.71999000     18.86590000     -0.00114914      0.00601031      0.00534841       1
O               8.60441000     20.80020000     14.34950000      0.00512496     -0.00639988      0.00339879       8
H               9.98206000     20.28660000     15.44030000      0.00347389      0.01442610      0.00226922       1
H               8.15172000     19.12320000     13.86090000     -0.01118080     -0.00412082     -0.00630890       1
O               2.72676000     24.69870000     13.70100000      0.01178860     -0.00652644      0.01784750       8
H               4.26505000     24.22820000     12.86680000     -0.00515908      0.00075051     -0.00664910       1
H               3.23829000     24.51960000     15.45860000     -0.00935597      0.00241159     -0.00836914       1
O               8.48069000     25.16490000     10.55820000     -0.00236785      0.00559567      0.01023060       8
H               8.21666000     24.27530000     12.14130000      0.00637161     -0.00316709     -0.00700670       1
H              10.22150000     24.82700000     10.15350000     -0.00578259     -0.00446121     -0.00231899       1
O               4.78488000      1.18708000      6.72867000      0.00174489      0.00226524      0.00124951       8
H               6.07402000      0.78317700      7.96555000     -0.00194829      0.00153027      0.00416562       1
H               4.27562000      2.88516000      7.09076000     -0.00157811      0.00032627      0.00259698       1
O              18.02090000     22.18160000      5.72474000      0.00009037      0.00163771     -0.00057356       8
H              16.84270000     21.20990000      6.68220000     -0.00302469     -0.00239700      0.00303221       1
H              19.44580000     21.09670000      5.48092000      0.00112342     -0.00037987     -0.00054287       1
O               1.73878000     10.52250000     20.91160000     -0.00840060     -0.01074450      0.00190432       8
H               3.09806000     10.74940000     19.71540000     -0.00581585      0.00194840      0.00750645       1
H               1.52689000     12.05340000     21.93420000      0.01339330     -0.00279726     -0.01123850       1
O              19.27000000     15.04430000     10.56250000     -0.00354389      0.00098680     -0.00220293       8
H              20.08870000     15.68660000      9.05243000     -0.00192574     -0.00413972      0.00361984       1
H              20.50830000     14.84510000     11.86410000      0.00345379     -0.00084059     -0.00271641       1
O              21.66100000     22.73840000     12.56120000      0.00348815     -0.00103641     -0.00653928       8
H              22.39110000     21.28710000     13.38440000     -0.00305712      0.00360316      0.00527666       1
H              22.94250000     23.23320000     11.35910000     -0.00422354     -0.00258749      0.00185127       1
O              17.62930000     18.88690000     19.07890000      0.01410960     -0.00102072     -0.01112920       8
H              17.24140000     20.54410000     18.40090000      0.00200291     -0.00724838      0.00902115       1
H              19.36230000     18.52250000     18.49760000     -0.01292500      0.00774125      0.00269820       1
O              19.76020000      5.44319000     24.06790000      0.00590959     -0.01116230      0.00302826       8
H              21.28690000      4.41436000     24.24680000     -0.01504040      0.01572360      0.00027947       1
H              18.62290000      4.92060000     25.39580000      0.00788927     -0.00161353     -0.00430775       1
O               0.77315700     13.00520000      3.73767000     -0.05544650     -0.03909700      0.07899200       8
H               1.67417000     13.43740000      2.36791000      0.03966780      0.01787960     -0.06764020       1
H               0.27673000     11.20200000      3.70198000      0.01268210      0.02188990     -0.01138890       1
O              19.40400000     17.51520000      0.73259300      0.00325554      0.00518266     -0.00398723       8
H              19.04570000     16.72360000     -0.86399900     -0.00119550     -0.00264465      0.00184105       1
H              20.01870000     19.20460000      0.33236800     -0.00516248     -0.00160774      0.00408480       1
O              12.72110000     11.61730000     24.14280000      0.00214764     -0.00934723     -0.00285045       8
H              14.21300000     12.52740000     24.59140000      0.00059408      0.01171660      0.00072299       1
H              13.35150000      9.93929000     23.86030000     -0.00468374     -0.00100598      0.00448936       1
