192
TotEnergy=-1103.75504000 cutoff=-1.00000000 nneightol=1.20000000 pbc="T T T" Lattice="24.44569000       0.00000000       0.00000000      -0.00000100      24.44569000       0.00000000      -0.00000100      -0.00000100      24.44569000" Properties=species:S:1:pos:R:3:force:R:3:Z:I:1
O               1.65621000     16.58120000     18.27270000     -0.02645670      0.00209560     -0.03286230       8
H               0.48699000     16.93560000     16.82740000      0.02786080      0.00176378      0.02505290       1
H               0.74977300     15.10970000     18.91480000      0.00322014     -0.00538362      0.00478051       1
O               5.37767000      9.32675000      8.26650000      0.00115773     -0.00089824      0.00367237       8
H               3.59310000      9.46821000      7.88941000      0.01046680     -0.01162100      0.00965741       1
H               5.72759000      8.06475000      9.62364000     -0.01114010      0.01303720     -0.01722950       1
O              15.54750000      6.30453000     13.00160000     -0.01334730      0.00381398     -0.01418950       8
H              15.37340000      4.89764000     11.79330000     -0.00061056      0.01438050      0.01409020       1
H              14.40080000      7.68196000     12.50860000      0.01052410     -0.02003240      0.00043346       1
O               4.74529000      2.12779000      4.53805000     -0.01358290     -0.02065950      0.00017955       8
H               4.82439000      0.31302700      4.03865000      0.00150315      0.02331030      0.00599323       1
H               2.97929000      2.42455000      5.02891000      0.01871440     -0.00287597     -0.00319578       1
O              23.15210000     12.53140000     19.47210000     -0.00423397     -0.02042160      0.01262460       8
H              23.84790000     10.87320000     19.90210000      0.00069996      0.01448960     -0.00384887       1
H              21.55640000     12.55590000     20.40720000      0.00596800      0.00475076     -0.00772458       1
O              14.18960000      1.59621000     10.52780000     -0.01396480     -0.00837840      0.00575797       8
H              13.98180000     -0.26104100     10.63830000      0.01534320      0.00593187     -0.00579446       1
H              12.46350000      2.04883000     10.83830000     -0.00272130      0.01089590     -0.00436847       1
O              11.74310000     20.90990000     19.32400000     -0.01801600      0.07867070     -0.01970600       8
H              11.53450000     22.96870000     19.08900000      0.01364200     -0.07646810      0.00652072       1
H              10.33990000     20.25290000     18.34220000      0.00784843     -0.00008485      0.00737329       1
O              11.41830000      9.14421000     10.55800000     -0.02399050      0.00392684     -0.00252963       8
H              10.07830000      8.08972000     11.32480000      0.00803560     -0.00296485     -0.00219176       1
H              10.39780000     10.11500000      9.34727000      0.01535400     -0.00166201      0.00029312       1
O               1.43848000     18.01430000     23.60080000      0.01165190     -0.02012860     -0.00976457       8
H               2.24973000     17.29720000     22.12550000     -0.00510245      0.01252560      0.00191746       1
H               0.37125300     16.66710000     24.19570000     -0.00393814     -0.00095267      0.00862614       1
O               2.31900000     20.85680000      5.32946000     -0.00378177     -0.00474407     -0.01169380       8
H               3.70177000     19.66440000      5.21600000     -0.00678106      0.00820221     -0.00387273       1
H               1.45260000     20.95340000      3.66340000      0.01241480     -0.00177031      0.01511740       1
O               7.28851000     22.43060000      2.67314000     -0.01233920      0.00129176     -0.00216925       8
H               7.07179000     22.16710000      0.79126000      0.02291360      0.00028805      0.03558170       1
H               8.68778000     21.80460000      3.69760000     -0.01165370     -0.00147116     -0.03098100       1
O              20.30330000      6.81475000      4.91353000     -0.02394340     -0.00110614      0.01394800       8
H              20.86310000      7.87436000      3.45604000     -0.01680580     -0.00262736      0.01945200       1
H              18.56410000      7.22994000      5.62366000      0.03687620      0.00032956     -0.02148040       1
O              13.88690000     21.15070000      9.66669000      0.02848320     -0.02565260      0.00263858       8
H              14.55540000     21.32370000      7.93985000     -0.00914878      0.00697485      0.00928038       1
H              15.16680000     20.03060000     10.52180000     -0.02424530      0.01100090     -0.01007380       1
O               6.02994000     22.74900000     17.39880000      0.00796357     -0.03186700     -0.04970190       8
H               5.77862000     22.84060000     15.55480000     -0.00461075      0.01917820      0.02079860       1
H               6.83739000     21.06600000     17.28810000     -0.00701454      0.01300520      0.02128240       1
O              19.42810000      1.10302000      8.74556000     -0.01625970     -0.00095858     -0.01388770       8
H              19.38540000      0.18511300      7.13936000      0.00049632      0.00295925      0.00780515       1
H              17.71250000      1.77619000      8.89445000      0.01558430     -0.00579456      0.00379911       1
O               6.50477000      8.80179000     23.97170000      0.01118870     -0.00639200     -0.00839767       8
H               7.39035000      7.32103000     24.63860000     -0.01074890      0.00791496     -0.00410443       1
H               7.26283000      9.08795000     22.31620000     -0.00451810     -0.00526687      0.01136870       1
O              24.28040000      6.39805000      9.23043000     -0.02079040     -0.03510440     -0.03770470       8
H              23.04090000      6.49326000      7.82803000      0.00340984      0.02317630      0.01297620       1
H              24.49160000      4.57417000      8.86492000      0.01506050      0.01395980      0.02251560       1
O              24.34940000     22.18750000      0.89394600     -0.00907699     -0.01662530     -0.02950110       8
H              22.68020000     22.50600000      0.12772300      0.01216840      0.00764105      0.00937802       1
H              24.90140000     20.67470000     -0.18070400     -0.00076952      0.02035150      0.02097450       1
O              14.62560000     22.89640000      4.78600000     -0.01241390     -0.01427510      0.00480029       8
H              13.83350000     24.49150000      5.21327000      0.01574830     -0.00449860     -0.00873403       1
H              16.28790000     23.12300000      4.08669000     -0.00281372      0.01906000      0.00161144       1
O               9.80629000     11.70330000      5.98407000     -0.00652673     -0.04577830     -0.00405267       8
H              10.98040000     10.32300000      5.50288000     -0.01477680      0.02084050      0.00198695       1
H               8.17897000     10.72760000      5.96226000      0.02016480      0.02081370      0.00248573       1
O              20.20450000     22.52710000      4.15722000      0.01626130      0.01015600      0.00928368       8
H              22.10400000     22.53800000      4.03280000     -0.04546140     -0.01815080     -0.00317884       1
H              19.37770000     20.88870000      4.42885000      0.02673280     -0.00005975     -0.00007837       1
O              11.77930000     16.62110000      4.09839000     -0.00474302     -0.02220850      0.01948400       8
H              11.70720000     14.77120000      3.82157000     -0.00347161      0.02768270      0.00454518       1
H              11.14970000     16.74660000      5.84003000      0.00144679     -0.00186473     -0.02041780       1
O               7.69772000     23.24390000     22.11840000     -0.00018083      0.00495119      0.01255790       8
H               7.09542000     23.59960000     20.42280000      0.00612517     -0.01103120      0.00516406       1
H               9.24663000     22.26290000     22.07080000     -0.00640611      0.00643210     -0.01208850       1
O               8.53637000     21.18160000      9.68331000     -0.00062569      0.00374154      0.00166262       8
H              10.29330000     20.61540000      9.66038000     -0.01032560      0.00007889      0.00021020       1
H               7.38543000     19.79310000      9.41170000      0.00988027      0.00067980     -0.00283747       1
O              18.48790000     17.10410000     24.19480000     -0.00385263      0.05156690     -0.03482790       8
H              17.18700000     17.69580000     25.25790000     -0.02450140     -0.01624180      0.03437870       1
H              18.35430000     18.77810000     23.28190000      0.02224650     -0.02544950     -0.00989154       1
O              13.53110000     19.72580000     -0.11916400     -0.02556460      0.00151255      0.04893630       8
H              12.09690000     19.05760000      0.87491100      0.00803185     -0.01221500     -0.02617590       1
H              14.00810000     20.71900000      1.35548000      0.01540770      0.00969405     -0.01317190       1
O              25.29300000      1.79135000     21.19710000     -0.04340530     -0.01338590      0.00399879       8
H              23.28090000      1.50390000     21.11470000      0.07665100     -0.00234912      0.02440090       1
H              26.15330000      0.77075900     22.56600000     -0.03761720      0.01841590     -0.02834100       1
O              21.82260000      9.55499000      1.11151000      0.03576100      0.00187371     -0.03172790       8
H              21.75570000     11.35540000      0.64758300      0.00211971     -0.00542414      0.01287980       1
H              23.56810000      9.06517000      0.49403100     -0.02941220      0.00260523      0.00672268       1
O              21.17630000      3.71507000     14.95800000     -0.00029397     -0.02777250      0.00412039       8
H              21.32660000      1.81389000     14.67870000      0.01009990      0.03594130      0.00087004       1
H              22.85190000      4.42113000     15.25920000     -0.00812139     -0.00770733     -0.00488403       1
O              12.42500000      1.86551000     19.24190000      0.01486090      0.01098550     -0.00704571       8
H              12.26190000      3.59599000     18.66730000     -0.01004070     -0.00823903      0.00359729       1
H              14.24070000      1.67746000     19.06070000     -0.00443392     -0.00368474      0.00391861       1
O              11.88080000      7.64267000      2.60827000     -0.00081085     -0.00017297     -0.00328665       8
H              11.66390000      8.86868000      1.27928000     -0.00016316     -0.00780279      0.00273054       1
H              10.88690000      6.17046000      2.07908000      0.00577818      0.00475453      0.00259859       1
O               1.20547000      5.76980000     16.99080000      0.00408612      0.00001791      0.00289695       8
H               0.73383900      4.43012000     18.19130000      0.02352480      0.00919616     -0.01125830       1
H               3.03772000      5.82538000     16.56600000     -0.02637350     -0.01606450      0.01297340       1
O               7.55880000     17.73960000     18.16710000     -0.02362600     -0.01437340     -0.00363073       8
H               8.65473000     16.32020000     18.79850000     -0.02487650      0.02197080     -0.00052308       1
H               5.65648000     17.51340000     18.25150000      0.04400530     -0.01123680      0.00416458       1
O               1.55845000      7.98671000     22.38110000      0.00394235      0.04397040      0.02925940       8
H               1.12676000      6.64972000     21.34390000      0.00193295     -0.03299810     -0.01794950       1
H               3.34147000      8.00530000     22.88250000     -0.00771662     -0.00514753     -0.00385219       1
O               0.51805000      0.83909200      7.49628000     -0.00395148     -0.01315320     -0.00886475       8
H               1.34081000     -0.67888300      6.79696000     -0.00329292      0.01203250      0.00760962       1
H              -1.26378000      0.48439400      7.32867000      0.00671376      0.00524124      0.00453906       1
O               6.05770000      3.83559000     16.11390000      0.01410440      0.00754204      0.01279330       8
H               7.72487000      4.48509000     16.67530000     -0.02792320     -0.01268380      0.00358179       1
H               5.27559000      2.84022000     17.45270000      0.01464880      0.00536492     -0.00937571       1
O              15.44830000      8.48204000      6.53175000      0.00444338     -0.00018860     -0.00380390       8
H              14.50060000      7.99355000      8.01484000     -0.00152637      0.00313893     -0.00838741       1
H              14.42600000      8.14748000      5.03476000     -0.00069743     -0.00394285      0.00944723       1
O               8.18716000      2.11352000      8.74190000      0.00086992     -0.06964940      0.00984041       8
H               7.04029000      2.13861000      7.33165000     -0.00921177      0.01357030     -0.01275670       1
H               8.01551000      0.18684700      9.16014000      0.01286710      0.04853520     -0.00238535       1
O              16.29770000     16.92800000     11.80690000      0.02223870     -0.00817012     -0.00098354       8
H              15.06520000     16.10640000     12.87880000      0.01046510     -0.00615792     -0.00604837       1
H              17.94500000     15.90260000     11.68280000     -0.03441770      0.01054250      0.00794292       1
O              18.19170000     13.02560000     21.39000000     -0.00587945     -0.00365718     -0.00603228       8
H              17.51080000     12.18320000     22.83860000      0.00508149     -0.00175564     -0.00056778       1
H              18.08120000     14.81090000     21.83920000      0.00178887     -0.00265684      0.00591912       1
O              16.28870000     12.78640000     16.36130000      0.03307740     -0.00631098      0.02568580       8
H              18.06150000     12.44270000     15.93030000     -0.02098810      0.00294892     -0.00177533       1
H              16.40980000     12.62340000     18.22600000     -0.00340332      0.00221166     -0.01744040       1
O              17.21000000      2.64240000      2.51473000     -0.00050653      0.02924090     -0.00554427       8
H              18.37370000      3.92738000      3.11522000      0.01200000     -0.00855387      0.01432350       1
H              16.29790000      3.82863000      1.46385000     -0.00846456     -0.01307780     -0.00636182       1
O              17.48010000     17.85830000      4.87948000      0.00230792     -0.00492461      0.00487538       8
H              15.88850000     18.17330000      5.72203000      0.00823094     -0.01255800     -0.00582260       1
H              18.12110000     16.15550000      5.32939000     -0.01379720      0.01804390      0.00107904       1
O               1.57069000     15.05610000     12.58920000      0.01525200     -0.01662230      0.01394540       8
H               2.89279000     15.09520000     13.85970000     -0.00292958      0.01738820     -0.00235061       1
H               1.82538000     13.26440000     12.27930000     -0.01515830     -0.00315869     -0.00947684       1
O               6.33518000     16.04470000      8.42631000     -0.01054830     -0.02623640     -0.00373069       8
H               5.75841000     14.33650000      7.87944000      0.01169660      0.03240280      0.00848335       1
H               6.60164000     15.80550000     10.24930000     -0.00161804     -0.00137967     -0.01107840       1
O              20.12070000     24.79230000     23.06890000      0.01560780     -0.00146169     -0.02045430       8
H              18.90600000     24.33830000     21.71080000      0.00427601      0.00481390      0.04096730       1
H              19.53250000     25.45210000     24.69810000     -0.01817670     -0.00544703     -0.02263210       1
O              22.34780000     14.60880000      1.63008000     -0.01551330     -0.00988646      0.03244220       8
H              20.84890000     15.59370000      1.29047000      0.00026585      0.01314940     -0.02109600       1
H              21.77720000     14.11450000      3.34833000      0.02221830     -0.00371394     -0.01229210       1
O               7.58365000      5.95297000     11.66530000      0.00057203      0.00349788      0.00283532       8
H               6.51329000      5.39143000     13.07800000      0.01287840     -0.00374061     -0.02011380       1
H               8.10489000      4.50548000     10.53500000     -0.01934760      0.00448139      0.01728950       1
O              22.08670000     23.50660000     13.06500000     -0.00950709      0.00577512      0.00200845       8
H              23.48300000     22.36130000     12.73850000     -0.00809091      0.00713091     -0.01245220       1
H              21.40250000     24.21950000     11.48530000      0.00995677     -0.01504650      0.01029600       1
O              18.19560000      7.03739000     22.65780000      0.00508517     -0.00577303     -0.00695134       8
H              18.48070000      5.91749000     21.20530000      0.00323622      0.01612850      0.01287210       1
H              19.72000000      7.96616000     23.18090000     -0.00965747     -0.01396100     -0.00494938       1
O              16.92750000     21.30670000     20.85980000     -0.01184820     -0.01349820     -0.02020870       8
H              17.02900000     20.83330000     19.06420000      0.00701340      0.00204586      0.01473750       1
H              15.23760000     20.71980000     21.33190000      0.00841827      0.01116480     -0.00032379       1
O              13.53740000      8.92238000     21.54790000      0.00608471     -0.00058351      0.00049774       8
H              14.07810000     10.36370000     22.53310000     -0.00300162     -0.01057880     -0.01112340       1
H              15.04040000      7.83855000     21.33100000     -0.00684214      0.01564410      0.00938365       1
O              19.71080000     13.17880000      6.28386000      0.00145162     -0.01007060      0.01488110       8
H              20.40830000     13.69620000      7.90673000     -0.00003806      0.00135417     -0.00296574       1
H              19.06110000     11.50400000      6.69426000      0.00018053      0.01021910     -0.01105880       1
O               9.27952000      7.31626000     19.24420000      0.01908460      0.01461860      0.00525184       8
H              10.73280000      7.70226000     20.33500000     -0.00116908     -0.01494320      0.00817775       1
H               9.61275000      8.80066000     18.25820000     -0.01288550      0.00203155     -0.01843270       1
O               0.35349500     19.97280000     10.50050000      0.01609850     -0.01426610     -0.00671589       8
H               0.96148700     18.24600000     10.63240000     -0.00660864      0.00157110      0.00957508       1
H               1.33340000     20.52620000      9.06870000     -0.00713846      0.00589704     -0.00120791       1
O               7.10261000     14.74530000     13.20620000      0.01609650     -0.02139750      0.02456980       8
H               7.73191000     13.01600000     13.21420000     -0.01312490      0.00854806     -0.00970638       1
H               8.14147000     15.32730000     14.60030000     -0.00701737      0.01285320     -0.00663029       1
O              11.81310000     15.20730000     20.03980000      0.02063610      0.01466440     -0.01014440       8
H              12.81730000     16.74880000     20.30100000     -0.01638520     -0.01090530      0.00546225       1
H              12.52050000     14.65310000     18.44540000     -0.00670528     -0.00569770      0.00375342       1
O               1.73958000      9.52972000     13.32120000      0.00041801     -0.00264160      0.00824591       8
H               1.17448000      8.28751000     12.07970000      0.00000203      0.00484093      0.01159420       1
H               1.21654000      8.97498000     15.01240000     -0.00118897      0.00271950     -0.02457540       1
O              11.81000000     12.56490000     14.49940000      0.01200660     -0.00334519      0.00107068       8
H              13.62740000     12.19530000     14.92220000     -0.02571200      0.00387031     -0.00770000       1
H              11.41000000     11.75410000     12.88910000      0.01405810     -0.00056659      0.01117380       1
O               8.74987000      3.72608000      0.79347700      0.01013810      0.01968900     -0.01916950       8
H               8.25897000      3.29547000     -0.90879200      0.00647742     -0.00529116      0.00587903       1
H               7.88877000      2.56201000      1.83180000     -0.01290930     -0.01274300      0.01420330       1
O              20.57020000     13.91220000     11.76410000     -0.02180050     -0.01906140      0.00008614       8
H              20.05000000     12.24660000     12.52370000      0.01065980      0.01627630     -0.01039710       1
H              21.89870000     14.51980000     12.81100000      0.01335810      0.00360228      0.00297535       1
O              18.91210000     19.01070000     15.96990000      0.00206447      0.00142860      0.01885330       8
H              20.52880000     19.71310000     15.46900000     -0.02047420     -0.00148949     -0.01034860       1
H              17.81780000     18.50900000     14.58750000      0.01617810      0.00680038     -0.00560222       1
O              17.13840000      4.98961000     17.77250000      0.01107920     -0.01646570     -0.00036533       8
H              15.89870000      5.12358000     16.40730000      0.02106670      0.00163309      0.00348160       1
H              18.77990000      4.30019000     17.03160000     -0.02866230      0.01430890     -0.00204819       1
O              20.04810000      9.26739000     13.77350000     -0.00652664     -0.01388880     -0.00401213       8
H              18.73370000      8.03108000     14.14930000     -0.00106643      0.00919823      0.00245318       1
H              20.90940000      8.33135000     12.47460000      0.00973467      0.00291075      0.00003868       1
