192
TotEnergy=-1102.95182000 cutoff=-1.00000000 nneightol=1.20000000 pbc="T T T" Lattice="24.52751000       0.00000000       0.00000000      -0.00000100      24.52751000       0.00000000      -0.00000100      -0.00000100      24.52751000" Properties=species:S:1:pos:R:3:force:R:3:Z:I:1
O              19.20750000     19.21560000      8.58539000     -0.03399430     -0.01588410      0.02913900       8
H              20.76000000     19.00090000      7.73464000      0.01349160     -0.01744990      0.00572868       1
H              18.68170000     17.86510000      9.82826000      0.03467070      0.02170840     -0.03077430       1
O              10.67410000     -0.16546000     20.05360000      0.00880635      0.00596914     -0.02850160       8
H              11.60690000      1.36852000     19.66320000     -0.00884145     -0.01435420      0.01718920       1
H              10.47710000     -0.48319500     21.81390000      0.00528189      0.00896887      0.01437600       1
O              19.11780000     19.99220000     18.54920000     -0.02611140      0.01276520     -0.01883660       8
H              19.39150000     20.45230000     16.74020000      0.00659415      0.00384047      0.02560340       1
H              17.28410000     19.76140000     18.56370000      0.01065700     -0.01090620     -0.00346066       1
O               7.00829000     19.63610000     11.85290000     -0.02691390     -0.03305970      0.04961990       8
H               5.97159000     18.89340000     13.32650000      0.02232280      0.03511390     -0.03152080       1
H               7.37519000     17.98470000     11.21090000      0.00701413      0.00233136     -0.01088440       1
O              17.93890000      7.04398000      7.91281000     -0.04463550      0.01491100      0.06508530       8
H              16.82340000      7.70680000      9.48273000      0.03005190     -0.02771970     -0.04162670       1
H              18.22570000      8.65914000      7.18603000      0.01064690      0.01161180     -0.01963150       1
O               0.70702900     23.81610000     16.79040000      0.04583540      0.00799466      0.02920980       8
H               2.42017000      0.08745800     16.82900000     -0.01541110     -0.00562733      0.00508092       1
H               0.16798400     -0.17572600     15.18160000     -0.01137710     -0.00633665     -0.02027540       1
O               8.21824000     14.53150000      8.95244000     -0.01108340     -0.07662580      0.05196070       8
H               8.38535000     16.16250000      8.45105000      0.00485412      0.04657020     -0.05255930       1
H               7.83821000     13.18010000      7.78492000      0.01397670      0.02633400     -0.00673498       1
O              10.59550000     23.66400000      1.09656000     -0.00663803     -0.02205390     -0.01603200       8
H              12.29540000     -0.20655200      1.23235000      0.00309967      0.00780723     -0.00229157       1
H               9.36740000      0.03865700      2.05522000     -0.00161274      0.00464500      0.00594087       1
O              22.58450000      0.48084400     10.01140000      0.06195570      0.01306890      0.00276222       8
H              22.54370000      1.60296000     11.53280000      0.00039705     -0.00852608     -0.03547790       1
H              -0.04873100      0.41766800      9.45837000     -0.05996560      0.00283263      0.02630940       1
O               2.98114000     21.98630000     -0.27634200     -0.03738650      0.00766643     -0.02469860       8
H               4.14716000     21.20560000      0.86215700      0.01163790      0.00542338      0.00409684       1
H               2.34281000     23.73100000      0.07802300      0.01046400     -0.02119640      0.00507440       1
O              19.28530000     16.79430000     13.55000000     -0.00538608     -0.00626153     -0.00729093       8
H              20.24490000     15.56500000     14.53190000     -0.01448190      0.00564294      0.00245964       1
H              17.65850000     16.05100000     13.11520000      0.01155180     -0.00244588      0.00914684       1
O               5.48089000      7.97280000      5.76377000     -0.03027480     -0.02667920     -0.00975446       8
H               7.22607000      7.94951000      6.06980000      0.03531730      0.01318710      0.00668284       1
H               5.13569000      6.16277000      5.75805000     -0.00502238      0.01317710      0.01165640       1
O              18.21840000     21.45420000     23.41220000     -0.25661200     -0.00186913     -0.18318200       8
H              18.46840000     21.30680000     21.45870000      0.00460695      0.00146917      0.05154940       1
H              19.57120000     21.54510000     -0.44847700      0.26710000      0.01135910      0.13186900       1
O               8.36437000      5.48332000     16.44370000     -0.01628010     -0.03310800     -0.01630810       8
H               9.87320000      5.23986000     15.32410000      0.00618848      0.00691430      0.00882512       1
H               8.89030000      6.01593000     18.05830000      0.00798513      0.01767650      0.01747480       1
O              20.05670000     24.14190000      5.41331000     -0.00296983      0.01405240      0.00844115       8
H              21.10240000     22.97700000      4.48960000      0.00742758     -0.00351563      0.00866224       1
H              20.73260000      0.14888500      7.08519000     -0.00046814     -0.01559460     -0.02119860       1
O               7.89069000      8.31417000     21.39790000     -0.00906126      0.04124400     -0.02093080       8
H               7.54271000      6.84905000     22.38440000     -0.02126890      0.00049432      0.01169170       1
H               6.42326000      9.50275000     21.14370000      0.03054450     -0.04194660      0.01412340       1
O              15.76530000     14.35680000      8.98209000      0.03456080     -0.00403657     -0.00125492       8
H              15.23920000     15.96470000      8.23002000      0.00217531     -0.02195470     -0.00607625       1
H              17.44900000     13.83290000      8.20468000     -0.04470710      0.01720460      0.00426829       1
O              10.14040000      1.80614000      8.86534000     -0.07875190      0.07158100      0.04244070       8
H               9.71614000      0.14085300      9.44115000      0.00340738     -0.00184695      0.00802280       1
H               8.68101000      3.18128000      9.96953000      0.07078060     -0.06727630     -0.05078390       1
O              22.73040000     20.61010000      1.95784000      0.02223510     -0.00871824     -0.00421549       8
H              22.95300000     19.23400000      3.26428000      0.01029220      0.01984110     -0.04119180       1
H              -0.28876900     20.87370000      0.74927000     -0.02996110     -0.01454310      0.04918790       1
O               7.55385000     18.83320000     19.44620000     -0.01731620     -0.05708760     -0.02058970       8
H               2.14957000     17.96370000     20.61170000      0.08229270     -0.06194800     -0.00955936       1
H               7.85677000     17.29850000     18.26540000     -0.00495970      0.04987100      0.03714400       1
O              11.97200000     13.66080000     17.07710000     -0.01874510     -0.02391780     -0.01071110       8
H              12.42260000     12.12150000     18.03720000      0.00775603      0.03697090     -0.00890920       1
H              12.45380000     15.41570000     17.44170000      0.00611644     -0.01746410      0.01300900       1
O              10.99960000      9.54234000      6.80183000      0.03429770     -0.00003634     -0.01476680       8
H              11.92930000     11.01770000      7.37860000     -0.01096840     -0.00443918      0.00367756       1
H              12.18750000      8.97068000      5.44608000     -0.03006030      0.00685837      0.01730550       1
O               5.72278000      5.27041000      1.04734000      0.00273343     -0.00678759      0.00157647       8
H               6.28841000      3.67879000      1.76534000      0.00149599      0.00254064     -0.00035337       1
H               5.29364000      6.22865000      2.54824000      0.00394933      0.00475580     -0.01364130       1
O               5.71551000      5.95267000     11.46790000      0.02944390     -0.01295250      0.02246050       8
H               4.21671000      6.83422000     11.25730000     -0.03320860      0.01447370     -0.01417980       1
H               6.03135000      6.28337000     13.25300000      0.00672913     -0.00787643     -0.00811832       1
O              15.34600000     12.96440000      1.63896000      0.00591119     -0.01755550     -0.01004860       8
H              15.81140000     11.85140000      0.25202700      0.00421267      0.00500685      0.00196589       1
H              15.84020000     14.57140000      1.01356000     -0.00403168      0.01766290     -0.00291774       1
O              11.66770000     21.86790000     13.83800000      0.15072500     -0.15700900     -0.11115600       8
H              10.53520000     22.66660000     14.49400000     -0.17757400      0.17070300      0.12772700       1
H              10.40920000     20.54780000     13.47130000      0.02392590     -0.00991711     -0.01596630       1
O               0.19663400      8.89122000     12.90050000      0.02001720      0.02062420     -0.00287300       8
H               1.45855000      9.67871000     11.80440000     -0.01427240     -0.00089282      0.00200357       1
H               0.32328900      9.95683000     14.39240000     -0.00429096     -0.01435020     -0.00601283       1
O              12.56740000      4.99499000     14.11540000      0.03260150     -0.02245680      0.03331120       8
H              13.56600000      3.85884000     15.29860000     -0.02347090      0.02431350     -0.02868380       1
H              13.48260000      6.58187000     14.23120000     -0.00497465     -0.00138738     -0.00981239       1
O              15.42450000      4.07438000     19.46250000     -0.01815370     -0.00089274     -0.00080237       8
H              15.54690000      2.72415000     20.68720000      0.00937506      0.01040930     -0.00358861       1
H              17.05130000      4.60401000     18.89070000      0.00942817     -0.00797775      0.00397017       1
O              22.65080000      7.74514000     23.66750000      0.03573460     -0.06251880      0.03637370       8
H              21.62970000      8.97741000     22.98540000     -0.04759690      0.02589060     -0.01123470       1
H              21.79200000      6.30007000      0.06436100      0.00239831      0.04154470     -0.01778810       1
O              21.08380000     21.97390000     14.23200000     -0.00797351     -0.10032900      0.01844810       8
H              20.81930000     23.42190000     13.41850000     -0.01572520      0.07630160     -0.04192610       1
H              20.30290000     20.70390000     13.08100000      0.01733700      0.01437710      0.01593690       1
O              23.85720000      7.35055000      6.49289000      0.03070220      0.03377810      0.01133020       8
H               0.75693700      8.50968000      6.00188000     -0.03101950     -0.02259940      0.01155810       1
H              23.28080000      8.18586000      8.05127000      0.00084445     -0.01132460     -0.02117480       1
O              13.68670000      9.44540000     19.81320000     -0.01025790      0.00207835      0.02150080       8
H              13.84760000      7.62713000     20.14450000     -0.00609401      0.01723050      0.00249780       1
H              12.82650000     10.30160000     21.25400000      0.01731710     -0.02742740     -0.02121210       1
O               2.60674000     16.83230000     14.06280000     -0.01895160      0.00367799      0.00580552       8
H               3.79873000     15.98040000     15.15020000      0.00272336     -0.00133978     -0.00300562       1
H               1.05032000     17.20730000     14.96510000      0.01404330     -0.00315599     -0.00312875       1
O              18.80260000     12.16030000      5.31500000      0.01919280     -0.00435362     -0.00704238       8
H              18.02250000     12.22380000      3.66450000     -0.02099580      0.00176081      0.00530327       1
H              20.52220000     12.47140000      4.82100000      0.00834978      0.00300664      0.01224220       1
O               6.88556000      0.95477300      4.09027000     -0.02454100      0.01615600     -0.03259290       8
H               8.09839000      0.89324600      5.34548000      0.03424820      0.00348495      0.03838000       1
H               5.56950000     -0.06738700      4.75498000     -0.01170310     -0.01501690      0.00461302       1
O               1.45314000     19.07530000     19.45770000     -0.06743310      0.05905200      0.02818110       8
H               1.56122000     19.59970000     21.41830000     -0.03089140      0.06629230     -0.00735165       1
H               1.83475000     20.78550000     18.71990000      0.01992790     -0.00634059     -0.01047120       1
O              15.27830000      9.44058000     11.92630000      0.05380190     -0.00128304      0.02304370       8
H              16.91550000      9.68012000     13.19340000     -0.05413090     -0.00062027     -0.04594710       1
H              15.35120000     10.47040000     10.38650000      0.00091247      0.00619835      0.02956250       1
O              18.36190000     11.34280000     21.85520000      0.02300200      0.03574480      0.02238510       8
H              18.94760000     12.86320000     20.90430000      0.00624777      0.00223883      0.00704320       1
H              17.95160000     10.28430000     20.54030000     -0.02028350     -0.03249000     -0.02418020       1
O              20.77420000      5.20981000     12.03490000     -0.03569590     -0.01110580     -0.00158516       8
H              19.36680000      5.34399000     10.79330000      0.02450640     -0.00165507      0.01486290       1
H              22.17430000      5.77320000     11.09970000      0.01513670      0.00890949     -0.00658146       1
O              18.87920000      9.46651000     15.80800000     -0.02042900     -0.03608150     -0.07814160       8
H              20.54340000      8.91362000     15.46050000      0.01191790      0.00416592      0.01815300       1
H              18.25740000     10.29480000     17.17120000      0.00410868      0.03347690      0.04827830       1
O              20.73520000     15.02920000     18.86110000      0.04207620     -0.02226800      0.00313957       8
H              20.42320000     16.81500000     18.73840000     -0.00084123     -0.00136372      0.00455235       1
H              24.57800000     14.43090000     19.59720000     -0.01738550     -0.00739610      0.02087180       1
O               7.40615000     19.52500000      0.49008900     -0.01122050     -0.05921930     -0.02519840       8
H               8.57820000     20.80740000      0.78914400      0.02746380      0.03279450     -0.00258311       1
H               7.91329000     18.63430000     23.38210000     -0.01370640      0.02514430      0.01444870       1
O               4.80548000     21.46300000      7.35417000      0.03027040      0.03346740      0.06643900       8
H               6.42487000     20.52160000      7.29270000     -0.01838550      0.00072607     -0.01839300       1
H               5.16422000     22.33390000      9.11956000     -0.02178840     -0.02374230     -0.05485980       1
O              15.02470000      1.10109000      0.56043700      0.02684550     -0.00708664      0.01373150       8
H              15.37850000      1.28048000      2.39569000      0.00273330      0.00800366     -0.02122730       1
H              16.47510000      0.16645800     -0.16809900     -0.01870130      0.00421905      0.01485000       1
O              13.20920000     18.56780000     17.52190000      0.02126650      0.00027822      0.03172370       8
H              13.04310000     19.86200000     16.30990000     -0.00889163      0.01500780     -0.03065090       1
H              13.07240000     19.57870000     19.03670000     -0.01103210     -0.01306560      0.00255470       1
O               0.98177100     18.10920000      8.65658000      0.00306769      0.00835834      0.03641200       8
H               1.90546000     19.77420000      8.68390000     -0.00496656     -0.03655480      0.00261421       1
H               0.91719200     17.25060000     10.34530000      0.00781298      0.03068820     -0.02830880       1
O               3.72163000      0.75051300     11.98030000     -0.00335733      0.00508089     -0.02424790       8
H               4.56212000      0.02091600     13.39410000      0.01244010      0.00038518      0.01344210       1
H               4.78784000      2.15345000     11.44740000     -0.01051820     -0.00462285      0.01000210       1
O              23.93030000     15.51580000      4.89032000      0.00312160      0.01673380      0.01650060       8
H               0.01150400     16.52810000      6.37660000     -0.01109750     -0.00983277     -0.01913440       1
H               0.86115300     14.51170000      4.51454000     -0.00448438     -0.00820977     -0.00928142       1
O               1.47000000     11.31460000      2.55903000     -0.05652390     -0.01292840     -0.04185610       8
H               2.54634000     10.04420000      3.10794000      0.02978040     -0.02105500      0.01199420       1
H               0.09448600     10.28120000      1.64528000      0.03332450      0.02880050      0.02183940       1
O              14.45080000      3.17093000      5.76921000     -0.09160350      0.04231450      0.00982116       8
H              12.37980000      3.64377000      5.75426000      0.09612030     -0.02694490      0.00349702       1
H              14.99880000      4.37074000      7.10378000      0.00044079     -0.01932000     -0.02340870       1
O              21.68930000      3.52195000      2.53355000      0.04095530      0.04262010      0.05193220       8
H              21.22350000      2.00087000      3.45316000     -0.01395020     -0.00537326     -0.00413995       1
H              22.71910000      4.39257000      4.00865000     -0.03747850     -0.01841870     -0.04985320       1
O               8.83350000     18.84850000      5.14566000      0.01040440     -0.02417430     -0.04873620       8
H              10.65320000     18.69690000      5.52749000     -0.01875980      0.00248942     -0.00749805       1
H               8.50979000     18.37900000      3.09098000      0.00731049      0.02170780      0.07265150       1
O              14.48340000     18.52100000     -0.02627000     -0.04867080      0.02768140      0.00835627       8
H              15.78960000     19.76350000     -0.22499400      0.02199690     -0.00178441     -0.00403054       1
H              13.03640000     19.74680000     24.58390000      0.01877260     -0.03290190     -0.00063537       1
O               2.61349000     12.19600000      8.55884000      0.05550950     -0.02033900     -0.00909081       8
H               4.47830000     12.19180000      8.18395000     -0.04121750     -0.01574990      0.01005830       1
H               2.47011000     13.95560000      8.53891000     -0.01734610      0.03110790      0.00397460       1
O               2.03755000     13.77950000     20.22150000     -0.07656880     -0.01255490     -0.02624200       8
H               2.22503000     12.89990000     18.58290000      0.02540280      0.00779078      0.00932456       1
H               2.83390000     15.40210000     20.45500000      0.03990460     -0.01403320     -0.01423890       1
O              11.41120000      9.90151000      1.64583000     -0.13778900     -0.21312700      0.03032730       8
H              12.26870000     11.16990000      1.41287000      0.12320400      0.20041800     -0.04004540       1
H              10.03060000      9.63570000      0.49227500      0.00961421      0.00910704      0.00125500       1
O              22.10130000      3.09713000     19.40690000      0.02222540     -0.00325828      0.03626440       8
H              22.81250000      3.34653000     21.14410000     -0.01653870     -0.00487736     -0.03341500       1
H              22.93530000      1.52163000     18.90800000     -0.00569387      0.01177280     -0.00340897       1
O              14.37550000     18.65310000      6.12646000      0.01532260     -0.00244399     -0.02243250       8
H              16.02010000     18.97060000      6.97495000     -0.02071230      0.01035960     -0.01549110       1
H              14.63550000     19.08450000      4.32529000      0.00064187     -0.01191300      0.02442060       1
O               1.24077000      2.34358000      0.11002500      0.03313560      0.00187347     -0.02112250       8
H              -0.12816400      3.59055000      0.19108900      0.02002320     -0.01457790      0.00903881       1
H               2.92394000      3.04168000     -0.41636100     -0.04086730      0.00456238      0.01170770       1
O               6.39153000      0.78666300     16.73550000      0.01359040      0.07304510     -0.02549190       8
H               7.64800000      2.85197000     16.97490000     -0.04437530     -0.05180690     -0.01147630       1
H               6.57429000     -0.31263500     18.10020000      0.02013030     -0.01577460      0.02500240       1
O               0.28593200      8.31452000     18.44900000     -0.00780779     -0.01173700      0.02088150       8
H               0.36880900      8.53412000     20.24950000      0.00897870      0.01706870      0.00633565       1
H              -0.63884600      6.74111000     18.70570000     -0.00030527     -0.00349423     -0.02727860       1
O               7.27948000     14.56170000     14.76900000      0.01924240     -0.02671020     -0.00558857       8
H               8.56841000     13.54800000     15.70840000     -0.00766460      0.02260600     -0.00326099       1
H               7.92929000     14.32000000     13.05150000     -0.01109220      0.00281985      0.00970893       1
O              15.80180000     22.71390000      8.52070000     -0.07625240     -0.00094490      0.10172900       8
H              17.11970000     22.29850000      9.61578000      0.01554410     -0.00571227      0.01607080       1
H              16.58700000     23.01270000      7.10531000      0.05479360      0.02781480     -0.10682400       1
