192
TotEnergy=-1103.75605000 cutoff=-1.00000000 nneightol=1.20000000 pbc="T T T" Lattice="23.85911000       0.00000000       0.00000000      -0.00000100      23.85911000       0.00000000      -0.00000100      -0.00000100      23.85911000" Properties=species:S:1:pos:R:3:force:R:3:Z:I:1
O              14.52250000     24.19640000      2.20771000     -0.00215829     -0.00260362     -0.00388561       8
H              13.19910000     23.39480000      1.18987000      0.00172413     -0.00279029      0.00309890       1
H              14.50780000     23.27320000      3.79170000      0.00780010      0.00126334     -0.00183270       1
O               7.89202000     12.16470000      0.59832000     -0.00321235     -0.00093755      0.00192212       8
H               7.10517000     13.73870000      1.10107000      0.00687791      0.00394306      0.00187571       1
H               6.81870000     10.94550000      1.43306000      0.00219394      0.00106682     -0.01120900       1
O               6.24773000     20.88140000     19.05500000     -0.00225339      0.00608267     -0.00058320       8
H               5.49937000     21.27330000     17.41740000     -0.00226921      0.00172318      0.00668525       1
H               7.08399000     22.42220000     19.50550000      0.00294162      0.00283387      0.00005015       1
O               1.60449000      3.22384000      5.66677000      0.00471825      0.00484410      0.00264373       8
H               0.81008700      1.79053000      4.84165000     -0.00056197      0.00793139      0.00746849       1
H               2.86192000      3.63134000      4.42314000      0.00350074     -0.00141228     -0.00019028       1
O              18.73140000     24.18400000     11.33250000     -0.00561833     -0.00055420     -0.00020095       8
H              18.71410000     22.66300000     10.35100000     -0.00299230     -0.00159535      0.00197621       1
H              17.00450000     24.71120000     11.34600000     -0.00392933      0.00181222      0.00271272       1
O               7.52823000     21.02990000      3.63433000     -0.00125344     -0.00001441      0.00029726       8
H               6.37577000     22.28840000      2.98979000     -0.00146842      0.00190854      0.00503965       1
H               7.52176000     21.41730000      5.56119000      0.00330402      0.00030237      0.00780138       1
O              12.56610000      8.56366000     13.76930000      0.00086577      0.00412031      0.00514750       8
H              12.94890000      9.90794000     12.62510000     -0.00450256     -0.00678600     -0.00978692       1
H              14.06530000      7.52584000     13.62640000      0.00089675      0.00285151      0.00492101       1
O               3.30568000      7.58405000      8.78332000      0.00262534      0.00090241     -0.00108966       8
H               2.85191000      5.89434000      8.26876000     -0.00240445     -0.00065058      0.00050178       1
H               4.29084000      7.49000000     10.30470000     -0.00175761     -0.00359292      0.00059349       1
O               5.51709000     10.37000000     18.32430000      0.00036348     -0.00225896     -0.00079748       8
H               6.51281000     11.41940000     19.43960000     -0.00207807      0.00017800     -0.00186430       1
H               5.36473000      8.77569000     19.17470000     -0.00142640      0.00293645      0.01169810       1
O              23.32300000      6.61014000     14.15260000      0.00154388     -0.00821066      0.00462273       8
H              23.35030000      5.19735000     15.30820000     -0.00030884      0.00216510     -0.00501871       1
H              22.26460000      6.11627000     12.73380000      0.00627881      0.00043143     -0.00016312       1
O              15.84650000     12.86770000     22.34390000     -0.00150926     -0.00130825      0.00081586       8
H              16.98980000     12.27000000     21.06750000      0.00546662      0.00405117      0.00643387       1
H              14.20150000     13.08630000     21.57970000      0.00345079     -0.00173561     -0.00523511       1
O               5.11076000      1.60724000      2.11721000      0.00223094     -0.00509069     -0.00220328       8
H               6.70667000      2.02062000      1.34817000     -0.00525560      0.00404712     -0.00668377       1
H               4.11894000      0.78264800      0.83359000     -0.00306630      0.00795987     -0.00273789       1
O               1.51305000     21.79390000     21.92550000     -0.02732860     -0.00283316     -0.00475775       8
H               3.17377000     21.74250000     21.17010000     -0.00816174     -0.00014545     -0.01773230       1
H               0.12872500     21.92030000     20.64080000      0.03851310     -0.00095145      0.02037600       1
O              21.74340000      6.75295000      1.01946000      0.00302156     -0.00133125     -0.00414505       8
H              20.22740000      6.18343000      0.19006000     -0.00196770      0.00023055      0.00705915       1
H              22.59240000      5.21725000      1.53900000     -0.00810312      0.00246390      0.00275538       1
O              19.80170000     16.85770000      1.70308000     -0.00167798      0.00125861      0.00285568       8
H              21.18360000     15.68390000      1.51012000     -0.00378580     -0.00336237     -0.00124799       1
H              20.52810000     18.24080000      2.62427000      0.00279759     -0.00195116      0.00301816       1
O               6.52592000      3.86014000     18.21690000      0.00041723      0.00246157     -0.00340222       8
H               7.16708000      5.06505000     17.00070000     -0.00682001      0.00844270     -0.00045009       1
H               4.79073000      4.31972000     18.53890000     -0.00113805     -0.00789775      0.00084061       1
O              21.16780000     12.55070000     20.68060000      0.00251933      0.00393722      0.00018904       8
H              22.22620000     12.68920000     19.21000000      0.00116854     -0.00681925     -0.00008618       1
H              22.24440000     11.88210000     21.98680000     -0.00526734      0.00151658     -0.00059815       1
O               1.23633000     15.98770000      9.63890000     -0.00268814      0.00169836     -0.00053196       8
H               0.30957200     14.44900000      9.26521000      0.00809090     -0.00800002      0.00194800       1
H               2.55016000     15.48310000     10.76620000     -0.00266673     -0.00100281      0.00455209       1
O              22.56280000     11.79070000      2.55840000     -0.00456022      0.00230419     -0.00178761       8
H              21.82970000     10.11520000      2.45397000      0.00307578     -0.00147369     -0.00357877       1
H              22.71390000     12.09030000      4.34618000      0.00710118     -0.00338844     -0.00144221       1
O               3.32357000      8.32037000     -0.52129400      0.00290805      0.00174464     -0.00001260       8
H               2.38343000      9.77534000      0.04300600     -0.00153083     -0.00480027      0.00136047       1
H               4.18850000      7.77840000      0.97703100     -0.00179369     -0.00018287      0.00079619       1
O              13.51050000     17.78210000      6.27371000     -0.00475612     -0.00330996      0.00514153       8
H              13.85860000     16.55440000      4.93198000      0.00196074      0.00495573      0.00012319       1
H              11.73430000     17.84890000      6.57563000     -0.00531376     -0.00067307     -0.00083452       1
O               6.03986000     16.27360000      3.34320000      0.00364834      0.00076205     -0.00092949       8
H               4.52666000     16.40480000      2.28828000      0.00041197     -0.00298268      0.00180145       1
H               6.44896000     18.06940000      3.63888000      0.00583644     -0.00103311     -0.00591241       1
O              19.42930000     13.35230000     14.05270000      0.00367287      0.00180354      0.00053782       8
H              17.90090000     13.46040000     15.06590000      0.00225136     -0.00216642      0.00005678       1
H              20.44980000     12.12440000     14.90490000      0.00140722     -0.00054175     -0.00223576       1
O              22.35420000      1.44140000      2.10934000     -0.00048061     -0.00083917     -0.00242030       8
H              22.05550000      0.50634200      0.58524000     -0.00069424     -0.00225976     -0.00001609       1
H              21.41950000      0.58579300      3.42665000      0.00146146      0.00179058     -0.00170602       1
O              15.43670000     14.29810000      3.37521000     -0.00017443      0.00295097      0.00105101       8
H              17.01830000     14.86480000      4.06578000      0.00235443     -0.00293592     -0.00265801       1
H              15.77800000     14.04620000      1.58029000     -0.00024779     -0.00388755     -0.00002742       1
O              12.08110000      1.15754000      8.67921000      0.00182133      0.00634654      0.00994742       8
H              10.63760000      1.97450000      7.92401000      0.00732422      0.00005175     -0.00570707       1
H              11.49150000      0.83307200     10.35570000     -0.00276898     -0.00288814      0.00436651       1
O              19.60830000     18.73570000     13.17400000      0.01283300      0.01137670     -0.00754086       8
H              20.35590000     17.08500000     13.23520000     -0.00597816     -0.00679187      0.00412266       1
H              20.97860000     19.75700000     12.40160000     -0.00827560     -0.00811922      0.00571416       1
O              11.29400000      7.30828000      0.64149900      0.00250718      0.00669331     -0.00206616       8
H               9.81309000      6.53413000     -0.08596800      0.00582654     -0.00144178      0.00163125       1
H              10.85180000      8.87631000      1.42437000     -0.00478597      0.00341527     -0.00195833       1
O               0.96777600      4.37626000     20.37490000      0.00405605      0.00096426     -0.00300633       8
H               1.17318000      5.51726000     21.78140000      0.00108994      0.00229028     -0.00334677       1
H              -0.83376100      4.06680000     20.25290000      0.00402649      0.00134160     -0.00090684       1
O               2.84349000     15.11870000     14.85560000     -0.00528120     -0.01678460     -0.00376981       8
H               1.71297000     13.57150000     14.80940000      0.01731370      0.02285160      0.00077758       1
H               3.30045000     15.20230000     16.62050000      0.00302997      0.00593672      0.00067969       1
O               3.49504000     23.34750000     14.91530000     -0.00146279     -0.00019502     -0.00154829       8
H               2.03098000     24.31550000     15.40680000      0.00113316     -0.00472301      0.00319426       1
H               3.77357000     23.85450000     13.14980000      0.00061032      0.00081602      0.00161902       1
O              14.91270000     18.62730000     14.91600000     -0.00623979      0.00339108     -0.00920515       8
H              16.32420000     19.17380000     13.89030000      0.00722790     -0.00002885      0.00575207       1
H              15.20130000     16.82880000     14.99370000     -0.00606209      0.00438577      0.00597488       1
O               9.89299000     20.62670000     14.53300000     -0.00483060     -0.00330023     -0.00742138       8
H               8.95717000     22.13130000     14.06770000      0.00265511      0.00293430      0.00018163       1
H              11.64920000     21.07200000     14.32320000      0.00001920     -0.00936659     -0.00118161       1
O              10.83700000     22.08420000     23.49720000     -0.00167270     -0.00295268     -0.00286917       8
H              11.36970000     20.84550000     22.25550000     -0.00317665     -0.00456965      0.00016498       1
H               9.63929000     21.35350000     24.69460000      0.00429776     -0.00272014      0.00266747       1
O              17.66260000      7.47800000     14.43970000     -0.00024285     -0.00139478     -0.00068139       8
H              18.71300000      7.15567000     12.98090000     -0.00342201     -0.00124065      0.00149254       1
H              18.38150000      6.41415000     15.71420000      0.00057330      0.00041397     -0.00093013       1
O              11.96300000     18.51780000     19.43400000      0.00220059      0.00326211      0.00034820       8
H              13.64820000     18.30930000     18.74340000     -0.00301806      0.00196082      0.00398079       1
H              11.08230000     19.40330000     18.10700000     -0.00331403     -0.00332537      0.00120986       1
O              11.93410000     11.48610000      5.69445000     -0.00605978     -0.00283829     -0.00751450       8
H              10.22940000     11.89100000      6.06004000     -0.00086756      0.00548168      0.00485800       1
H              12.79440000     12.99760000      5.11102000      0.00421113     -0.00928983     -0.00177894       1
O              21.70940000      1.01558000     15.51730000      0.00474888     -0.00086359      0.00325013       8
H              20.45920000      1.69695000     16.66380000      0.00496395     -0.00157311      0.00255280       1
H              20.88980000     -0.32612500     14.61460000      0.00028386      0.00432224     -0.00087624       1
O               9.51911000      1.98360000     14.23130000      0.00534899      0.00050617     -0.00107837       8
H               8.28931000      2.54318000     15.46200000     -0.00296139     -0.00780754     -0.00284465       1
H               9.87010000      3.45971000     13.24440000     -0.00276929      0.00263316      0.00041083       1
O              20.72150000     22.44810000      6.22862000      0.00494069      0.00105097     -0.00694202       8
H              20.88890000     22.17580000      8.01347000      0.01192960      0.00452125     -0.00371615       1
H              18.91550000     22.27050000      5.90990000      0.00061471     -0.00285051      0.00619838       1
O              19.76350000      3.47027000     19.56250000     -0.00498394      0.00065416      0.00071182       8
H              18.65380000      4.89349000     19.67720000     -0.00306733     -0.00139343      0.00981705       1
H              19.20020000      2.17743000     20.77730000      0.00018795      0.00125985     -0.00773725       1
O              23.70620000     11.21730000      7.96264000      0.01699620     -0.00851156      0.00159980       8
H              21.90390000     11.16020000      8.16086000     -0.01028980     -0.01114910      0.00866559       1
H              24.58390000      9.59391000      8.42367000     -0.01890080      0.02714340     -0.00585482       1
O              18.86920000     23.04220000     22.18620000      0.00008966      0.00294005      0.00249120       8
H              18.80900000     21.27510000     21.56940000     -0.00225463      0.00396685     -0.00253103       1
H              17.60250000     23.15280000     23.48700000     -0.00080518      0.00042656      0.00279102       1
O              18.39380000     18.26580000     20.94730000     -0.00226084      0.00332736     -0.00118119       8
H              19.88470000     17.42780000     20.34790000     -0.00192298     -0.00329056     -0.00117110       1
H              18.32000000     17.73430000     22.71480000      0.00474210     -0.00521992     -0.00471114       1
O              -0.49549700     20.72870000     10.71760000     -0.00162067      0.00211023      0.00031555       8
H               0.86823100     21.52580000     11.62190000     -0.00020929      0.00486744     -0.00597836       1
H               0.15354000     19.09910000     10.18500000      0.00312690     -0.00351668      0.00306478       1
O               7.68433000     21.89800000      8.46111000     -0.00021326     -0.01263510     -0.01263400       8
H               7.70299000     16.06290000     10.91970000      0.01097190     -0.01258550     -0.00908436       1
H               9.46409000     22.21380000      8.37936000     -0.00462771      0.00074644      0.00287710       1
O              14.25440000      8.07756000      8.41072000      0.00127776     -0.00281542      0.00987298       8
H              13.71590000      6.49543000      7.66401000      0.00550668      0.00025282     -0.00049202       1
H              13.13570000      9.31993000      7.64424000      0.00870771      0.00001393     -0.00263941       1
O               0.62036400     10.89330000     16.30850000     -0.00059013      0.00192699     -0.00537607       8
H               0.04782200      9.34063000     15.45350000      0.00266619      0.00176945      0.00213780       1
H               2.36151000     10.59820000     16.79490000     -0.00430718      0.00005301      0.00617915       1
O              16.00040000     21.86700000      6.83168000     -0.00007752      0.00264457      0.00195027       8
H              15.05190000     20.26690000      6.90358000     -0.00163776      0.00050899     -0.00326543       1
H              15.25430000     23.07150000      7.95578000     -0.01103020      0.00082954     -0.00543480       1
O              18.45100000     11.87620000      8.93635000      0.00069087     -0.00252281     -0.00005659       8
H              17.37400000     10.40900000      8.78368000     -0.00326546      0.00247133     -0.00226900       1
H              18.37940000     12.39360000     10.69270000      0.00504639     -0.00185865     -0.00066189       1
O              16.24420000      5.33419000      0.06172000     -0.00003558      0.00002063     -0.00641116       8
H              15.56990000      3.65350000     -0.01814900      0.00340556     -0.00048945      0.00483942       1
H              14.81150000      6.32383000      0.61408000      0.00357661      0.00099584     -0.01059840       1
O               7.31039000     17.22070000     12.25270000     -0.00978170      0.00912331      0.01817310       8
H               6.00040000     16.67130000     13.42870000     -0.00640480     -0.00734388      0.00191201       1
H               8.63574000     18.41640000     12.97670000      0.00499287      0.01073810      0.00328999       1
O               5.44274000      9.88618000      4.40409000     -0.00004700     -0.00265150      0.00176579       8
H               6.91182000     10.85070000      4.80480000     -0.00287442     -0.00241730      0.00565024       1
H               4.72335000      9.31867000      5.98748000     -0.00084981     -0.00139658      0.00036970       1
O              11.11380000     13.07880000     20.27380000      0.00089276      0.00144095      0.00076810       8
H              10.67030000     14.80720000     19.89040000      0.00389132      0.00242268     -0.00007795       1
H              10.79290000     12.89730000     22.06000000     -0.01273670     -0.00462383     -0.00293104       1
O               3.54170000      0.40380600      9.96886000      0.00916174      0.00206010      0.00262744       8
H               5.11473000     -0.35057200      9.26044000      0.00430190     -0.00147623      0.00122940       1
H               3.23108000      1.90998000      9.01056000     -0.00520557     -0.00630028     -0.00469918       1
O               4.59392000     15.97440000     20.07840000     -0.00056687     -0.00718683      0.00161114       8
H               3.25697000     15.26830000     21.07510000     -0.00033977     -0.00071148      0.00334910       1
H               5.26156000     17.28630000     21.14180000      0.00038827      0.00092868     -0.00906197       1
O              12.93820000      4.57798000      4.81161000     -0.00266062     -0.00077400      0.00078307       8
H              13.11850000      5.98517000      3.68598000     -0.00756089     -0.00019604      0.00275087       1
H              13.18250000      3.14763000      3.69047000      0.00509898     -0.00134862      0.00643806       1
O               1.92459000     17.08180000      0.75341100     -0.00206184      0.00254536      0.00113917       8
H               1.28034000     17.37930000      2.45286000     -0.00615692      0.00213225     -0.00116971       1
H               1.92980000     18.74970000     -0.00348700     -0.00613118      0.00104991     -0.00331919       1
O              14.81260000     13.46240000     16.06970000      0.00042566      0.00306305     -0.00109807       8
H              14.30700000     12.49290000     17.52060000     -0.00540393      0.00147294     -0.00200586       1
H              14.02520000     12.67940000     14.64610000     -0.00217111     -0.00541512      0.00496495       1
O               7.91691000     14.87880000      7.78871000      0.00041885      0.00633243     -0.00009002       8
H               6.88845000     16.37940000      7.81584000     -0.00513599      0.00491501     -0.00561128       1
H               7.80445000     14.59710000      5.97151000     -0.00556439      0.00423256      0.00290527       1
O              23.53050000     18.16060000      5.23486000     -0.00089703      0.00181668     -0.00489145       8
H              23.03350000     19.66540000      6.14033000     -0.00018083      0.00150362     -0.00735937       1
H              23.38920000     16.79610000      6.40217000      0.00543462      0.00043424      0.00122135       1
O              20.36790000      5.15431000     10.24070000     -0.00319164     -0.00037238      0.00084803       8
H              20.09460000      3.36083000     10.55950000      0.00024079      0.00242585     -0.00475783       1
H              19.10120000      5.69023000      9.05869000      0.00169252     -0.00147021     -0.00270796       1
O               7.51427000      7.37044000     14.56080000     -0.00077580      0.00071166     -0.00026904       8
H               6.24037000      8.29480000     15.47130000      0.00212798      0.00628662     -0.00283263       1
H               9.05546000      8.22543000     15.04790000      0.00274396     -0.00276886     -0.00901107       1
O               9.22720000      2.93327000     22.24890000      0.00903312      0.00185676     -0.00522512       8
H              10.20030000      1.59952000     23.00620000      0.00189970     -0.00421903     -0.00137838       1
H               9.65380000      2.82659000     20.46450000     -0.01226510      0.00458211      0.01454240       1
