192
TotEnergy=-1103.47928000 cutoff=-1.00000000 nneightol=1.20000000 pbc="T T T" Lattice="24.13785000       0.00000000       0.00000000      -0.00000100      24.13785000       0.00000000      -0.00000100      -0.00000100      24.13785000" Properties=species:S:1:pos:R:3:force:R:3:Z:I:1
O               5.04207000     17.01320000      9.87315000      0.00667066     -0.00554232     -0.00305006       8
H               3.87524000     17.48860000      8.54320000     -0.00037874      0.00163591      0.00100622       1
H               4.03059000     16.34510000     11.27370000      0.00878390     -0.00033555     -0.00174284       1
O              23.23440000     14.31800000     22.87780000     -0.00063269      0.00043707      0.00551567       8
H              23.49550000     12.52590000     23.20030000      0.00176093      0.00362743     -0.00278958       1
H              24.49210000     15.18530000     23.86290000      0.00022604      0.00096241     -0.00246840       1
O               7.95411000      1.30535000     13.67100000      0.00470727     -0.00296342     -0.00068584       8
H               6.25754000      0.75153800     13.27290000     -0.00358220      0.00183296      0.00095529       1
H               7.72604000      2.17361000     15.27300000     -0.00214304      0.00318455      0.00151834       1
O              21.20750000     14.32260000     18.06370000      0.00154045     -0.00283520      0.00388402       8
H              19.66890000     14.79680000     18.92230000      0.00529693      0.00588533     -0.00081907       1
H              22.43190000     14.54250000     19.41370000     -0.00284025     -0.00142156      0.00171818       1
O               8.41918000     19.12610000     15.40310000     -0.00092626     -0.00398029      0.00076032       8
H               9.91640000     19.69640000     14.48480000     -0.00359524      0.00328751      0.00187494       1
H               6.97100000     19.48120000     14.36430000      0.00597217     -0.00228962     -0.00140859       1
O              13.64370000     20.08420000      7.06591000      0.00288432      0.00329852      0.00181916       8
H              15.21830000     19.20870000      6.84219000     -0.00249564     -0.00176218      0.00155739       1
H              13.97100000     21.78500000      6.43162000     -0.00314717     -0.00230657     -0.00156304       1
O               6.14745000      6.97704000      7.66013000      0.01025920      0.00431194     -0.00200097       8
H               6.90113000      8.59175000      7.89172000     -0.00063134      0.00887962     -0.00710220       1
H               7.47700000      5.82947000      8.18026000      0.00071256     -0.00254740      0.00242944       1
O               2.62895000      1.22090000     13.59050000     -0.00070272      0.00213686     -0.00197768       8
H               2.03828000      2.70264000     12.70950000      0.00093628     -0.00393941      0.00186903       1
H               1.24469000      0.02498300     13.60390000      0.00256408      0.00111098     -0.00187688       1
O              10.23570000     15.62850000      8.90928000     -0.00616397      0.01203170      0.00844629       8
H              11.88620000     15.20170000      8.18458000      0.01868570     -0.00581855     -0.00607315       1
H               8.67801000     16.10660000      8.03073000      0.00570295     -0.00549563     -0.00342283       1
O              21.23130000     22.29420000     18.49930000      0.00103051      0.00295989      0.00591703       8
H              22.56170000     23.10080000     19.51350000     -0.01412760      0.00531142      0.00002562       1
H              22.07710000     22.01430000     16.87660000     -0.01315650      0.00151380     -0.00017822       1
O               4.41270000     22.55210000     22.53210000     -0.00319552      0.00324915     -0.00278227       8
H               3.21760000     23.93130000     22.48910000     -0.00037402     -0.00376045      0.00094552       1
H               5.81899000     23.14630000     21.49860000     -0.00248190     -0.00696992      0.00126027       1
O              13.15290000     11.32150000     22.10250000     -0.00057187     -0.00968933     -0.00289418       8
H              13.80020000     11.97100000     23.66220000     -0.00527821      0.00610398      0.00288914       1
H              14.25890000      9.94601000     21.70380000      0.00306614      0.00232772     -0.00643449       1
O              15.06210000      9.10855000     14.64400000     -0.04235810      0.01402990     -0.03007040       8
H              13.50930000     10.15620000     14.46100000      0.02928300     -0.00375419      0.00243228       1
H              14.28950000      7.41445000     14.35710000      0.00475907     -0.00087889      0.01524530       1
O              15.77150000      5.17812000      2.86562000      0.00708442     -0.00174641     -0.01120560       8
H              16.10250000      6.10793000      4.43060000     -0.00220386      0.00441021      0.00474373       1
H              16.98190000      5.89716000      1.69156000     -0.00338305      0.00561452     -0.00269973       1
O               0.89030200      5.24854000     17.11690000      0.00157880      0.00265801     -0.00020629       8
H               2.56007000      4.79789000     16.52890000     -0.00000011      0.00243680      0.00479991       1
H               0.52856000      6.89814000     16.43640000     -0.00003285     -0.00120465      0.00133220       1
O               5.74595000      8.78179000     22.91470000     -0.00506460     -0.00366468     -0.00381495       8
H               3.91832000      8.85623000     22.84790000      0.00152411     -0.00617567      0.00376096       1
H               6.30851000      7.03192000     22.75040000     -0.00777180      0.00266642      0.00107565       1
O              13.41900000     14.46280000      1.91754000      0.00666458      0.00856208      0.00770325       8
H              14.15180000     16.09060000      1.53381000     -0.00245327     -0.00039829      0.00195534       1
H              11.87800000     14.78590000      2.81628000      0.00131169      0.00153252     -0.00167106       1
O               8.97450000     22.98170000      6.80937000     -0.00246845      0.00150778      0.01867020       8
H               9.52280000     21.28000000      7.14329000      0.00264031      0.00755435      0.00102576       1
H               8.56806000     22.95030000      5.05355000     -0.00199353     -0.00421811     -0.00895424       1
O               9.88804000      7.69563000     19.59820000     -0.00631364     -0.00159922     -0.00083432       8
H              10.55110000      7.33492000     21.27560000      0.00306406      0.00355188     -0.00701387       1
H               8.73845000      9.08780000     19.79860000      0.00794762      0.00304760      0.00169179       1
O              15.52740000     13.60120000      9.97503000     -0.01771750      0.00098016     -0.00172046       8
H               9.93747000     14.66000000     10.38750000      0.00343996      0.00215005      0.01244180       1
H              15.85220000     11.83090000      9.61821000     -0.00098606      0.01510910      0.00330004       1
O               8.43148000      9.94175000      3.03935000     -0.00024630      0.00038646      0.00144675       8
H               8.62839000      8.19817000      3.51995000     -0.00054252      0.00731889     -0.00062026       1
H               7.22906000      9.90008000      1.65640000      0.00441505     -0.00877792      0.00421846       1
O               2.04158000      3.60812000      2.94930000      0.00189880      0.00063431     -0.00165018       8
H               1.03656000      4.94607000      3.69530000      0.00700243     -0.00453825     -0.00364691       1
H               2.79959000      2.67039000      4.32426000     -0.00921740     -0.00039710     -0.00223098       1
O               6.37226000      4.31370000     17.84310000      0.00017428     -0.00167377     -0.00079305       8
H               6.01219000      3.21995000     19.26050000     -0.00078806      0.00360662     -0.00402567       1
H               7.37691000      5.65145000     18.61430000      0.00262480     -0.00451337     -0.00502603       1
O              21.80890000     11.48470000      7.64910000     -0.00633205     -0.00234552      0.00023583       8
H              21.08940000     10.66450000      9.14091000     -0.00379376      0.00336164     -0.00091593       1
H              20.38610000     11.56540000      6.50508000      0.00106010      0.00182081      0.00019568       1
O              23.95390000      1.88279000     21.33450000      0.00105020     -0.00804717      0.00102957       8
H              23.17500000      2.62071000     22.79110000      0.00264665      0.00063501      0.00134981       1
H              24.60810000      3.22598000     20.29500000     -0.00338066      0.00472721     -0.00302354       1
O               9.37853000      3.46242000      9.40850000     -0.00593295      0.00072311     -0.00367099       8
H               8.30978000      2.29415000      8.52678000      0.00882937     -0.01352090     -0.00039584       1
H               9.20488000      3.06689000     11.19390000     -0.00722110     -0.00761398      0.00466255       1
O              20.95340000      2.13280000     14.97150000     -0.01606280     -0.01340720      0.03010460       8
H              22.42800000      2.54843000     16.00810000     -0.01559510      0.00128707     -0.00393155       1
H              18.74380000      0.55795600     17.92520000      0.05475130      0.00945920     -0.03551750       1
O               7.12464000     21.08610000      2.69742000      0.04109890     -0.01128830      0.03421380       8
H               7.83625000     19.42090000      2.52735000      0.00149661      0.00674592     -0.00384232       1
H               5.82577000     21.17050000      1.54205000     -0.03692560      0.00778900     -0.03697390       1
O               3.22026000     23.93460000      6.89560000      0.00117872     -0.00138487     -0.00050958       8
H               4.82767000     23.11700000      6.64020000      0.00186223      0.00214030      0.00295479       1
H               2.05941000     22.52170000      6.93042000      0.00134367      0.00212623     -0.00213307       1
O              21.27020000      4.59793000     10.53480000     -0.00005494      0.01863900     -0.02659340       8
H              21.28450000      3.62986000     12.06220000     -0.00136138     -0.01451230      0.02116880       1
H              22.97770000      4.70810000      9.86569000     -0.00624198      0.00012428      0.00623113       1
O              24.34520000      9.33692000     -0.21689300     -0.00243194     -0.00176607     -0.00047979       8
H              23.84790000      9.47425000      1.54042000      0.00795986     -0.00818868      0.00040289       1
H              23.24810000      8.06215000     -0.90288600     -0.00074385      0.00287782      0.00263655       1
O              17.72860000      0.58065700      0.14775100      0.00352100      0.00186544     -0.00045387       8
H              17.36510000      2.20297000      0.91912600      0.00385044     -0.00340383     -0.00437052       1
H              18.14960000      0.96541400     -1.57802000     -0.00290615      0.00314424      0.00373415       1
O               8.00708000     23.38790000     18.83600000      0.00129185     -0.00330869      0.00067219       8
H               8.23850000     21.70210000     18.19470000     -0.00322910     -0.00277640     -0.00328623       1
H               9.60983000     24.16900000     18.48320000      0.00197077      0.00196427      0.00287948       1
O              21.82510000     15.97560000     10.15900000      0.00088866      0.00110026     -0.00164123       8
H              22.15450000     14.30640000      9.44579000     -0.00231950      0.00938175     -0.00059668       1
H              20.05090000     15.87690000     10.59240000      0.00286232      0.00165993     -0.00154151       1
O              16.74550000     18.93230000      0.99648000      0.00301561     -0.00142147     -0.00009980       8
H              17.58100000     18.06710000     -0.39859900     -0.00589339      0.00599664     -0.00054487       1
H              17.16130000     20.68620000      0.69528600     -0.00332187     -0.00295150      0.00369802       1
O              10.15560000     24.47480000     23.62590000      0.00238206     -0.00194152      0.00072011       8
H               9.90568000     23.54540000     25.16770000      0.00038482      0.00374951      0.00073841       1
H              10.56640000     23.08190000     22.47700000     -0.00389197      0.00422413      0.00252485       1
O              11.76220000      7.44833000      8.69447000      0.01827650      0.03257540     -0.02042440       8
H              11.56110000      8.40545000     10.18250000      0.00010043      0.00474065      0.01322150       1
H              11.00000000      5.83425000      8.85630000     -0.00568905     -0.02066160      0.00719445       1
O              12.82140000      4.84010000     22.56560000     -0.00034379     -0.00363937     -0.00074849       8
H              11.79020000      3.38290000     22.17700000      0.00215862     -0.00070584      0.00769103       1
H              13.38240000      4.54155000     24.28870000     -0.00108825      0.00630364     -0.00269205       1
O               9.65623000     10.84080000     12.71180000     -0.00491578     -0.00106977     -0.00553360       8
H               8.93921000     11.80480000     11.36030000     -0.00171196     -0.00278623     -0.00019025       1
H               8.74260000      9.28739000     12.51120000     -0.00273298     -0.00585391      0.00967566       1
O              17.14540000      4.02427000     19.66650000     -0.00044262      0.00214799     -0.00643481       8
H              15.71350000      4.95000000     20.37500000      0.00528009     -0.00401597      0.00604348       1
H              17.95180000      5.15296000     18.47130000     -0.00101727     -0.00417315      0.00404574       1
O              16.54780000      7.60700000      7.16642000      0.04335640     -0.00648352     -0.01631760       8
H              17.64020000      6.48517000      8.11537000     -0.00815163      0.00740246      0.00106524       1
H              14.94880000      7.73213000      7.93160000     -0.02771650     -0.00391280      0.01515660       1
O              12.19660000     21.93810000     13.55900000      0.00554661     -0.00999897      0.00061750       8
H              12.80040000     21.69640000     11.86130000     -0.00245419      0.00332615     -0.00093792       1
H              10.79790000     23.10640000     13.57520000     -0.00328676      0.00884879     -0.00764399       1
O              18.62820000      7.98518000     23.76600000      0.01167630      0.00737541     -0.00514571       8
H              19.18050000      8.51497000     22.09860000     -0.01380300     -0.00310495      0.00037405       1
H              18.45140000      9.57475000     24.67700000      0.00043086      0.00046274      0.00031093       1
O              17.55100000     10.11630000     18.36640000     -0.00373849     -0.00513395     -0.02416520       8
H              16.08340000      9.48049000     16.59670000      0.03963200      0.02132330      0.03855150       1
H              18.85340000     11.33810000     17.83140000     -0.01865350     -0.02159830      0.00640709       1
O               0.71567400      8.38507000      5.25696000      0.00290029     -0.00111028      0.00252679       8
H               1.58497000      7.21481000      6.34793000     -0.00013948      0.00286409     -0.00138594       1
H              -0.17521900      9.50862000      6.42903000     -0.00419900     -0.00162167     -0.00776976       1
O               8.50325000     15.30670000      3.84039000      0.00266631      0.05212330      0.03891700       8
H               8.12946000     13.96240000      2.81745000     -0.00908128     -0.04827980     -0.03250210       1
H               6.90438000     16.11940000      4.09970000     -0.00122609      0.00042337     -0.00070613       1
O              16.28540000     15.84640000     14.72560000     -0.00588032     -0.01016680     -0.00269403       8
H              15.82510000     15.06670000     13.06130000      0.00384383      0.00086448     -0.00130965       1
H              17.32990000     14.54730000     15.45950000     -0.00252237      0.00648280     -0.00231175       1
O               6.28106000     13.74700000     22.75320000     -0.00032557      0.00309165     -0.00074334       8
H               6.64701000     14.18270000     21.01860000      0.00296799     -0.00161505      0.00450135       1
H               6.39975000     11.90650000     22.80320000     -0.00113983      0.01041720     -0.00436155       1
O              14.38750000      0.63437900      4.59852000      0.00095465     -0.00150497      0.00268669       8
H              14.46410000      2.41512000      4.96228000     -0.00195338     -0.00653557     -0.00004433       1
H              15.45740000      0.52065200      3.13615000     -0.00500142     -0.00647535      0.00329288       1
O               3.10997000     17.92610000      1.02317000     -0.00395588     -0.00702925     -0.00588171       8
H               2.93816000     18.95130000     -0.49338200      0.00472079     -0.00205523      0.00840163       1
H               4.34633000     16.64000000      0.61581600     -0.00370692      0.00035693     -0.00760798       1
O              12.74770000     15.73620000     19.22030000      0.00098022      0.37649900     -0.11415400       8
H              12.68780000     14.37170000     19.76120000     -0.00366630     -0.34949400      0.11922900       1
H              13.39150000     16.16740000     17.60200000      0.00883584     -0.02308450     -0.00849659       1
O              23.75860000     11.58410000     14.52030000      0.00013468     -0.00575707      0.00835992       8
H              22.72120000     12.21280000     15.89580000      0.00125290      0.00192490     -0.00257855       1
H              22.50210000     10.98320000     13.32570000      0.00520082     -0.00008877     -0.00032545       1
O              19.91650000      9.40431000     11.85150000      0.00598989      0.00153453     -0.00070819       8
H              20.34050000      7.62459000     11.60590000     -0.00154194     -0.00553695      0.00395038       1
H              18.84090000      9.61821000     13.29400000     -0.00491611     -0.00351944     -0.00522361       1
O               3.41608000     15.39210000     14.39910000     -0.00289143      0.00935558      0.00559835       8
H               1.86754000     14.57390000     14.91060000     -0.00030290     -0.00576883     -0.00769596       1
H               4.54839000     15.36040000     15.82570000      0.00313718     -0.00469736     -0.00237371       1
O               0.50008500     20.57600000     14.16950000      0.00360940     -0.00259874     -0.00721591       8
H               2.10761000     20.24270000     14.94090000     -0.00266621     -0.00395814      0.00031884       1
H               0.46599000     19.44500000     12.72330000     -0.00650295      0.00341143      0.01105340       1
O              18.26240000     18.04700000     20.31390000     -0.00068162      0.00522748     -0.00137334       8
H              16.93800000     17.95390000     19.08890000     -0.00629441     -0.00292570     -0.00023284       1
H              19.17030000     19.55990000     19.84890000      0.00697198     -0.00340402     -0.00178797       1
O               7.93764000     14.12990000     17.10310000     -0.00840767     -0.00271008      0.00484133       8
H               8.83007000     15.67090000     16.70790000     -0.00151218     -0.00062208      0.00095016       1
H               8.18836000     12.99760000     15.71390000      0.00290651     -0.00114656      0.00083454       1
O               1.54715000     18.82520000      6.49586000     -0.00804092     -0.00028568      0.00075493       8
H               0.06655100     18.26030000      7.41315000     -0.00217599     -0.00280621     -0.00284750       1
H               1.31286000     18.38650000      4.73989000      0.00209093      0.00087141      0.00160457       1
O              13.38380000      0.71070700     17.73410000     -0.01201800      0.01189750      0.01088880       8
H              14.04000000     -0.64247200     16.76080000      0.00618403     -0.00907676     -0.00713875       1
H              14.69710000      1.54807000     18.68710000      0.00242036     -0.00379253     -0.00490474       1
O               6.09428000      3.56653000     23.00350000     -0.00154699      0.00879741      0.00561769       8
H               4.98738000      3.85710000     24.41460000     -0.00998876     -0.00359824      0.00336680       1
H               7.26978000      2.29059000     23.56430000      0.01023180     -0.00348529     -0.00346871       1
O               2.29889000      4.73360000      9.16375000     -0.04783500     -0.02585030      0.01469490       8
H               2.48122000      2.95597000      8.79926000      0.00859461      0.00108424     -0.00641274       1
H               3.82190000      5.61012000      8.89735000      0.02820420      0.01326710     -0.00531750       1
O              18.15530000     12.57300000      2.36051000      0.00482456      0.00612027      0.00686884       8
H              19.15600000     14.09430000      2.27765000     -0.00285936     -0.00623967     -0.00377638       1
H              16.46420000     13.13410000      2.83505000      0.00455051     -0.00343963     -0.00165348       1
O              11.47630000     19.91070000     22.20560000      0.00737602     -0.00585390      0.00684774       8
H              11.69910000     18.50100000     21.06740000     -0.00132641     -0.00556644     -0.00678905       1
H              12.78600000     19.58710000     23.43840000     -0.00139819      0.00506884     -0.00288584       1
O              12.38380000      5.30852000     15.15080000     -0.00366318     -0.01123540     -0.00088111       8
H              12.04120000      5.29810000     16.95160000     -0.00310553      0.00615622     -0.00791246       1
H              13.13040000      3.68071000     14.85150000     -0.00274408     -0.00486139      0.00211988       1
