192
TotEnergy=-1102.16181000 cutoff=-1.00000000 nneightol=1.20000000 pbc="T T T" Lattice="24.00670000       0.00000000       0.00000000      -0.00000100      24.00670000       0.00000000      -0.00000100      -0.00000100      24.00670000" Properties=species:S:1:pos:R:3:force:R:3:Z:I:1
O              12.28560000      1.23509000      7.96221000     -0.01197010      0.00402997     -0.01680300       8
H              12.89530000      2.67585000      6.92134000      0.00547363     -0.00818577      0.01860700       1
H              10.47040000      1.51785000      8.04811000      0.00962734      0.00068233     -0.00778262       1
O               1.75291000      6.88244000      7.69032000     -0.00481767     -0.04880540      0.00324110       8
H               1.67394000      5.32771000      8.78569000      0.00803519      0.02871960     -0.00846678       1
H               1.39476000      6.00510000      6.09768000      0.00701385      0.01702830     -0.00209726       1
O              17.93480000     22.41470000     22.06180000     -0.01082550     -0.00538567      0.01587220       8
H              17.03430000     21.83520000     20.57240000      0.00343933      0.00288458      0.00358426       1
H              17.42320000     21.28140000     23.42070000     -0.00024123      0.00094392     -0.02309770       1
O               5.17864000     15.42500000     21.16130000      0.00056905      0.02588120      0.00562122       8
H               3.52941000     14.88240000     21.90330000      0.01190430      0.02564990     -0.00027264       1
H               5.00354000     17.24960000     20.61730000     -0.00888157     -0.03884820      0.00872697       1
O              17.12790000     13.34450000      3.22022000      0.02159050     -0.01311120     -0.01454060       8
H              16.42630000     11.81430000      2.34155000     -0.00384802      0.01036670      0.02750740       1
H              16.97010000     13.46930000      5.04397000     -0.00673332     -0.01855670     -0.00950589       1
O               0.11225300     19.18750000      2.54781000     -0.02455700     -0.00125919     -0.01926800       8
H              -0.10550600     17.90720000      1.05888000      0.00900375      0.00994404      0.01877120       1
H              23.22900000     20.70590000      1.95358000      0.01907920     -0.01393700      0.00172093       1
O              21.69740000     19.68490000     16.12280000     -0.00773001     -0.01408680     -0.03146270       8
H              19.20150000     17.77490000     14.55520000      0.06466330      0.06457640      0.00672529       1
H              20.33430000     20.06700000     17.21370000     -0.00486776      0.00897948      0.01397680       1
O              22.62270000     10.75770000      2.58417000     -0.11278600      0.16179200     -0.32157300       8
H              20.04260000     11.92670000      3.19294000      0.07199180     -0.02461510     -0.02940670       1
H              22.67990000     10.26670000      3.96538000      0.02558570     -0.13270300      0.35019400       1
O               7.62797000      8.88479000      7.75365000     -0.00360718     -0.01539740      0.00565242       8
H               8.45235000      8.06280000      9.24014000     -0.00992257      0.01404700     -0.01014530       1
H               5.85139000      8.35699000      7.66584000      0.01406920      0.00386840      0.00820408       1
O               7.97745000      3.43372000      1.00859000      0.00965803      0.02575960      0.04117270       8
H               7.15596000      5.06583000      1.37195000      0.01052860     -0.01353900     -0.01690200       1
H               6.78347000      2.59753000     -0.00964700     -0.01846400     -0.01672690     -0.03025320       1
O               7.36815000      8.72015000     17.66440000      0.03113490      0.00906549     -0.00619223       8
H               7.74788000      6.90223000     17.61060000     -0.00103264      0.00015576      0.01043640       1
H               9.07814000      9.63667000     17.58790000     -0.03553690     -0.02912440     -0.00846630       1
O              21.43010000      9.37021000      8.86339000     -0.02525810      0.01229690      0.03301090       8
H              21.51570000      8.29628000     10.31890000     -0.01180340      0.00467830      0.01146090       1
H              22.49260000      8.38408000      7.89809000      0.03511440     -0.01798470     -0.03798930       1
O               8.64064000     20.04020000      4.20483000      0.01847670      0.14704500      0.05719930       8
H               9.93444000     21.41190000      3.38435000      0.01268950     -0.00302478     -0.02662450       1
H               9.78670000     19.68270000      5.58543000     -0.00338563     -0.00228750      0.04297810       1
O               0.45470000      1.83106000     16.87460000     -0.00632887     -0.07924040      0.01320180       8
H               0.73774900      3.52958000     17.07990000      0.00239087      0.04539010      0.02077240       1
H              24.15700000      0.93653900     18.53320000     -0.00025996      0.02907770     -0.03603870       1
O              12.85540000     22.45380000      2.54701000     -0.02450480     -0.01262670      0.01795170       8
H              13.73100000     23.72970000      3.55132000     -0.00356115     -0.00969405     -0.01289570       1
H              13.89750000     21.02560000      2.01141000      0.00255089      0.01248550     -0.00094590       1
O              20.28730000      2.16995000     13.03020000      0.00493109      0.00481999     -0.00386466       8
H              22.02160000      1.74583000     13.51330000     -0.01668850      0.00759290     -0.00195236       1
H              20.25480000      2.74268000     11.25930000      0.00812167     -0.01486310      0.00619549       1
O               0.29649900     14.59540000     17.76220000      0.02923780      0.00218175     -0.00257102       8
H              23.09860000     13.56790000     16.93280000     -0.00611477     -0.00075944     -0.00501307       1
H               1.70501000     14.93490000     16.61590000     -0.01696830      0.00305729      0.00999955       1
O              17.89270000      2.45344000      2.09498000      0.03591930     -0.03598140      0.08254710       8
H              18.13070000      0.62366600      2.15240000      0.00958187      0.01945970      0.00632312       1
H              17.20310000      2.45543000      0.56398100     -0.05124520      0.01334450     -0.09323460       1
O               5.15781000      7.88220000      0.56579400      0.03226070     -0.03705480      0.03769970       8
H               5.57490000      8.98681000      1.94260000     -0.00576011      0.00856072     -0.01183000       1
H               3.98370000      8.53318000     23.46050000     -0.02575910      0.03601590     -0.02961210       1
O               8.15769000      2.89589000     17.96080000     -0.01938930      0.02240530     -0.04407490       8
H               8.04561000      3.44862000     13.91050000     -0.02765330     -0.04336270      0.05134760       1
H               9.94954000      2.96186000     17.98160000      0.01391100     -0.00539440      0.00260444       1
O              11.97550000     10.07250000     16.43910000      0.00079840     -0.08224590      0.02129370       8
H              12.57770000      9.51203000     18.11300000      0.00808346      0.02111070     -0.02565210       1
H              11.82500000     11.76630000     16.17910000      0.00555859      0.06612880      0.00145726       1
O              19.75090000     12.10910000     16.63150000      0.01648160     -0.05156960     -0.00330861       8
H              18.55430000     11.13870000     17.68200000      0.00808171      0.01460530     -0.01410870       1
H              21.00080000     10.70170000     16.04770000     -0.04075750      0.03077990      0.00599324       1
O               9.05437000     19.80120000     15.18940000     -0.02110130      0.00279574      0.00592055       8
H               7.51373000     19.13420000     14.43960000      0.00388189     -0.00262142      0.00158336       1
H               8.61897000     19.94600000     17.02040000      0.01802660      0.00404895     -0.00794422       1
O               1.30481000      4.69298000      2.18784000      0.00081926      0.01009180      0.00067050       8
H               2.69212000      5.62410000      1.33628000     -0.00937410     -0.01569630      0.01992270       1
H               1.90976000      3.26001000      3.12367000      0.00439076      0.00191859     -0.01144450       1
O              16.58290000     22.73240000     16.62910000      0.02449560      0.00975078     -0.04270080       8
H              18.13230000     23.37040000     15.75400000     -0.01652330     -0.00937929      0.02133620       1
H              15.54360000     22.49020000     15.11730000     -0.00233795     -0.00236544      0.01569460       1
O              23.68960000      6.59892000     19.17730000      0.20748900     -0.01781560     -0.06625820       8
H              22.28270000      6.88096000     19.79420000     -0.20886100      0.02675120      0.08609790       1
H               0.76182400      7.65357000     20.22510000      0.00533963     -0.00436679     -0.01260570       1
O               0.22796900     15.45560000     23.22860000     -0.00363450     -0.01562170     -0.03086200       8
H              23.82060000     14.71210000     21.52180000      0.00133485      0.02547490      0.03378550       1
H              17.22910000     16.04160000     -1.19703000      0.01399190     -0.01738170     -0.02677860       1
O              15.04110000      8.00423000     11.26100000      0.01668040      0.03717570      0.00523908       8
H              15.35720000      9.80838000     11.23680000     -0.00834064     -0.00321309     -0.02025280       1
H              16.01100000      7.80717000     12.82830000      0.00603184     -0.02699260      0.01242910       1
O               7.03153000      1.79297000     12.52700000      0.08033750      0.06374290     -0.01244310       8
H               8.26003000      3.14106000     11.38010000     -0.03469100     -0.06613840      0.01559720       1
H               7.83121000      0.09822300     13.06590000     -0.00509019      0.04183930     -0.00634395       1
O               1.61855000     14.04710000     10.21500000     -0.00156227     -0.08075190     -0.06196580       8
H               1.98505000     12.05000000      9.46249000     -0.01682860      0.09210350      0.03836130       1
H               0.61817700     14.85430000      8.83234000      0.01884220     -0.01201520      0.02372800       1
O              13.56980000      3.86793000     22.74110000      0.00525190      0.04005830      0.00780368       8
H              11.77180000      3.86479000     22.86120000     -0.01388350     -0.01507990      0.00097473       1
H              13.81920000      5.72057000     22.98740000      0.00965980     -0.02781690     -0.00242759       1
O              17.34440000      6.41530000     15.30490000      0.00789822      0.03078140     -0.00292615       8
H              15.82330000      5.49761000     15.50340000     -0.00848184     -0.01459890      0.01197610       1
H              18.63240000      5.38606000     14.57120000      0.00602848     -0.01649190     -0.00069170       1
O              15.72660000      9.55067000     20.10910000     -0.04971560      0.01727090     -0.00772157       8
H              14.85840000     10.04930000     21.64030000      0.00707059     -0.00115241     -0.00621886       1
H              17.38020000      9.39035000     20.61140000      0.04416160     -0.01944940      0.02166590       1
O               1.01600000     21.21020000     11.26190000     -0.01305320     -0.02652570      0.00746958       8
H               1.16233000     22.98880000     11.34850000      0.00402540      0.01859920     -0.00743813       1
H              -0.45291400     20.84810000     12.30060000      0.00430446     -0.00323452      0.00572286       1
O               9.34124000     10.24410000      3.00625000      0.01416260      0.02730120      0.00589716       8
H               9.48414000     12.16760000      2.86228000     -0.01746180     -0.04256070      0.01621160       1
H               9.09848000      9.60488000      4.78837000      0.00423222      0.02153990     -0.02119590       1
O              14.29300000     15.70080000      9.47927000     -0.02101600     -0.00463056     -0.00579320       8
H              15.98490000     15.17010000      9.48202000      0.03076350     -0.01648880     -0.00935937       1
H              14.34920000     17.22310000     10.39070000     -0.00747739      0.02449830      0.01218990       1
O              19.33160000     13.89470000      8.65186000      0.04364020      0.03563280     -0.02152330       8
H              20.43490000     15.18440000      7.71349000     -0.03326040     -0.01793980      0.02583350       1
H              20.77170000     12.83810000      9.18047000     -0.02430100     -0.01147550     -0.00019004       1
O               8.59716000     15.87740000      8.13959000      0.04367380     -0.02631730     -0.02579010       8
H               9.58727000     14.40040000      7.47634000     -0.00468792      0.03242330      0.01800870       1
H               7.01914000     15.14290000      7.82096000     -0.03707920     -0.00070865      0.00366724       1
O              14.33310000      8.76775000      1.53353000     -0.07453850      0.04207170      0.01617670       8
H              14.42390000      7.66728000      3.03575000     -0.00334309      0.01283340     -0.01469790       1
H              12.23370000      9.77366000      1.67256000      0.07257110     -0.05320410      0.01053130       1
O              22.29840000     18.26420000      7.60096000     -0.00057345      0.00940178     -0.04447490       8
H              22.19500000     18.44500000      5.67374000      0.01842160     -0.00406275      0.03266310       1
H              23.88830000     19.13870000      8.01442000     -0.01701980     -0.00275421      0.00376725       1
O              15.27610000     17.62820000     19.98620000     -0.05174150     -0.01890540     -0.05501780       8
H              14.31620000     16.52330000     21.06020000     -0.00174469     -0.00522215      0.01982410       1
H              14.05370000     17.16920000     18.45840000      0.05096870      0.02226000      0.03314550       1
O              12.00400000     15.02350000     14.78740000      0.07818070     -0.06598750     -0.01283150       8
H              12.16670000     14.87290000     12.98790000      0.01287940     -0.01286610     -0.00419248       1
H              10.72610000     16.08340000     14.74280000     -0.09165070      0.08224670      0.01911500       1
O               2.36130000     19.82250000     19.07470000     -0.00095641      0.01734450     -0.01366910       8
H               1.05989000     19.77900000     17.71530000      0.00440466     -0.00196828      0.01459570       1
H               2.91498000     21.57700000     19.20350000     -0.00430062     -0.01823800     -0.00199765       1
O               4.06309000     10.04990000     13.44700000      0.03359330     -0.02945870      0.03337180       8
H               4.20411000     11.48290000     14.55030000     -0.00458040      0.00592951     -0.00403626       1
H               5.25260000      8.90748000     14.49970000     -0.03093920      0.02612590     -0.02583920       1
O              15.46950000      5.23508000      6.69112000      0.00493120     -0.00012199      0.01160040       8
H              15.81580000      5.59691000      8.48737000     -0.00559146      0.00124495     -0.02253410       1
H              17.06280000      4.54989000      6.07894000     -0.00354177     -0.00199476      0.00422009       1
O               9.98588000     20.30170000     20.52820000      0.01335270     -0.01434800      0.00123593       8
H               8.10624000     18.13580000     26.98290000     -0.24807900     -0.14683600     -0.27879800       1
H              11.69970000     19.59480000     20.63910000     -0.02038660      0.00989553     -0.00049035       1
O              11.96520000     13.68870000     21.70730000     -0.01896420     -0.00847317      0.02165850       8
H              10.51040000     14.00490000     20.70130000     -0.00416909      0.00732586     -0.02493980       1
H              10.93910000     13.50510000     23.23050000      0.02073240      0.00500258      0.00166401       1
O               4.61839000      0.84329600     21.99890000     -0.01885500      0.00624503     -0.00568918       8
H               5.12337000      1.15485000     20.28800000      0.02904300      0.00043173     -0.00867521       1
H               2.98117000      1.62056000     21.86260000     -0.00744601     -0.00398643      0.01631550       1
O               3.59393000     10.45750000     20.36180000     -0.06509000     -0.00511891      0.02262290       8
H               3.23919000     12.18880000     20.07810000     -0.00724659      0.00815001     -0.00345641       1
H               5.25779000     10.25720000     19.96210000      0.05788500     -0.01499430     -0.02082630       1
O              19.53320000      7.05419000     23.18340000     -0.00590563     -0.03420850      0.00704390       8
H              20.76810000      7.90483000      0.16931300      0.01025430      0.01000340      0.01091010       1
H              19.35030000      5.38253000      0.03956600      0.00596951      0.03287420     -0.01692260       1
O              12.96780000     22.25010000     12.32900000     -0.00191711     -0.10536900      0.16254100       8
H              12.89400000     23.10350000     10.97580000     -0.01756900      0.10061800     -0.13827800       1
H              11.41060000     22.15520000     13.39000000      0.02452020     -0.00294252     -0.02027580       1
O               2.87319000      1.52836000      9.60384000     -0.03860570      0.03868890      0.06499470       8
H               4.25425000      1.47676000     10.75250000      0.00409027      0.00231559     -0.00164559       1
H               3.34670000      0.87901800      8.10867000      0.02432950     -0.03080690     -0.07015610       1
O              16.60540000     18.44220000      1.23773000     -0.02317560      0.04393530      0.01998820       8
H              16.82640000     16.65830000      0.87379400     -0.00078315     -0.02394160      0.00205473       1
H              17.55540000     18.70890000      2.73023000      0.01640760     -0.00220957      0.01337810       1
O              22.73280000      7.96702000     14.43480000     -0.03526520      0.01263860     -0.05423000       8
H              -0.34656900      9.15850000     13.47000000      0.00996641      0.00594719     -0.02351460       1
H              23.60810000      8.21331000     15.88580000      0.03399940     -0.01502780      0.07441320       1
O              20.25020000      2.47339000      7.68330000      0.02267450     -0.01624140     -0.05184120       8
H              21.64710000      3.18344000      6.62748000     -0.02723080     -0.01201330      0.02142310       1
H              19.53520000     -0.11672800      6.00492000     -0.00835122      0.03795870      0.05024440       1
O               8.59113000     15.26170000      1.80555000     -0.03402710      0.09786830      0.01593310       8
H               8.91365000     18.28190000      3.71480000      0.25661000     -0.06776120      0.16263900       1
H               7.34358000     15.81110000      0.43394600      0.01757160     -0.02136130      0.01265170       1
O               7.29990000      3.49993000      6.24772000     -0.01047480     -0.03626360      0.02185260       8
H               7.85167000      5.16141000      6.15573000      0.01157000      0.03452200     -0.00369451       1
H               7.27962000      2.87944000      4.55168000      0.00701133      0.00193318     -0.01354090       1
O              10.49650000      7.07258000     11.95320000     -0.04076170     -0.01101270      0.02428450       8
H              12.23970000      7.71221000     11.93730000      0.00601862     -0.00708782     -0.00436539       1
H               9.92032000      7.32070000     13.71130000      0.00906109      0.00328701     -0.02210030       1
O              18.41700000     22.15000000      6.45930000     -0.08605370     -0.06236330      0.00805323       8
H              16.01040000     21.48250000      6.67448000      0.09502160      0.03991290     -0.00977999       1
H              19.24600000     20.92560000      7.62698000      0.00630985      0.01895890     -0.01153480       1
O               3.53590000     23.45960000      4.34899000      0.02391870      0.01908830     -0.00972776       8
H               4.59091000     24.39820000      3.14635000     -0.01318220     -0.00886982      0.00962552       1
H               3.74866000     21.76920000      3.76907000     -0.01383470     -0.01051800     -0.00400835       1
O              18.21260000     16.29850000     14.49840000     -0.08452680     -0.01073400     -0.05043640       8
H              18.69930000     14.99110000     15.48470000      0.04261770     -0.06635560      0.07178250       1
H              17.58680000     15.39300000     13.04630000      0.00602581      0.01882260     -0.01436370       1
O              22.96430000     22.85010000     22.15280000      0.00390421     -0.04530890     -0.00215816       8
H              21.28990000     22.29220000     22.61160000     -0.01588430      0.02713010     -0.00490542       1
H              23.32860000     21.14670000     21.44750000      0.02136560      0.02435920     -0.00096249       1
O               4.25088000     17.36140000     13.47760000      0.00247560     -0.04311180     -0.01347780       8
H               3.43244000     16.05130000     12.32800000      0.01499390      0.03724980      0.01994960       1
H               3.51168000     18.97370000     13.19560000     -0.01795760      0.00500862     -0.00814964       1
O              13.75610000      2.99653000     17.70940000     -0.20338600      0.12648200     -0.05760340       8
H              14.17670000      2.91585000     19.24450000      0.04316450     -0.00530195      0.17820400       1
H              14.83770000      2.27396000     16.86970000      0.15954000     -0.12030800     -0.12409500       1
