192
TotEnergy=-1102.65208000 cutoff=-1.00000000 nneightol=1.20000000 pbc="T T T" Lattice="24.47951000       0.00000000       0.00000000      -0.00000100      24.47951000       0.00000000      -0.00000100      -0.00000100      24.47951000" Properties=species:S:1:pos:R:3:force:R:3:Z:I:1
O              19.83950000     16.29440000      8.24767000      0.08166020      0.02287140     -0.03120790       8
H              21.99570000     16.09890000      7.41994000     -0.07966480      0.00648162      0.03512550       1
H              18.85860000     15.33650000      7.08206000      0.00211272     -0.00526352     -0.01726600       1
O              12.31100000      0.02942000     18.96600000     -0.01812220     -0.01981230     -0.01840290       8
H              13.67160000      0.93886700     18.18180000      0.01132220      0.00543507      0.01859210       1
H              12.22330000     -0.01083400     20.75520000      0.01661940      0.00944426      0.01555720       1
O              17.08530000     18.53070000     17.82620000     -0.01349530      0.02808010     -0.03274460       8
H              18.04140000     19.28440000     16.35100000     -0.01707690     -0.00930956      0.03780310       1
H              15.29560000     19.02720000     17.51490000      0.02752870     -0.01647900      0.00334486       1
O               5.00907000     18.79260000     12.00050000      0.00739047      0.10067900      0.06429430       8
H               4.80366000     17.32110000     11.26530000     -0.01306730     -0.09783660     -0.05015740       1
H               4.16082000     18.72160000     13.64930000     -0.00179273     -0.00261597     -0.00763836       1
O              22.36050000      8.12303000      6.18099000      0.05009020     -0.21335600      0.04259360       8
H              21.75440000      6.77079000      7.73562000      0.02560510      0.05979900     -0.06662200       1
H              21.73290000      9.59569000      6.34984000     -0.07113890      0.14644700      0.02153940       1
O               3.66731000     22.26450000     19.26600000      0.05647250     -0.05050200     -0.04764270       8
H               4.81599000     23.26040000     18.20760000     -0.00740796     -0.00000777      0.01029240       1
H               2.71601000     23.31660000     20.18240000     -0.04541500      0.05377380      0.03928520       1
O               3.91694000     12.41980000      9.41742000      0.11207600      0.08401000     -0.06864810       8
H               5.72660000     12.86740000     10.11060000     -0.05871140     -0.02959280     -0.02176750       1
H               2.93337000     11.64400000     10.49510000     -0.05582690     -0.05369470      0.08330950       1
O              12.59460000      0.46683500      0.10763900      0.00857731     -0.01604170     -0.02236690       8
H              14.23840000      1.26742000      0.10871200     -0.01483020      0.00144444      0.01467460       1
H              11.44380000      0.85230500      1.45595000      0.00634372      0.00914346      0.00774336       1
O              23.79630000      1.01263000     16.73310000     -0.01587200      0.08831350      0.03515280       8
H              24.64810000      4.42680000     15.68430000     -0.02143340     -0.01404440     -0.00382510       1
H               0.45589900      0.34119400     15.62660000      0.03518600     -0.02685680     -0.03752980       1
O               0.67923000     22.66900000      1.68933000     -0.02818450      0.07575180     -0.16970400       8
H               0.91821800     22.21020000      3.23347000      0.02791140     -0.02187490      0.13658300       1
H               0.87758700      0.10589200      1.25388000      0.00351311     -0.04951450      0.02651190       1
O              18.67760000     20.95230000     11.98840000     -0.01671780     -0.05500590     -0.07379120       8
H              17.68910000     21.74680000     10.61550000      0.00932063      0.00784496      0.02992080       1
H              18.88250000     19.23030000     11.04700000      0.00389008      0.04488200      0.03600310       1
O               8.17882000     10.36570000      3.73002000     -0.07584720     -0.01437580      0.08385790       8
H               9.74895000      9.70427000      3.56165000      0.07435610     -0.02224310     -0.02047090       1
H               7.91304000      9.74535000      5.64166000      0.00390973      0.03895520     -0.06543790       1
O              19.20300000     20.83400000     22.67610000      0.02664690     -0.00498074     -0.03308100       8
H              18.87380000     20.26860000     20.84530000      0.00616558      0.01074230      0.04155650       1
H              21.05140000     20.41870000     23.00250000     -0.03967010     -0.00546081     -0.00961064       1
O               7.83705000      6.33622000     15.47150000     -0.02550030     -0.01227500      0.11499300       8
H               8.47892000      7.17712000     14.08020000      0.01664780      0.02849560     -0.03202400       1
H               7.01507000      7.39940000     17.08850000      0.01003010     -0.02135060     -0.06859400       1
O              21.83480000      3.53257000      8.68371000     -0.01379410      0.00657203     -0.00424489       8
H              21.41360000      2.14052000      7.57771000      0.00368803      0.00086311      0.00363735       1
H              20.38310000      3.75064000      9.77395000      0.00231501     -0.00960149      0.00304106       1
O              10.15420000      8.01177000     22.31740000     -0.00472061     -0.00549428      0.06675500       8
H               8.67581000      7.18545000     23.30850000      0.04595140      0.02067830     -0.02095290       1
H              11.51840000      8.32284000     23.71220000     -0.04075860     -0.01466220     -0.03639170       1
O              13.47130000     14.46680000      8.06807000     -0.10223500     -0.04405930     -0.05132410       8
H              13.51730000     16.14720000      7.74602000     -0.01342720      0.07645540     -0.02490310       1
H              14.84250000     14.30620000      8.93538000      0.11447600     -0.03012970      0.07701760       1
O               9.68436000      2.26310000      9.51560000     -0.00208990     -0.01260420     -0.01131280       8
H               8.92015000      0.63111600      9.93985000      0.01592670      0.00242327      0.00991823       1
H               8.38568000      3.01481000      8.51339000     -0.00373651      0.01400600      0.00475442       1
O              20.34330000     22.36200000      4.60535000     -0.01171740      0.03605320     -0.01744230       8
H              20.59140000     20.85630000      5.53553000      0.00522175     -0.02011520     -0.01381440       1
H              20.52060000     22.34090000      2.73089000      0.00138369     -0.01944550      0.04149060       1
O               7.10013000     11.98910000     20.69140000      0.08790560      0.01449570      0.03086050       8
H               8.75458000     11.24720000     21.76930000     -0.06328490      0.01266980     -0.04398820       1
H               8.00776000     13.34210000     19.62840000     -0.02665940     -0.03575330      0.01547320       1
O               8.59895000     14.22690000     15.91370000      0.15446800      0.09741980      0.02332590       8
H               9.04826000     16.32370000     15.87040000     -0.00634081     -0.09366100      0.00499997       1
H               7.00078000     14.36400000     15.64720000     -0.14881400     -0.00022241     -0.02559250       1
O               9.09708000     11.43480000      8.85931000     -0.03408310      0.02152630     -0.01315990       8
H               9.75662000     10.09040000      9.71104000      0.01137280     -0.06506200      0.03061890       1
H              10.42720000     12.52260000      9.26961000      0.02426760      0.03938270     -0.01079070       1
O               6.51120000      5.40005000      1.90632000      0.01041770     -0.02187600     -0.01703430       8
H               7.61148000      4.19586000      2.75377000     -0.00523587     -0.00324615     -0.00373232       1
H               6.33603000      6.72684000      3.06698000     -0.00441214      0.02259550      0.01378130       1
O               5.05684000      4.50243000     11.43940000     -0.00109802     -0.08486200     -0.09331300       8
H               4.15773000      5.40936000     10.18420000     -0.00818220      0.01256600     -0.01458480       1
H               5.11180000      5.41076000     12.80520000      0.00498060      0.06583190      0.10576000       1
O              15.07280000     12.78350000      0.65593500     -0.03087340     -0.09312150     -0.02362010       8
H              15.17990000     11.96540000     23.43580000     -0.00367489      0.00491956      0.02746550       1
H              15.85720000     14.23210000      0.32036200      0.03691100      0.09024090     -0.00839019       1
O               9.11762000     22.48210000     12.12790000     -0.08830480      0.03196170      0.07116660       8
H               7.87924000     23.66470000     13.48950000      0.06872840     -0.03103430     -0.04189840       1
H               7.86131000     21.11160000     12.34700000      0.02190070     -0.00215802     -0.01980630       1
O              -0.34469500      6.66433000     14.81150000      0.00959162      0.02417340     -0.01056200       8
H              23.91560000      7.82930000     13.19860000     -0.00582250     -0.02599410     -0.00167883       1
H               0.34266500      8.17365000     15.59790000      0.00711078     -0.02358980      0.02780450       1
O              11.81670000      6.67730000     11.57890000     -0.02383760     -0.09976570      0.01453870       8
H              12.11550000      6.55213000     13.42930000      0.01338940      0.01099250     -0.01442330       1
H              11.33070000      4.52572000     11.34400000      0.00903543      0.08786000     -0.00582177       1
O              17.00650000      1.95814000     18.14390000      0.01938690      0.00673279      0.01218980       8
H              17.92480000      1.51114000     19.80530000     -0.01551800      0.02832460     -0.05754650       1
H              17.84790000      3.11888000     16.85090000      0.00366554     -0.03194200      0.03911960       1
O              22.33160000      8.56673000     22.32450000     -0.01329160      0.02466280     -0.01296670       8
H              21.20570000      9.38124000     21.04910000      0.00219137     -0.03010710      0.02062150       1
H              23.32010000      7.29504000     21.48700000      0.00200444     -0.00350402     -0.01254580       1
O              21.08390000     21.44690000     16.26490000      0.01766220     -0.04809980      0.03071610       8
H              20.99910000     23.09270000     16.83880000      0.02101730      0.04711310      0.03065230       1
H              20.14000000     21.74600000     14.85360000     -0.02593440     -0.00461225     -0.06164690       1
O               3.35117000      7.08305000      7.41058000     -0.05836100     -0.00835558     -0.02962770       8
H               3.28667000      8.85113000      7.19235000      0.02206260      0.02943440      0.00889390       1
H               1.55140000      6.95406000      6.73305000      0.03355080     -0.01577940      0.01643840       1
O              13.39770000      6.40251000     16.63710000     -0.14935600      0.08843330     -0.02556090       8
H              14.16990000      5.02697000     17.13950000      0.04539890     -0.10192000      0.03971330       1
H              10.79750000      6.01380000     17.04620000      0.09637760      0.01250670     -0.01962540       1
O               1.69191000     18.53780000     16.48060000      0.04673590     -0.05173060     -0.02234560       8
H               1.90038000     19.80350000     17.66470000      0.02125100      0.04027110      0.03685150       1
H               0.03781700     18.73830000     16.06190000     -0.06453090      0.00684699     -0.02166090       1
O              19.88460000     12.82590000      4.18576000     -0.01647010     -0.01600340     -0.04311460       8
H              18.91680000     12.36210000      2.63479000     -0.00275215      0.00677846      0.03381100       1
H              21.49470000     12.80240000      3.35531000      0.01863710      0.00722178      0.00733805       1
O               8.80464000      1.15627000      4.14316000     -0.03085540     -0.06235790      0.00679184       8
H               9.80640000      1.27405000      5.61418000      0.01911630      0.01012290      0.01622110       1
H               8.01044000     23.82590000      4.57356000      0.01858120      0.04714680     -0.02883010       1
O              23.67370000     18.17370000     23.69180000      0.02105450      0.07630720     -0.03034110       8
H              23.73250000     16.71190000      0.22096100      0.01163190     -0.00947972      0.03559360       1
H               0.23398600     19.78960000     -0.21428000     -0.02617660     -0.05835780     -0.00185677       1
O              16.74310000      7.76808000     10.35610000      0.06563160      0.05370730     -0.02254930       8
H              16.45500000      9.55539000      9.76127000      0.00358024     -0.04329480      0.01910120       1
H              15.27650000      6.86531000     10.46940000     -0.06281100     -0.01555030      0.00094266       1
O              17.22010000      9.94678000     19.97390000     -0.00235696     -0.04067430      0.00470254       8
H              17.48540000     11.20970000     18.74160000      0.00397476      0.02691860     -0.02300940       1
H              16.69620000      8.45166000     18.97330000      0.00121209      0.02300840      0.01684070       1
O              19.30120000      4.55816000     13.97650000     -0.04476320     -0.06221420      0.04524960       8
H              18.13790000      5.56519000     13.20040000     -0.03890820      0.04190510     -0.02714400       1
H              20.83080000      5.04030000     13.45380000      0.07272050      0.02151870     -0.01495220       1
O              19.03130000     12.66160000     11.21970000     -0.06146900      0.08296570      0.02036650       8
H              18.38890000     13.03360000     13.01490000      0.02406420     -0.01999420     -0.01856030       1
H              18.44220000     14.59310000     10.52640000      0.04919700     -0.08051660      0.01556800       1
O              18.84820000     13.93610000     16.44250000      0.05548170     -0.05256550      0.00512477       8
H              18.19010000     15.54310000     16.85210000     -0.00199676      0.02287680      0.01717890       1
H              22.17250000     13.48750000     18.03840000     -0.03352170      0.03848610      0.00200706       1
O               9.25217000     17.32160000      0.66170200     -0.08344430      0.03363570     -0.01760800       8
H               7.44869000     16.63200000      0.39594700      0.04965960      0.01674970      0.00904565       1
H              10.10500000     15.92770000      1.19777000      0.03572910     -0.04963420      0.01715710       1
O               2.40332000     21.78300000      6.78671000     -0.07867130      0.03602740      0.02518730       8
H               3.86143000     21.67550000      7.67992000      0.07465460     -0.02025950      0.01551780       1
H               1.63104000     22.91730000      8.14343000     -0.00201104     -0.02045870     -0.03483900       1
O              18.60950000      1.47106000     23.90360000      0.05218730     -0.03406230      0.01851150       8
H              20.27670000      1.52697000      0.38828500     -0.03954050      0.01414450     -0.02136120       1
H              18.81120000     -0.35159000     23.34000000     -0.01473290      0.01598800      0.00177064       1
O              11.62660000     19.75360000     16.54890000      0.02700530      0.05771810     -0.05686730       8
H              11.44900000     20.74570000     14.83880000     -0.00905650     -0.03766960      0.04176430       1
H              12.77010000     21.11600000     17.19970000     -0.02844930     -0.01756410      0.01248760       1
O               0.70232600     16.42600000      6.82327000     -0.03646890      0.04825070      0.00104160       8
H               0.95448200     18.19360000      7.46694000      0.01057220     -0.03010330     -0.00844264       1
H               1.48693000     15.09540000      7.70017000      0.02373670     -0.01148360      0.02435230       1
O               2.42615000     -0.45473800     12.08900000      0.00109933     -0.05707420     -0.00351342       8
H               3.46142000     22.45160000     11.98210000     -0.01823500      0.02938460      0.00423861       1
H               3.47716000      0.89036600     11.63490000      0.02125810      0.02891940     -0.00348879       1
O               0.33228300     14.40180000      2.47927000     -0.01774080     -0.00162806      0.00322117       8
H               0.37622300     15.32380000      4.07342000     -0.00583631      0.00141127     -0.00662493       1
H               2.09832000     14.29470000      2.14336000      0.01891840     -0.00996847     -0.01354730       1
O               5.24285000     13.78280000      1.06610000     -0.01039980      0.00819758     -0.02430400       8
H               5.99106000     12.29930000      1.72251000      0.01482590     -0.01522670      0.02726440       1
H               5.49233000     13.39360000     23.76980000     -0.00529633      0.00671553     -0.00702973       1
O              15.88420000      4.03900000      3.93406000      0.12909400     -0.00038995     -0.00931573       8
H              18.32780000      4.67790000      5.82370000     -0.07489310     -0.01353570     -0.05758760       1
H              17.18990000      3.70745000      2.25812000     -0.05495530      0.00920954      0.07013710       1
O              21.95050000      4.91290000      2.03837000     -0.00994343     -0.07268810     -0.04593920       8
H              22.30980000      5.70449000      3.50905000      0.00847112      0.05427950      0.05280350       1
H              21.64340000      5.88837000      0.59751700     -0.01321060      0.03479840     -0.01063840       1
O               7.73808000     20.42080000      5.10224000     -0.01930580     -0.08433060     -0.05724170       8
H               9.33718000     20.19140000      5.75775000      0.05015430      0.01145810      0.03630400       1
H               8.07632000     18.57480000      3.98420000     -0.02754860      0.08135610      0.02465820       1
O              14.58760000     18.79130000      1.42885000     -0.06114180      0.11051900     -0.03585010       8
H              15.64720000     20.11530000      0.64462200      0.02028970     -0.03036560      0.00707191       1
H              13.04540000     20.27630000      0.94387100      0.04319570     -0.07823370      0.02491170       1
O              23.61190000     10.51240000     11.79150000      0.01562700     -0.02375730     -0.00453484       8
H              22.00000000     11.24000000     11.38820000     -0.02703590      0.00768407     -0.00328476       1
H               0.02420300     11.85830000     12.57500000      0.00761874      0.01047840      0.01611960       1
O              23.88040000     13.76020000     20.35060000     -0.05106370     -0.09457030     -0.10695000       8
H              22.98100000     12.25780000     20.91610000      0.02074900      0.01734740      0.03069570       1
H              -0.01284500     14.97750000     21.39470000      0.01043800      0.06171410      0.05221010       1
O              13.35590000      8.43438000      2.90396000     -0.07810400     -0.03647890     -0.00389688       8
H              14.39960000      9.78153000      2.72216000      0.04845810      0.04164920     -0.00308945       1
H              14.04010000      6.80521000      3.25450000      0.02272790     -0.00241311      0.00507663       1
O               1.45547000      4.71677000     20.40610000     -0.00408483      0.00264973     -0.00508244       8
H               1.85543000      4.49535000     22.16030000      0.00502342     -0.00879698      0.01045710       1
H               1.19229000      3.00205000     19.79680000     -0.00837610      0.00503963     -0.01322960       1
O              13.20780000     19.99620000      6.77350000      0.07502710      0.03100560      0.00157758       8
H              14.75870000     20.95170000      7.82452000     -0.07916130     -0.02927370     -0.04200710       1
H              13.80340000     20.38550000      4.99180000     -0.01285710     -0.01844150      0.03561910       1
O               1.86766000      3.37059000      0.79866300     -0.05687160     -0.01636410     -0.02171020       8
H               0.45786100      4.68044000      0.90150400      0.04017780     -0.02608420      0.01931300       1
H               3.61253000      3.57370000      1.07669000      0.02187500      0.03035820      0.01394530       1
O               7.84918000      0.94659700     17.01570000     -0.02576860      0.07277100     -0.00210197       8
H               7.50967000      3.42443000     16.74150000      0.02528610     -0.10203400      0.00934813       1
H               9.01159000      0.34193600     18.41440000     -0.01125010      0.03071010     -0.03443180       1
O               4.29458000      8.37736000     18.26360000      0.07632620      0.08196060      0.00342011       8
H               5.26508000      9.30710000     19.70170000     -0.01429800      0.00381253     -0.04636320       1
H               3.44403000      7.34948000     19.29880000     -0.05673460     -0.07758090      0.04120130       1
O               2.39431000     12.83620000     15.34420000      0.00236304     -0.01754390     -0.02759170       8
H               1.98299000     11.67010000     16.63120000      0.00701191     -0.00834232      0.01519980       1
H               2.28118000     14.42390000     16.10630000     -0.00543064      0.03375280      0.01398970       1
O              15.70430000     -0.52964000      8.34350000      0.06871530      0.06567420     -0.10733300       8
H              17.30280000     23.50200000      6.97746000     -0.06042870      0.01673150      0.05271980       1
H              15.22810000      1.23797000      7.27651000      0.01018080     -0.07269830      0.04604520       1
