192
TotEnergy=-1104.04206000 cutoff=-1.00000000 nneightol=1.20000000 pbc="T T T" Lattice="24.78187000       0.00000000       0.00000000      -0.00000100      24.78187000       0.00000000      -0.00000100      -0.00000100      24.78187000" Properties=species:S:1:pos:R:3:force:R:3:Z:I:1
O              22.06130000     12.91770000      8.25608000     -0.00286998      0.00224327     -0.00041936       8
H              21.80190000     11.83110000      6.78940000      0.00285410     -0.00039257      0.00365843       1
H              22.10430000     14.64220000      7.65315000      0.00197933      0.00104361     -0.00638710       1
O              16.52220000     19.57070000     12.53290000     -0.00138217      0.00456368     -0.00265223       8
H              17.14370000     21.29010000     12.75520000      0.00645823     -0.00193084      0.00323984       1
H              14.99870000     19.52100000     13.52230000     -0.00053653     -0.00344055     -0.00220317       1
O              19.44460000     13.21680000     12.89490000     -0.00104855      0.00302962     -0.00166996       8
H              20.02260000     13.13630000     11.15750000      0.00617173     -0.00052623      0.00099085       1
H              18.60720000     14.81780000     13.03800000     -0.00546425      0.00061429      0.00019517       1
O               2.32698000     16.99320000     11.39340000      0.00009997     -0.00241342     -0.00372279       8
H               0.60415700     16.68780000     11.86490000      0.00217435      0.00089285      0.00216074       1
H               3.28664000     15.67160000     12.19720000     -0.00373171     -0.00056670      0.00418278       1
O               9.91445000     11.40980000      4.83976000     -0.00173860     -0.00367595     -0.00013881       8
H               8.35639000     12.35280000      4.54548000      0.00367665      0.00056847      0.00255783       1
H              11.32850000     12.55330000      4.89414000     -0.00486135     -0.00145603      0.00022203       1
O               1.11821000     21.23350000     21.70790000      0.00435877      0.00312555     -0.00249690       8
H               1.37415000     22.67560000     20.62330000     -0.00427905      0.00247471     -0.00296371       1
H               2.78784000     21.10800000     22.47250000     -0.00003985     -0.00208275      0.00378419       1
O               7.06724000      0.79798200     13.53890000      0.00004644      0.00492334      0.00269304       8
H               6.46507000      1.80787000     12.16130000     -0.00236416     -0.00481823     -0.00217502       1
H               5.59087000      0.32723800     14.52230000     -0.00114688      0.00271504      0.00058938       1
O              11.69050000      0.36452200     21.21090000     -0.00176476     -0.00155272      0.00008280       8
H              11.18210000     23.56390000     20.41070000      0.00097119      0.00074281     -0.00148229       1
H              12.43310000      1.35944000     19.88340000     -0.00084367     -0.00201721      0.00040334       1
O               0.83909700      5.10674000     11.05790000      0.00516659     -0.00206894     -0.00229978       8
H               0.72193500      6.91204000     11.35210000     -0.00011511     -0.00370443     -0.00395736       1
H               1.19267000      4.37090000     12.67400000     -0.00350285      0.00145086      0.00223945       1
O               5.58271000     21.95510000     -0.21780600     -0.00722744     -0.00069750      0.00086611       8
H               5.97845000     23.76830000     24.37130000      0.00331639     -0.00452265      0.00110083       1
H               4.52666000     21.87190000      1.25835000      0.00401283      0.00249277      0.00465503       1
O              21.95180000     18.25040000      6.04254000     -0.00131114     -0.00566218      0.00087044       8
H              20.15480000     18.59050000      5.99867000      0.00320092      0.00306343     -0.00199191       1
H              22.57090000     18.60080000      4.35405000     -0.00469961      0.00140630      0.00426934       1
O               4.24557000     13.00340000     14.83490000      0.00716120     -0.00135387      0.00324912       8
H               3.28303000     11.56320000     15.35830000     -0.00611565      0.00047831     -0.00110429       1
H               4.64981000     13.84100000     16.40110000     -0.00044481      0.00568726     -0.00036627       1
O              21.54230000     17.47070000     24.10370000     -0.00064454     -0.00135018      0.00252578       8
H              22.03940000     16.11260000     23.01760000      0.00083374     -0.00276856     -0.00026180       1
H              22.69570000     18.83700000     23.79920000     -0.00183046      0.00079672      0.00011382       1
O               8.89443000      4.58163000     16.94120000      0.00096526      0.00181684      0.00262053       8
H               8.06439000      3.63653000     15.61170000      0.00017724      0.00127006      0.00334236       1
H               9.86370000      5.90390000     16.16090000     -0.00146086      0.00348067     -0.00075660       1
O              21.23780000      1.60303000      9.31530000      0.00133678     -0.00070375     -0.00128297       8
H              22.15660000      0.19434500      8.58342000      0.00321829      0.00060072      0.00085740       1
H              22.46870000      2.93662000      9.48765000      0.00139242     -0.00044389      0.00347894       1
O               6.13787000      9.03426000     21.15100000      0.00068168      0.00067305      0.00026214       8
H               6.40875000      8.04334000     19.65090000      0.00101061     -0.00100045     -0.00020776       1
H               6.94488000      8.06713000     22.48720000      0.00202879      0.00029765      0.00124743       1
O               2.51453000      0.31504100     16.89810000     -0.00163504      0.00105769      0.00119003       8
H               1.85194000      1.75567000     17.79910000      0.00138259      0.00019427      0.00340014       1
H               1.10846000     -0.37311600     15.93460000      0.00217491     -0.00322526     -0.00380858       1
O              11.94300000     23.63940000      5.37757000      0.00246073      0.00295185     -0.00421714       8
H              12.43800000     -0.89342700      3.63737000      0.00196603     -0.00542160     -0.00118344       1
H              12.19710000      0.49974800      6.13644000     -0.00217606     -0.00476557      0.00908358       1
O              16.29290000     18.21690000      0.25634600      0.00339769     -0.00391182      0.00082318       8
H              15.77950000     16.76930000      1.24342000     -0.00516246      0.00318299     -0.00251065       1
H              18.11010000     17.98160000      0.16749300      0.00353402      0.00537443     -0.00457788       1
O               6.00123000     17.42030000     18.67440000     -0.00690344     -0.00074728      0.00381204       8
H               5.99672000     17.40050000     20.50740000      0.00370594     -0.00714653      0.00309251       1
H               4.34593000     18.04920000     18.27930000     -0.00082821      0.00364136     -0.00529196       1
O              10.87440000     20.34130000     12.99100000      0.00214619      0.00167809     -0.00344750       8
H              11.79650000     21.71470000     12.25310000     -0.00058862      0.00108632     -0.00350457       1
H              10.16050000     21.09540000     14.48300000     -0.00173755     -0.00395578      0.00486399       1
O               8.99725000     10.46650000     13.87580000      0.00158066     -0.00036306     -0.00399011       8
H              10.38150000     11.46980000     13.24820000      0.00148309      0.00173473      0.00058618       1
H               7.80276000     11.72530000     14.43820000     -0.00350326     -0.00566199     -0.00332949       1
O               7.25205000      1.86863000     23.71320000      0.00195828     -0.00072940      0.00158715       8
H               8.88624000      1.42034000     23.00610000     -0.00086395      0.00417175     -0.00445986       1
H               7.55945000      3.25291000      0.06253400      0.00046754      0.00081691     -0.00029748       1
O               5.36094000      4.77584000      7.27107000     -0.00040585     -0.00316775      0.00225273       8
H               6.90688000      5.65173000      7.78441000     -0.00339117     -0.00201497      0.00373256       1
H               4.14212000      5.01290000      8.60857000     -0.00150947      0.00071901      0.00264507       1
O              14.87770000     13.00850000      0.86338100     -0.00024148      0.00182907      0.00112787       8
H              15.51850000     13.34860000     23.97260000      0.00360845     -0.00626111      0.00130736       1
H              15.84200000     11.59170000      1.51255000     -0.00404364      0.00018624     -0.00302118       1
O              16.26130000     18.93520000      7.02007000     -0.00187814      0.00062345     -0.00060022       8
H              14.99100000     20.13990000      6.51237000      0.00347260      0.00012455     -0.00314531       1
H              16.40080000     19.15860000      8.83025000     -0.00084353      0.00019688      0.00501757       1
O              19.23630000     24.14090000     13.52140000     -0.00201406     -0.00319204     -0.00212713       8
H              19.81850000      0.39237000     12.10930000     -0.00542011      0.00536385      0.00499957       1
H              18.62360000      0.39533900     14.90890000      0.00148331     -0.00500564     -0.00455289       1
O              14.21610000     13.84750000     17.30250000     -0.00292233      0.00241617      0.00131549       8
H              13.19330000     14.38220000     15.89570000      0.00315733     -0.00048905     -0.00625958       1
H              13.17940000     14.14050000     18.76380000     -0.00130804     -0.00457707      0.00253386       1
O              13.18890000      2.12109000     14.28580000      0.00013427     -0.00023421     -0.00516035       8
H              13.99180000      3.41896000     15.27030000      0.00127701     -0.00151771     -0.00175168       1
H              11.44710000      2.18752000     14.78020000     -0.00144622     -0.00136686      0.00441732       1
O              17.17390000      8.05286000      2.53754000     -0.00493035     -0.00161308     -0.00467191       8
H              16.97180000      7.43892000      0.80038400      0.00174807      0.00544300     -0.00645480       1
H              16.02740000      6.99382000      3.45102000      0.00266115      0.00142588      0.00743078       1
O              15.65750000     19.42220000     19.55390000     -0.00127225     -0.00586205      0.00193310       8
H              16.37460000     18.05710000     18.60430000      0.00114380     -0.00079790     -0.00562424       1
H              15.65360000     18.75060000     21.24800000      0.00275429      0.00336735      0.00824491       1
O               8.03757000      7.31921000      1.04361000     -0.00200222      0.00155815     -0.00261379       8
H               9.13997000      8.55402000      1.80115000     -0.00021018     -0.00108811      0.00231408       1
H               6.40892000      7.56063000      1.85621000      0.00127997     -0.00380161      0.00175721       1
O              14.12440000      8.21025000     17.01030000      0.00071036      0.00127268      0.00271120       8
H              14.42280000      7.87026000     18.76950000      0.00113139     -0.00574271      0.00410284       1
H              13.97520000     10.02770000     17.02380000     -0.00293075      0.00515220     -0.00355482       1
O              21.87010000     11.53090000     23.84000000      0.00538074     -0.00190566      0.00510976       8
H              21.41810000     11.33820000      0.80376100      0.00235069     -0.00035486      0.00353229       1
H              23.00920000     10.13870000     23.50040000      0.00831384      0.00237007      0.00088338       1
O              15.25760000     13.71890000      8.13456000     -0.00513906     -0.00261607     -0.00416648       8
H              16.66690000     12.58680000      8.27524000     -0.00146715      0.00415213     -0.00152946       1
H              15.75730000     15.15540000      7.12599000      0.00366344      0.00046515      0.00256086       1
O              10.35980000     12.90670000     21.89490000     -0.00216707      0.00391633      0.00721697       8
H              11.25910000     12.49440000     23.42150000      0.00251258     -0.00354427     -0.00165724       1
H               8.91283000     11.78990000     21.83070000      0.00265428      0.00006704     -0.00454132       1
O              21.86210000      9.00339000      4.60401000     -0.00067614      0.00488688     -0.00202723       8
H              23.21440000      7.82979000      4.33532000      0.00208449      0.00152625      0.00255833       1
H              20.30240000      8.22987000      4.02745000     -0.00151200     -0.00120420     -0.00004957       1
O               9.40610000      7.50345000      9.07629000     -0.00846996      0.00904229     -0.00124909       8
H               8.76492000      8.45581000     10.50960000      0.00521589     -0.00428399      0.00481127       1
H               9.57642000      8.79945000      7.79591000      0.00544354      0.00000640     -0.00445907       1
O              18.80800000      7.56697000     14.37130000     -0.00162082      0.00137784     -0.00402982       8
H              17.40400000      8.24409000     15.33450000     -0.00246703     -0.00894052      0.00298255       1
H              19.08530000      8.85764000     13.13370000      0.00148703      0.00166706     -0.00173962       1
O              12.51410000      2.74526000      9.06854000     -0.00257902      0.00671536      0.00398997       8
H              11.57930000      4.29839000      9.23334000     -0.00267166      0.00305928     -0.00686899       1
H              12.90120000      2.41215000     10.83700000      0.00602819     -0.00494840     -0.00058714       1
O              12.04160000     14.81960000     12.35600000     -0.00606170      0.00672815     -0.00371159       8
H              12.90360000     14.95280000     10.75280000      0.00811184     -0.01044490      0.00193480       1
H              11.17680000     16.41340000     12.47810000     -0.00164906      0.00294722      0.00447861       1
O              23.75670000      7.48397000     15.99760000      0.00472499     -0.00312082      0.00187490       8
H              22.07350000      7.00679000     15.39640000      0.00310474      0.01104000      0.00473349       1
H              23.72980000      9.28720000     16.29200000     -0.00539563     -0.00270470     -0.00032694       1
O              14.76900000     -0.62436600      0.49696200     -0.00689953     -0.00416571      0.00017998       8
H              13.73840000     -0.08418400     23.84690000      0.00089199      0.00113795     -0.00043434       1
H              15.19720000     22.43800000      0.08173600      0.00236800     -0.00178214      0.00484241       1
O               6.98067000     16.86420000     24.06950000     -0.00306261     -0.00215588      0.00118043       8
H               8.50595000     15.87340000     24.05540000      0.00054050      0.00431579     -0.00489045       1
H               7.35040000     18.57270000     -0.17498700     -0.00058270     -0.00213638     -0.00108345       1
O              16.43840000      7.29437000     22.30750000     -0.00540401     -0.00398816     -0.00087820       8
H              17.20110000      8.87821000     21.71390000     -0.00212252     -0.00413894     -0.00444686       1
H              17.49820000      5.90653000     21.74960000      0.00391312      0.00103661      0.00401178       1
O              18.15850000     11.77290000     20.86780000     -0.00170518      0.00449153     -0.00218874       8
H              18.83120000     12.29890000     19.26820000     -0.00442875     -0.00063521     -0.00214701       1
H              19.66180000     11.64480000     21.97040000     -0.00131707      0.00388174     -0.00020105       1
O               3.38325000     17.29020000      6.22396000      0.00070987     -0.00011075      0.00091573       8
H               2.76416000     17.25140000      7.94598000     -0.00276512     -0.00087065      0.00306776       1
H               4.96167000     18.17650000      6.40243000      0.00157075      0.00421199     -0.00281241       1
O               0.05365000     22.23400000      8.49838000     -0.00217883      0.00127127     -0.00125088       8
H              23.96820000     20.88560000      7.61786000      0.00021333     -0.00118525      0.00063606       1
H               1.50341000     22.66750000      7.45954000     -0.00356772      0.00304826     -0.00276690       1
O               1.87176000     10.14290000      9.53978000      0.00097229     -0.00308263     -0.00054942       8
H               3.13292000     10.84410000     10.62720000     -0.00182825      0.00670974     -0.00119475       1
H               0.69557300     11.46590000      9.06767000      0.00181088     -0.00196057      0.00495368       1
O               4.93598000     13.10510000      3.75778000     -0.00022349      0.00189281     -0.00244238       8
H               4.03351000     14.32980000      4.81804000      0.00393210     -0.00026269      0.00423450       1
H               5.12174000     14.07830000      2.23180000      0.00123087     -0.00244209     -0.00468192       1
O              17.45270000      3.90842000      6.37125000     -0.00831879      0.00275630      0.00571477       8
H              15.68100000      3.87999000      6.78112000     -0.00184090     -0.00157570      0.00157774       1
H              18.18490000      3.09172000      7.83240000      0.00879989     -0.00045284     -0.00596808       1
O              22.77710000     22.16460000      2.18064000     -0.00096833     -0.00260997     -0.00418344       8
H              23.98430000     22.50460000      0.87586100      0.00031875      0.00147234     -0.00158683       1
H              21.44680000     23.40970000      1.96436000      0.00357189      0.00054776      0.00448491       1
O              -0.50041500     22.47790000     13.66160000     -0.00101748     -0.00328011     -0.00294654       8
H              22.53060000     22.83660000     13.28050000     -0.00267519      0.00276645      0.00943499       1
H               0.25580200     22.39450000     11.98910000      0.00036600     -0.00478375      0.00034698       1
O              10.51000000     20.55040000     18.70070000     -0.00524041     -0.01503750      0.00402005       8
H              11.93520000     19.44160000     19.04330000      0.00135208      0.01162360     -0.00417567       1
H               9.04139000     19.44490000     18.86260000      0.00123456      0.00960948     -0.00394780       1
O              23.22910000     13.25270000     16.57380000     -0.00132066     -0.00607205     -0.00076639       8
H              21.91360000     13.31050000     15.30620000     -0.00072317     -0.00229651     -0.00236298       1
H              23.67350000     15.00660000     16.85590000      0.00134611     -0.00041767      0.00566654       1
O              19.74430000      3.12032000     21.96770000     -0.00000459      0.00039111     -0.00451749       8
H              21.30820000      3.27533000     21.02880000      0.00324907      0.00096530      0.00197443       1
H              20.16910000      2.44990000     23.63020000     -0.00777532      0.00241462     -0.00219643       1
O               7.82700000     20.74960000      7.65995000      0.00399730     -0.00266760     -0.00092233       8
H               9.22576000     21.65730000      6.90682000      0.00076327      0.00184614     -0.00569406       1
H               8.55966000     19.99540000      9.13642000     -0.00361069      0.00249131      0.00529978       1
O              16.91410000      0.24964600     18.41430000     -0.00171458      0.00216415     -0.00175771       8
H              16.88950000     23.27840000     18.92960000     -0.00087416      0.00614086      0.00104404       1
H              17.49110000      1.26155000     19.83050000      0.00582991     -0.00793064     -0.00069866       1
O               3.95713000     24.18450000      5.55477000      0.00795972      0.00550072      0.00438354       8
H               3.98880000      1.22781000      5.55769000     -0.00007156     -0.00401168     -0.00017953       1
H               5.35790000     23.74520000      6.65217000     -0.00289370     -0.00366966     -0.00597919       1
O               3.31517000      7.65969000      3.75038000      0.01359690      0.01570690      0.00228969       8
H               4.03744000      6.67267000      5.16065000     -0.00524639     -0.00276550     -0.00597320       1
H               3.98378000      9.36341000      4.03074000     -0.01432250     -0.00420596     -0.00087230       1
O              -0.15993000      4.08235000     20.02960000      0.00261053      0.01169070      0.00171972       8
H              -0.38064300      5.43617000     18.80680000     -0.00484467     -0.00272071     -0.01164960       1
H               0.46716000      5.10087000     21.41610000      0.00255642     -0.00621310      0.00628308       1
O               1.28708000      8.20957000     23.57990000     -0.00349657     -0.00430626     -0.00074591       8
H               2.87779000      8.78773000     22.88210000     -0.00189962     -0.00030048     -0.00347822       1
H               1.65084000      7.79188000      0.53854400      0.00301664      0.00044482      0.00074248       1
O              24.10770000     18.20220000     17.63740000     -0.00004213      0.00335774     -0.00267031       8
H              23.77800000     19.40920000     16.31870000      0.00320863      0.00305440     -0.00380146       1
H              -0.20882400     19.20560000     19.08980000      0.00133247     -0.00163551      0.00338891       1
O              19.32340000      1.41448000      2.02029000      0.00015946      0.00736446      0.00137055       8
H              17.55310000      0.96623400      1.89657000     -0.00102687     -0.00790197     -0.00853128       1
H              19.23740000      2.81837000      3.18002000      0.00424949     -0.00379580      0.00661211       1
