192
TotEnergy=-1103.57530000 cutoff=-1.00000000 nneightol=1.20000000 pbc="T T T" Lattice="23.67014000       0.00000000       0.00000000      -0.00000100      23.67014000       0.00000000      -0.00000100      -0.00000100      23.67014000" Properties=species:S:1:pos:R:3:force:R:3:Z:I:1
O               8.75709000      5.24967000      1.98197000     -0.00120175      0.00106947     -0.00323659       8
H               7.55268000      3.86797000      2.04900000      0.00952163     -0.00318921      0.00300997       1
H               9.09568000      5.69002000      3.71272000      0.00810951      0.00149363     -0.00593205       1
O               0.60094100     19.84170000      1.40359000      0.00145753     -0.00495184     -0.00280835       8
H              22.94540000     19.67850000      0.12938900      0.00413858     -0.00736801     -0.00530734       1
H               2.03346000     20.60760000      0.58925200      0.00273529      0.00193257     -0.00305981       1
O              10.96540000     22.81750000     20.04230000     -0.01103180      0.00504326     -0.01472160       8
H              11.03630000     21.03250000     19.86590000      0.00608386     -0.00956116      0.00379231       1
H              11.54510000     -0.41782500     21.68230000      0.00505364      0.00244252      0.01119880       1
O              15.88390000     10.67290000      2.78529000     -0.00170436     -0.00521366      0.00300566       8
H              16.76720000     10.17990000      4.29934000     -0.00102007      0.00798856      0.00360276       1
H              14.23730000     11.16860000      3.37656000      0.00221713      0.00325407     -0.00050890       1
O              21.26110000      9.77134000     18.87520000      0.00842003      0.00644705      0.00451743       8
H              21.83420000     11.43990000     18.39760000     -0.00165012      0.00936742      0.00869721       1
H              20.25230000      9.97242000     20.36810000      0.00087180     -0.00451041      0.00139846       1
O               0.67130800      9.50274000      1.05989000      0.00721183      0.00352008      0.00255520       8
H              22.88230000     10.51750000      0.78110300     -0.00137888      0.00414902      0.00170459       1
H               0.09320400      7.91903000      1.70336000     -0.00082214     -0.00365545     -0.00500269       1
O              22.88330000     15.07740000     13.78760000     -0.00421180      0.00067787      0.00190800       8
H              21.13070000     15.51530000     14.02700000     -0.00542058     -0.00342689     -0.00855092       1
H              -0.82403400     13.31220000     13.36230000      0.00328529      0.00409558     -0.00391995       1
O               3.18750000      9.29803000      9.51535000     -0.01112680     -0.00058611     -0.00294459       8
H               4.15401000      7.98433000      8.69925000      0.00131975      0.00117651     -0.00082228       1
H               3.03321000     10.75650000      8.35749000      0.00714724      0.00706977      0.00068864       1
O              10.64350000     12.04480000      1.52239000      0.00751777     -0.00014075      0.00076005       8
H               9.75282000     10.87830000      2.58786000     -0.00827567     -0.00019058     -0.00494931       1
H              11.52910000     11.07330000      0.27984600     -0.00128825     -0.00848263     -0.00230020       1
O              10.96030000     16.17910000      5.72442000      0.00120968      0.00382593      0.00194241       8
H               9.52962000     15.70000000      6.71518000     -0.00120084     -0.00369836     -0.00206976       1
H              10.46160000     15.96830000      3.99267000      0.00245096     -0.00002562     -0.00070280       1
O               5.38344000     22.47050000     22.48920000     -0.00658861     -0.00703973      0.00098412       8
H               6.65157000     21.69730000     21.45570000      0.00377773      0.00065184      0.00558413       1
H               4.45754000     23.58140000     21.34620000      0.00248609      0.00000803     -0.00016129       1
O              19.64830000      7.14082000     15.47000000     -0.00458886     -0.01459790     -0.02050950       8
H              17.86800000      6.82342000     15.13490000      0.00530659      0.01379870      0.00492035       1
H              20.11040000      8.23315000     16.94970000     -0.01411570     -0.00549666     -0.00608221       1
O              21.17170000     23.38400000     19.40020000      0.01495900      0.00384537      0.00389455       8
H              20.41110000      0.91992100     20.52290000     -0.00166030      0.00355334      0.00459016       1
H              21.54400000      0.66413900     17.87150000     -0.01739540     -0.00415001     -0.00443403       1
O              23.18190000     14.61040000     18.78900000      0.00161724     -0.00149073      0.00463582       8
H              23.25560000     14.97300000     17.00550000      0.00375477      0.00380438     -0.00451753       1
H              22.48700000     16.10820000     19.59740000     -0.00252884     -0.00272440      0.00169717       1
O              10.96880000     22.06480000      2.78678000     -0.00175272     -0.00312237      0.00050192       8
H               9.25811000     21.40780000      3.17759000      0.00783662      0.00306687     -0.00202933       1
H              11.66720000     20.78420000      1.69913000      0.00324708     -0.00072568      0.00665850       1
O               4.68254000     23.19170000     10.13270000      0.00284921     -0.00443349     -0.00310600       8
H               4.94696000     -0.19985400      8.36484000     -0.00063993      0.00336057     -0.00365495       1
H               3.35626000      0.70222000     10.61860000     -0.00028213     -0.01131210      0.00305666       1
O               5.71765000     10.07670000      3.83607000      0.00787124     -0.00080961      0.00380053       8
H               6.26993000      8.91266000      5.11365000     -0.00348044      0.00012891     -0.00239844       1
H               4.26296000      9.29410000      3.09469000     -0.00228766      0.00291244     -0.00321670       1
O              18.19100000     20.70170000     13.75550000      0.00856481      0.00792543      0.00289412       8
H              17.67470000     19.04060000     13.29080000     -0.00334092     -0.00631168     -0.00519341       1
H              16.81960000     21.74530000     13.21550000     -0.00649432     -0.00028984      0.00197373       1
O               1.66837000      4.20444000      0.78943000      0.00420712      0.00045570      0.00330868       8
H               2.15555000      3.81984000     22.75050000     -0.00046634      0.00264367     -0.00514947       1
H               0.03459900      3.46493000      0.97769300     -0.00431720     -0.00424305      0.00035942       1
O              13.80670000      9.05831000     20.58120000     -0.01256070      0.00244998      0.00614718       8
H              15.32470000      8.34225000     21.25370000      0.00913699     -0.00821758      0.00716890       1
H              12.42280000      7.79694000     20.51250000      0.00490219      0.00238705     -0.00016116       1
O               5.76843000     19.75420000     15.44830000      0.00110701     -0.00452658      0.00351169       8
H               4.15147000     19.33800000     14.73370000     -0.00494255      0.00735798     -0.00146720       1
H               5.33055000     20.85650000     16.80770000      0.00058155      0.00247069      0.00220577       1
O              10.03460000      5.74782000     20.57530000      0.00452680     -0.00224726     -0.00167537       8
H               9.83705000      5.33998000     22.34320000     -0.00512676      0.00165500      0.00563338       1
H               8.35718000      5.69116000     19.90090000      0.00056200      0.00286182     -0.00351237       1
O              12.87980000      0.91008200     15.31690000      0.00248473     -0.00316142     -0.01051360       8
H              13.66780000      2.52995000     15.41790000      0.00216573      0.00405587      0.00008884       1
H              12.13190000      0.55999200     16.92540000      0.00009319     -0.00081438      0.01005010       1
O               6.21232000      5.49890000      7.48306000      0.00699001      0.00941473      0.00922398       8
H               8.05480000      5.67670000      7.50286000     -0.00404068     -0.00189709      0.00271284       1
H               5.83551000      4.19774000      6.30608000     -0.00065505     -0.01223370     -0.00811219       1
O               3.57013000     11.00030000     14.11640000     -0.02938120     -0.01925990      0.02397450       8
H               3.02117000      9.95722000     12.70120000      0.00753490      0.00118520     -0.00856731       1
H               4.85138000     11.98100000     13.45190000      0.02047090      0.01965850     -0.01300170       1
O              14.66270000      5.86712000     13.42880000      0.00356077      0.00259565      0.02317030       8
H              13.83080000      5.52023000     11.86800000      0.00245833     -0.00154596     -0.00993422       1
H              13.43200000      6.64654000     14.51100000     -0.00067630      0.00021195     -0.00664018       1
O              18.64110000      7.66596000     23.06910000      0.00182200      0.00203526     -0.00290213       8
H              18.83770000      6.10959000      0.36293700      0.00203743      0.00073840     -0.00723803       1
H              18.74950000      9.01852000      0.58894000     -0.00898707     -0.00140332      0.00640456       1
O               5.72075000     17.74630000      9.35021000     -0.00484014     -0.01011220      0.00131710       8
H               4.28638000     18.85680000      9.63625000      0.00451192      0.00415487      0.00567203       1
H               7.11387000     17.99660000     10.63360000     -0.00339609      0.00312878     -0.00553345       1
O               4.17071000      4.34112000     15.18440000      0.00093208     -0.00511693      0.00323460       8
H               3.61096000      5.49335000     16.51140000      0.00246910      0.00272551     -0.00399138       1
H               2.75013000      4.08834000     14.06120000      0.00330315      0.00003950     -0.00035862       1
O              13.88040000     11.09080000     16.33370000     -0.00592749     -0.01511930      0.02436240       8
H              13.98260000     10.16370000     18.24350000     -0.01060670      0.01821240     -0.04745340       1
H              12.63860000     10.30170000     15.24360000      0.01134640      0.00174939      0.00905592       1
O               8.54890000     13.34700000     19.00140000      0.00980281      0.00356972     -0.01489470       8
H               6.78027000     13.56760000     19.45130000     -0.00361883     -0.00765492      0.00578355       1
H               9.43114000     14.60120000     19.96950000      0.00201921      0.00217697      0.00100121       1
O              21.13760000      8.31384000     10.52990000      0.00314757     -0.00181819      0.00839494       8
H              22.66070000      9.26337000     10.19930000      0.00096293     -0.00827138      0.00764047       1
H              20.77870000      8.15512000     12.35490000      0.00425196      0.00222004     -0.00683652       1
O               9.77837000      0.39668200     10.97600000     -0.00139582     -0.00317571     -0.00651746       8
H               7.98046000      0.20245900     11.21620000     -0.00547565      0.00490389     -0.00592306       1
H              10.29020000      1.82259000     11.94840000      0.00383087      0.00038747      0.01090800       1
O               4.03917000     15.87570000      2.35551000     -0.00025211     -0.00297714     -0.00115124       8
H               3.90594000     14.67220000      1.00734000      0.00058393     -0.00049460     -0.00577077       1
H               2.57042000     16.96600000      2.22618000      0.00138727     -0.00139418     -0.00160305       1
O              19.35290000      2.61343000      0.36546900     -0.00154424     -0.00440792     -0.00762840       8
H              20.17170000      1.34787000      1.42856000     -0.00362359     -0.00244477      0.00674374       1
H              17.58850000      2.12114000      0.29949900     -0.00031222      0.00185417      0.00590988       1
O               6.67873000     19.80470000      3.96550000     -0.00108940      0.00463562     -0.00069636       8
H               6.52057000     18.06690000      3.38520000     -0.00862007      0.00469619     -0.00417319       1
H               6.48234000     19.71250000      5.74807000      0.00101456     -0.00304178      0.00598986       1
O              14.79070000     16.23730000     17.60480000      0.01440160      0.01605100      0.01031750       8
H              16.34490000     15.60230000     16.87330000     -0.00288926      0.00805298      0.00192203       1
H              13.69470000     14.97650000     16.99810000     -0.01516510     -0.02059010     -0.00306002       1
O               3.15400000     14.06620000      7.20678000      0.02687070      0.01763130      0.02876680       8
H               3.76101000     14.04530000      5.46200000      0.00118193      0.00182037      0.01430990       1
H               4.87379000     15.82170000      8.72103000     -0.02763890     -0.01700560     -0.03292020       1
O               9.16190000     13.82890000     13.92330000     -0.04016620     -0.01205940     -0.04878510       8
H               9.35994000     15.63270000     14.07300000      0.00073308      0.02318080     -0.00887244       1
H               9.48447000     13.19420000     15.70170000     -0.02866270     -0.00611911      0.00480093       1
O              17.22890000     14.12910000     13.49280000      0.00961487     -0.00234516     -0.00064020       8
H              15.58850000     14.51190000     12.83020000     -0.00242486      0.00408191     -0.00732909       1
H              16.97590000     12.40010000     13.96400000     -0.00076352     -0.00653788      0.00711698       1
O              21.93410000     15.42860000      5.68774000      0.01293210      0.02759320     -0.02780030       8
H               0.03311300     15.03190000      6.04408000     -0.00129698     -0.00031480      0.00868455       1
H              20.89450000     14.52490000      6.78739000     -0.01703910     -0.02462140      0.02085980       1
O              14.78370000      3.85862000      8.66478000     -0.00062252      0.00992285     -0.00735273       8
H              16.34920000      4.00884000      7.73179000      0.00420567     -0.00127274      0.00400183       1
H              13.70510000      2.85084000      7.61083000      0.00606111     -0.00604392      0.00174291       1
O              15.37580000     17.79250000      9.77041000     -0.00654146      0.00096434      0.00389973       8
H              14.27410000     16.34660000      9.47470000      0.00276016     -0.00022973     -0.00550367       1
H              14.43300000     19.32570000      9.40194000      0.00236870     -0.00329453     -0.00587233       1
O              20.00180000      4.91964000      7.00908000     -0.00925979     -0.00364830     -0.00783535       8
H              20.65250000      5.48475000      8.60884000      0.00204617      0.00873645     -0.00181751       1
H              21.19890000      3.83522000      6.21330000      0.00172367     -0.00734014      0.00054775       1
O              20.66520000      2.05388000     14.98640000      0.00268845      0.00476605     -0.00840955       8
H              19.81260000      3.62415000     15.42860000      0.00757148     -0.00022129     -0.00438676       1
H              19.50550000      1.03211000     14.03880000     -0.00008943     -0.00111048      0.00481557       1
O               9.48954000     18.75790000     12.43710000      0.00069698     -0.00810301     -0.00824033       8
H               8.83584000     20.36990000     12.96390000      0.00052185      0.00167155      0.01017820       1
H              11.08780000     19.11700000     11.65750000      0.00136660     -0.00069244     -0.00176453       1
O              20.67790000     18.60880000     21.38690000      0.00469332      0.00150926     -0.00044844       8
H              19.81550000     20.17020000     21.03110000      0.00631743      0.00094673     -0.00896219       1
H              19.39870000     17.69880000     22.28160000     -0.00483763     -0.00537465      0.00660307       1
O               2.96368000      8.20537000     18.39730000      0.00215678     -0.01124460      0.00311648       8
H               1.15428000      8.19374000     18.30680000     -0.00491852      0.00224386      0.00694574       1
H               3.49226000      9.30063000     17.04710000      0.00031578      0.00573619     -0.00386287       1
O              11.29020000      7.02320000      6.74859000     -0.01863970      0.00328043     -0.00827280       8
H              11.02710000      8.57411000      7.64726000      0.00590986      0.01502970      0.00653774       1
H              12.92960000      6.48312000      7.30472000      0.00612366     -0.00681901      0.00444644       1
O               2.72167000      1.67640000     19.49260000     -0.00149843     -0.00071846     -0.00077974       8
H               3.43014000      1.87874000     17.80910000     -0.00483853      0.00652537      0.00019363       1
H               1.12673000      0.78907500     19.37930000     -0.00137944     -0.00077286     -0.00132721       1
O               8.88273000      7.19370000     13.49420000      0.00729228      0.00945403      0.00059153       8
H               7.46839000      6.28322000     12.85050000     -0.00710165     -0.00840556      0.00168777       1
H               8.11903000      8.69810000     14.14770000      0.00016308     -0.00264363      0.00090207       1
O               3.91429000     12.81550000     21.11760000      0.00732423      0.00567009      0.00266781       8
H               3.85594000     11.16660000     21.85750000     -0.00012345     -0.00570161     -0.00138761       1
H               2.51978000     12.86170000     19.95870000     -0.00811864      0.00648981      0.00287057       1
O              18.31950000     11.92770000      7.86772000      0.00248619      0.00620664     -0.00305499       8
H              19.33840000     10.53380000      8.39797000      0.00139631     -0.00708122      0.00453326       1
H              17.30680000     12.28530000      9.34017000     -0.00872544      0.00025460     -0.00717115       1
O              13.76980000      2.54119000      1.33356000     -0.00633670     -0.01947410      0.00803159       8
H              13.11590000      4.18994000     24.49360000     -0.00718299     -0.02739930      0.01845290       1
H              12.58210000      1.30521000      2.28059000      0.01636140      0.04028700     -0.02966960       1
O              21.49520000     22.99370000      3.88225000      0.01829850      0.01224220     -0.00984525       8
H              22.45510000     21.52040000      3.24989000      0.00089363      0.01508310      0.00292147       1
H              20.04680000     22.28140000      4.63361000     -0.01773610     -0.00827944      0.01225500       1
O              16.50750000     18.66450000      1.05774000     -0.00032388      0.00767320      0.04199040       8
H              16.87970000     19.29060000      3.23750000     -0.00404701     -0.02577400     -0.05905830       1
H              16.99270000     16.88290000      1.08828000     -0.00829971      0.01306960      0.00249888       1
O              11.16850000     16.79420000     23.22230000     -0.01652150      0.01087530     -0.01138230       8
H              12.88410000     17.29230000     23.01480000      0.01576200      0.00189583      0.00443314       1
H              11.11350000     14.99790000     -0.28277200      0.00106261     -0.00494311      0.01103310       1
O              13.72640000     22.53570000      7.83724000     -0.00459414     -0.00932748      0.00245759       8
H              12.55350000     23.16570000      9.09758000     -0.00258383     -0.00216547     -0.00341039       1
H              12.69180000     22.08640000      6.40113000      0.00015604     -0.00085967     -0.00328032       1
O              18.13400000     19.32510000      5.33272000      0.01340070     -0.00354106      0.01237370       8
H              19.45960000     18.00730000      5.18136000     -0.00517749      0.00638412      0.00496958       1
H              17.22270000     19.01090000      6.88881000     -0.00172179     -0.00584260      0.00321320       1
O               1.17338000      3.09070000     11.18590000     -0.00074107      0.00247842     -0.00313153       8
H              23.08520000      3.52054000     11.35980000      0.00090176     -0.00388758      0.00203605       1
H               1.82124000      3.93464000      9.72215000     -0.00418316      0.00847741     -0.00007284       1
O              17.19360000     14.09820000     22.36700000      0.01150320     -0.00804151      0.00025961       8
H              16.60150000     12.59900000     23.20060000     -0.00538506      0.00378068      0.00515930       1
H              15.84690000     14.79540000     21.38820000     -0.00366117     -0.00186173     -0.01007870       1
O               0.71587000     20.41900000     13.42640000      0.00627281     -0.00535029      0.00488344       8
H              23.07810000     21.34040000     14.27250000     -0.00344157      0.00159240     -0.00181262       1
H              23.87390000     18.68160000     13.55710000     -0.00367154     -0.00070546     -0.00413332       1
O               5.43371000      1.65724000      3.35250000     -0.00596897      0.00616884      0.00977029       8
H               4.89607000      0.12256900      2.53058000      0.01052010     -0.00335777     -0.00044311       1
H               4.31898000      2.90150000      2.61050000     -0.01204240     -0.00292534     -0.00088676       1
O              12.82620000     12.24710000      9.41695000     -0.00397855     -0.00252408      0.02227200       8
H              12.57320000     13.00620000      7.82508000     -0.00039084      0.00677619     -0.01668170       1
H               7.29713000     13.54270000     12.33300000      0.07226220      0.00283153      0.05817260       1
