192
TotEnergy=-1103.67151000 cutoff=-1.00000000 nneightol=1.20000000 pbc="T T T" Lattice="24.06018000       0.00000000       0.00000000      -0.00000100      24.06018000       0.00000000      -0.00000100      -0.00000100      24.06018000" Properties=species:S:1:pos:R:3:force:R:3:Z:I:1
O              11.54390000      6.49436000     23.57310000      0.00236947      0.00349277      0.00469190       8
H              11.19380000      7.02278000     25.29450000     -0.00340488     -0.00228113     -0.00283711       1
H              13.27390000      6.00369000     23.80640000      0.00232128     -0.00048316     -0.00860809       1
O               1.27974000     12.03550000     17.17920000     -0.00023785     -0.00890012     -0.00211348       8
H               0.77963200     10.28470000     16.90540000      0.00347529      0.00710640      0.00645030       1
H               0.01452200     12.75870000     18.31570000      0.00635587     -0.00374586     -0.00939373       1
O               2.94170000     11.20350000     23.94610000      0.00844529      0.00700934      0.01419770       8
H               3.97078000     11.83570000     25.42070000     -0.01614950     -0.00260271     -0.01363570       1
H               4.02850000     11.58940000     22.53530000     -0.00410973     -0.00610071      0.00222309       1
O              15.77640000     10.73870000      4.71906000     -0.01024520      0.00544572     -0.00282799       8
H              14.70340000      9.32360000      4.35404000      0.00032917     -0.00430268      0.00086883       1
H              14.93500000     12.06550000      3.79975000     -0.00014605      0.01026970      0.00023433       1
O              18.62690000     19.00860000     18.36230000     -0.00523322      0.00692361      0.00355090       8
H              17.20400000     18.45360000     17.29390000      0.00114021     -0.00046768     -0.00092397       1
H              17.85040000     20.34230000     19.40440000      0.01132770     -0.01161940     -0.00149554       1
O               3.16492000     22.12810000      6.61069000      0.00656663     -0.00911284     -0.00157694       8
H               4.81804000     22.10410000      5.84555000      0.00340970      0.00448522     -0.00367775       1
H               3.33731000     20.98280000      8.01355000     -0.00808833      0.00011259     -0.00094590       1
O              16.20530000      6.63492000     13.37390000      0.00015645      0.00537366     -0.00190169       8
H              15.93010000      5.79722000     14.97010000     -0.00017242     -0.00231698     -0.01002540       1
H              15.30160000      8.21050000     13.65520000      0.00764691     -0.00980909     -0.00582318       1
O              22.38390000     20.67320000     15.93930000     -0.00216641      0.00012547     -0.00456323       8
H              24.07170000     19.81950000     15.74940000     -0.01069050      0.00528033      0.00780987       1
H              20.97070000     19.75300000     17.10170000      0.00164865      0.01997190     -0.00660187       1
O               7.93508000     17.46520000      2.26599000     -0.00359067      0.00151801      0.00327052       8
H               5.78724000     19.37190000      1.90864000      0.03049510     -0.00863688     -0.00439375       1
H               9.53863000     17.63460000      1.40112000     -0.01587840      0.00607235      0.00386054       1
O               6.59181000     13.08180000      9.16497000      0.00194778      0.00015382     -0.00671531       8
H               6.74665000     12.74550000     10.93280000     -0.00107100      0.00085567      0.00804829       1
H               8.13186000     13.92640000      8.66893000      0.00340914      0.00049330      0.00045425       1
O               5.70654000     13.42830000      3.51653000     -0.00190497     -0.01121470      0.00040291       8
H               6.75085000     14.98990000      3.13605000      0.00189182      0.00816580     -0.00465511       1
H               5.31984000     13.37650000      5.27957000      0.00213889     -0.00035110      0.00164491       1
O              23.44180000     14.43680000     10.05040000      0.00299672     -0.00778237     -0.00479139       8
H              24.14570000     12.74560000      9.85431000     -0.00848579      0.01023180     -0.00423408       1
H              22.55190000     14.81260000      8.48983000      0.00523833     -0.00532504      0.00745493       1
O              12.59380000      5.25311000     16.85470000      0.00299337      0.00751487     -0.00070928       8
H              11.46210000      6.44688000     16.02550000     -0.00040293     -0.00419635     -0.00220607       1
H              13.70110000      6.33464000     17.79740000     -0.00392036     -0.00039216      0.00629351       1
O               8.08705000     11.63560000     22.88900000      0.01739500     -0.02249750     -0.00367162       8
H               7.61544000     11.36960000     24.64360000      0.00579952      0.00402765     -0.00711703       1
H               9.21555000     10.20100000     22.46730000     -0.01565420      0.02096520      0.00732108       1
O              11.53680000      7.60591000      4.60888000     -0.00980352     -0.00534168      0.00346076       8
H               9.72297000      7.45670000      4.79513000      0.00575120     -0.00098376      0.00160520       1
H              12.27970000      6.29994000      5.67412000     -0.00437856      0.00619086     -0.00237485       1
O               1.20915000      2.80732000      5.17806000      0.00051667     -0.00515401     -0.00450237       8
H               1.93088000      1.12020000      5.29000000     -0.00125616      0.00809127      0.00039306       1
H               0.00835500      2.61397000      3.80438000      0.00153641      0.00195814      0.00043738       1
O              12.85950000     17.74430000     21.59240000      0.00024772     -0.00596548      0.00228501       8
H              13.16970000     16.45840000     22.87690000     -0.00253372      0.00974523     -0.00039196       1
H              14.03220000     19.14150000     21.92040000     -0.00817718     -0.00324151      0.00653688       1
O              18.22020000      6.59520000      1.31358000      0.00577236      0.04320430      0.00063106       8
H              19.32400000      6.50564000     -0.12364900      0.00577832     -0.00729621     -0.00024036       1
H              18.63830000      8.37993000      1.87310000     -0.00970334     -0.04075280     -0.00213080       1
O              13.08780000     15.59260000      2.43961000     -0.00288610     -0.00850985      0.00358248       8
H              13.97850000     16.44530000      3.79735000      0.00320823     -0.00175405     -0.00749734       1
H              11.39190000     15.37400000      3.09156000      0.00381137      0.00198754     -0.00060548       1
O              15.70140000     10.74430000     16.93860000     -0.00621533      0.00170765     -0.00226727       8
H              16.99320000     10.91600000     18.18470000      0.00138004     -0.00074602      0.00275165       1
H              16.18470000     11.92950000     15.63090000     -0.00005748     -0.00429299      0.00529159       1
O               2.02238000      1.72934000     20.94880000     -0.01027920     -0.00326057     -0.00979231       8
H               1.35239000      1.63607000     19.19880000      0.00396112      0.00016803     -0.00007998       1
H               3.72952000      2.25379000     20.78140000      0.00533112      0.00140857      0.00571409       1
O              17.60740000     22.29260000     14.06080000      0.01040680     -0.00365728      0.00600537       8
H              19.32680000     21.70190000     14.21660000     -0.00950804      0.00880682      0.00386297       1
H              17.26320000     21.56550000     12.44130000     -0.00840770      0.00249767     -0.01612900       1
O              15.52370000     21.95140000     22.08350000     -0.00136860      0.00568732     -0.00436318       8
H              14.81680000     23.04830000     20.81080000     -0.00378677      0.00105244     -0.00117497       1
H              15.56560000     22.95940000     23.62740000      0.00923481     -0.00131634     -0.00517196       1
O              17.29010000     20.85410000      9.05788000     -0.00728379      0.00814610      0.00054922       8
H              18.56430000     20.81720000      7.71960000     -0.00087347     -0.00497790      0.00987647       1
H              16.11380000     22.08910000      8.39518000     -0.00488015     -0.00308813     -0.00029039       1
O              22.55990000     13.99440000      1.23960000     -0.00432327      0.01468210     -0.00851204       8
H              23.86810000     12.90580000      0.63955200      0.01583180     -0.00135010     -0.00630743       1
H              21.76570000     12.87570000      2.54669000     -0.00205349      0.01032920     -0.00705265       1
O              20.62460000     10.93790000      4.13501000      0.00714404     -0.00451752     -0.00735442       8
H              18.82220000     11.09540000      4.40052000     -0.00463707     -0.00398195      0.01245360       1
H              21.50250000     10.09470000      5.49705000     -0.00915148     -0.00194157      0.00725167       1
O               6.46203000     12.68610000     14.60040000     -0.00416736     -0.01226790      0.00174165       8
H               4.99122000     12.36710000     15.63700000     -0.00408018      0.00485894     -0.00143676       1
H               6.74745000     14.45350000     14.51480000      0.00498489      0.01284670      0.00553999       1
O              15.97750000     15.43920000     10.37970000     -0.00732385      0.01101110     -0.00226943       8
H              16.10480000     17.27060000     10.45460000      0.00615082     -0.00593626      0.00199182       1
H              16.84850000     14.79170000     11.85660000     -0.00348029      0.00568826     -0.00022306       1
O               5.77968000     17.57920000     20.57490000      0.01073920     -0.00940561     -0.01200070       8
H               6.58066000     15.96240000     20.93720000     -0.00610070      0.00254727      0.00729388       1
H               7.22086000     18.53460000     20.01690000      0.00195300     -0.00113300      0.00655615       1
O               6.46353000      7.68591000      8.55490000     -0.01629960      0.00100095      0.01818140       8
H               4.98916000      7.31583000      9.68844000      0.02210740      0.00503832     -0.01547870       1
H               6.99706000      9.40727000      8.90311000     -0.00391697     -0.00328791     -0.00224269       1
O               5.68045000      5.96058000      3.81806000     -0.01047480      0.00844715     -0.00291517       8
H               5.32995000      7.31243000      5.01350000      0.00360919     -0.01163360     -0.00319618       1
H               4.14186000      4.96065000      3.82835000      0.00328819      0.00392513      0.00499012       1
O              17.33510000      1.10618000      1.71888000     -0.00010082      0.00053218     -0.00311897       8
H              17.02000000      2.87174000      1.39746000      0.00225767      0.00117874      0.00595162       1
H              19.09480000      0.89148000      1.22073000     -0.00106210     -0.00037184      0.00295421       1
O               9.32384000      8.44913000     13.98940000      0.00386400      0.00817423      0.00364812       8
H               8.64425000     10.02170000     14.69410000      0.00544724     -0.00865087     -0.00917204       1
H              10.21860000      8.98891000     12.47660000     -0.00087597     -0.00125353      0.00457700       1
O               8.35431000      3.13511000     19.54020000      0.01288600     -0.01096780      0.00531220       8
H               8.12986000      4.30131000     20.90030000      0.01138880      0.00150953      0.00947317       1
H               6.67981000      2.76752000     19.07760000     -0.01635000      0.00136873     -0.01153810       1
O               4.60295000     20.33450000     24.72240000     -0.01126780      0.00440784      0.00730203       8
H               5.22885000     22.36860000     24.57890000      0.00173269      0.01877520      0.02254160       1
H               4.83102000     19.14450000     23.33210000      0.00097988      0.00815796     -0.01061580       1
O               8.12032000     22.27810000     16.68940000      0.00786110      0.00094159     -0.00629825       8
H               7.63981000     23.41560000     14.86440000     -0.00099114      0.01805920     -0.00392673       1
H               9.55225000     22.98540000     17.67130000     -0.00194138      0.00275592     -0.00474976       1
O              23.71210000      6.33664000     17.36100000     -0.00118785      0.00234162     -0.00153527       8
H              23.32270000      6.05661000     19.11550000      0.00124339      0.00796506     -0.00146326       1
H              24.13370000      4.60919000     16.70440000     -0.00475062     -0.00345915      0.00172398       1
O              13.91400000     23.67090000      6.05289000      0.00906337     -0.00043662     -0.00103837       8
H              14.82640000     23.59010000      4.45878000     -0.00586492     -0.00202407      0.00599680       1
H              12.41730000     22.60900000      5.96244000     -0.00097655      0.00703817     -0.00961253       1
O               3.00367000     18.53310000     10.85860000      0.00541083     -0.00781966     -0.00379454       8
H               2.41965000     16.98210000     10.05250000     -0.00472102      0.00601235      0.00230482       1
H               3.63740000     17.92590000     12.44550000     -0.01009900     -0.00225534      0.00038736       1
O               2.55528000     18.31090000     16.11430000      0.00995811     -0.00478955      0.00016952       8
H               2.62526000     17.04250000     17.42630000     -0.00243436      0.00123251      0.00006777       1
H               4.26367000     18.88870000     15.94690000     -0.00213031     -0.00054493      0.00401081       1
O               6.20038000      0.57407000      1.57169000     -0.00064930     -0.02022320     -0.00560360       8
H               5.53710000      2.19673000      2.09624000      0.00128905     -0.01848790     -0.01066000       1
H               6.62125000     -2.00778000     17.67130000     -0.00474504      0.00920186      0.01144720       1
O              13.27490000      0.00119000     17.12060000     -0.00521631     -0.00405676     -0.00430720       8
H              14.68740000     -0.19505300     15.94970000     -0.00674304     -0.00525567      0.00546082       1
H              12.60100000      1.67271000     16.81580000      0.00784187      0.00940037      0.00588778       1
O              22.78570000      0.56222600      0.79849900      0.00331272     -0.00080145      0.00217204       8
H              23.03900000     -1.09472000      1.53395000     -0.00237488     -0.00001783     -0.00747350       1
H              24.10280000      0.70954400     -0.49252300     -0.00805919      0.00300447      0.00481509       1
O              21.53170000      7.40828000     12.91860000     -0.00551781      0.00314390     -0.01026040       8
H              21.89230000      7.15783000     14.69110000      0.00518604     -0.00321714      0.00848153       1
H              19.73310000      7.06304000     12.79120000      0.00036835      0.00125243     -0.00106032       1
O              14.09090000     17.21200000     16.88820000     -0.00331784     -0.00308982      0.00213631       8
H              12.66670000     16.52490000     15.98380000      0.00692607      0.00450887     -0.00416643       1
H              13.49550000     17.30010000     18.66170000      0.00401613     -0.00380519     -0.00187082       1
O              24.34480000      1.61113000     16.01160000     -0.00407908     -0.02057930     -0.00392107       8
H              22.54420000     -1.45217000     15.75680000      0.01349250     -0.00121618      0.01710050       1
H              24.86120000      1.57034000     14.26200000     -0.00541735      0.00291067      0.01193140       1
O              21.17830000     20.03280000      6.22836000      0.01005690      0.00650812      0.00275306       8
H              22.15430000     21.29680000      7.07200000      0.00132920      0.00348352      0.01178190       1
H              22.17260000     19.91150000      4.66863000     -0.00183742     -0.00546171     -0.00818220       1
O               8.64491000     22.93500000      5.56208000     -0.00151655      0.00534978     -0.00189596       8
H               7.77523000     23.39950000      3.92080000      0.00146834     -0.00255350     -0.00657671       1
H               8.94927000     24.65720000      6.11910000     -0.00575916     -0.00338299      0.00831726       1
O               9.40437000     17.88680000     14.32930000     -0.00286088      0.00156440     -0.00009129       8
H               9.27516000     19.24950000     15.52670000      0.00597003     -0.00852206     -0.00461424       1
H               9.85326000     18.75500000     12.76270000     -0.00857469     -0.00976887      0.00344361       1
O              14.12220000      4.57103000      7.79743000      0.00139914     -0.00835833      0.00073458       8
H              14.76910000      4.29840000      9.48659000      0.00019124      0.00567015     -0.00537591       1
H              14.37490000      3.01650000      6.84345000      0.00285051     -0.00129360      0.00819364       1
O               5.36436000      5.42578000     16.33640000      0.00752255     -0.00363076     -0.00504361       8
H               4.36118000      5.88883000     14.87920000      0.00154807      0.00827463      0.00339309       1
H               6.73537000      6.63569000     16.52200000     -0.01134150     -0.01154670     -0.00861382       1
O               6.72613000      1.02222000     13.31140000      0.00019144      0.00257258     -0.00083249       8
H               6.57720000      2.64540000     14.19910000     -0.00454578      0.00209582      0.01068420       1
H               7.18182000      1.52641000     11.58580000      0.01208770     -0.01021640      0.00164272       1
O               7.94878000     19.48650000      9.79802000     -0.00263832      0.01985730      0.00304859       8
H               7.78935000     20.93670000      8.70227000      0.00816041      0.00199816     -0.00974906       1
H               6.23498000     19.22730000     10.38490000      0.00128204     -0.00860213     -0.00653449       1
O              11.27180000     16.22100000      7.64231000      0.00759604     -0.00182533      0.00373976       8
H              12.84600000     16.37810000      8.58121000     -0.01747740      0.00230009     -0.00480460       1
H              10.27190000     17.75030000      7.80929000      0.00669104     -0.00878373      0.00288645       1
O               1.04486000      0.39574900     10.75490000      0.01076680      0.00648088      0.00379969       8
H               2.31505000     -0.54019200     11.67990000     -0.00660441      0.00179405     -0.00952999       1
H               1.86423000      0.92455600      9.20366000     -0.00566200     -0.00687706      0.00371186       1
O              21.95980000     14.91130000     19.56310000     -0.00357966      0.00053858      0.00334832       8
H              20.42630000     15.80620000     19.20040000     -0.00191679      0.00707362      0.00205566       1
H              21.99580000     14.87600000     21.38830000      0.00095702     -0.00497287      0.00742969       1
O              -0.06082200      6.65078000     23.04030000      0.00808056      0.00212055      0.00372472       8
H               0.96103800      5.24560000     22.46160000     -0.00281563      0.00416079      0.00706024       1
H               1.10774000      7.91065000     23.73900000     -0.00736989     -0.00649406     -0.01027520       1
O              17.15730000     16.60320000      5.38780000      0.00284812     -0.00051215      0.00146434       8
H              18.39740000     17.86780000      5.84519000     -0.00609204     -0.00890463     -0.00358106       1
H              16.68880000     15.81190000      6.96849000      0.00738132      0.00016358     -0.00335443       1
O              23.20020000      8.68351000      7.84322000      0.00856402     -0.00314916     -0.00038267       8
H              22.66440000      7.69917000      9.29928000      0.00124112      0.00300051     -0.00717368       1
H              24.28950000      7.64837000      6.79872000     -0.00560459     -0.00177673      0.01100370       1
O              12.41940000     10.60960000      9.85843000      0.00352086     -0.00056584     -0.00364459       8
H              13.04080000     12.29810000      9.54558000     -0.00280122     -0.00627063      0.00230166       1
H              12.97790000      9.65541000      8.40470000     -0.00269956      0.00480516      0.00495095       1
O              23.69760000     19.69090000      2.08901000      0.00346514     -0.00427334     -0.00018379       8
H              23.07510000     18.00630000      1.66815000      0.01418670     -0.00007632     -0.00135549       1
H              25.55510000     19.80380000      2.08493000     -0.01574280     -0.00994790     -0.00487968       1
O               2.67981000      6.00288000     11.64340000     -0.00767823     -0.00206732      0.01125720       8
H               2.15642000      4.24677000     11.72790000     -0.00333310      0.00651340     -0.00432706       1
H               1.19440000      6.95708000     12.16790000      0.00337413     -0.00788385     -0.00433553       1
O               9.00637000      3.20255000      8.34052000     -0.00019839      0.00520195      0.00870631       8
H              10.81160000      3.45115000      8.09605000     -0.00598029      0.00224240      0.00834535       1
H               8.27423000      4.91371000      8.37960000     -0.00003556     -0.00640937     -0.00275983       1
O              18.91710000     13.74940000     14.11020000     -0.00107480      0.00444222      0.01419300       8
H              19.73620000     13.91830000     15.73900000      0.00020217     -0.00211041     -0.01417960       1
H              20.18160000     13.32760000     12.89670000      0.01372340     -0.00291269     -0.00247691       1
