192
TotEnergy=-1104.08633000 cutoff=-1.00000000 nneightol=1.20000000 pbc="T T T" Lattice="24.30641000       0.00000000       0.00000000      -0.00000100      24.30641000       0.00000000      -0.00000100      -0.00000100      24.30641000" Properties=species:S:1:pos:R:3:force:R:3:Z:I:1
O              17.83080000     12.32630000      8.30896000     -0.00305356      0.00313302     -0.00322337       8
H              16.64350000     12.18070000      6.92113000     -0.00016712     -0.00175128      0.00437389       1
H              18.47270000     14.03020000      8.21779000      0.00357405      0.00408156     -0.00319237       1
O              16.26700000     18.70120000     15.66120000      0.00041574      0.00221346     -0.00146560       8
H              17.47230000     19.94040000     16.30390000      0.00173461     -0.00162926      0.00346437       1
H              14.64910000     19.42410000     16.11870000     -0.00074843      0.00109090     -0.00181157       1
O              16.42960000     13.35710000     13.57390000     -0.00217304     -0.00196676     -0.00230199       8
H              16.40950000     13.34450000     11.76030000      0.00330356     -0.00795373     -0.00424030       1
H              16.21310000     15.09970000     14.00120000      0.00025356      0.00697582      0.00495146       1
O               9.31906000     16.15120000     10.60650000      0.00008197      0.00224666      0.00108824       8
H               9.25853000     17.50660000     11.82490000     -0.00800968      0.00160657      0.00137416       1
H               9.87112000     16.96690000      9.06961000      0.00316796     -0.00429700     -0.00138085       1
O               2.86710000     10.16410000      6.56444000     -0.00273406      0.00124585     -0.00062929       8
H               1.07447000      9.78360000      6.67879000     -0.00000359      0.00094120     -0.00195901       1
H               3.29081000     11.21340000      8.01709000      0.00482791     -0.00466938      0.00169123       1
O               6.82548000     22.77960000     20.41240000      0.00088019     -0.00089769     -0.00109226       8
H               6.41691000     23.50630000     18.78730000     -0.00013185      0.00097040      0.00082186       1
H               5.18072000     22.46370000     21.11810000     -0.00277442      0.00212710      0.00018577       1
O               7.33119000     19.67080000     14.56600000      0.00145903     -0.00152478     -0.00236184       8
H               5.55896000     19.85570000     14.17970000      0.00220155     -0.00301815      0.00109006       1
H               7.38389000     18.57750000     16.02880000      0.00037442      0.00450295      0.00115367       1
O               9.31295000     -0.02044700      0.58374800      0.00362139     -0.00069114     -0.00011169       8
H              11.10470000      0.31894800      0.26242700     -0.00194891      0.00102835      0.00218345       1
H               8.48611000     -0.03029800     23.25260000      0.00025719     -0.00116749     -0.00124729       1
O               2.82979000      5.31484000     11.34960000     -0.00015258      0.00510936      0.00420328       8
H               2.94757000      4.98679000     13.12430000      0.00223524     -0.01018700      0.00246424       1
H               2.14569000      6.98313000     11.35830000     -0.00217232      0.01040120     -0.00381006       1
O               1.35523000     22.92280000     22.39890000      0.00004019     -0.00030384     -0.00287266       8
H               0.86631300      0.30870600     22.88860000      0.00025935      0.00026596     -0.00087163       1
H               2.04526000     22.08840000     23.88510000      0.00337713      0.00251533     -0.00192695       1
O              20.43580000     17.35020000      7.76110000     -0.00665421      0.00163831      0.00469975       8
H              19.35340000     18.52110000      8.70074000      0.00539263     -0.00030495     -0.00886489       1
H              20.11320000     17.62170000      5.96323000      0.00339159      0.00031173      0.00390279       1
O               4.58683000     12.48650000     10.65840000      0.00438887      0.00792086      0.00455530       8
H               5.99494000     13.64610000     10.61150000      0.00437659      0.00185338     -0.00562761       1
H               3.16636000     13.54450000     11.05810000     -0.01051500      0.00156341      0.00329696       1
O              22.01600000     19.35870000     22.18790000     -0.00391648     -0.00656177     -0.00364903       8
H              22.62880000     17.81820000     21.38420000     -0.00400134      0.00327010      0.00169123       1
H              23.44570000     20.52650000     22.19000000     -0.00472110      0.00425973      0.00151803       1
O               5.77090000      5.62851000     18.31100000      0.00100226     -0.00066225     -0.00205766       8
H               6.12624000      6.54697000     16.77860000      0.00251774      0.00744409      0.00207625       1
H               7.42784000      5.41537000     19.13140000     -0.00002053      0.00211907      0.00151193       1
O               0.59271400      2.26953000      7.88329000      0.01140570     -0.00779387      0.00110948       8
H               2.13409000      1.22528000      7.89554000     -0.01052010      0.00066921     -0.00393627       1
H               1.13407000      3.61352000      8.99434000      0.00262304      0.00436083      0.00558175       1
O              10.22620000      5.34075000     20.82010000      0.00023511      0.00198626     -0.00289364       8
H              11.52170000      5.89887000     19.65350000     -0.00146663      0.00059029     -0.00147187       1
H              10.05830000      6.71037000     22.00620000      0.00120755      0.00073201      0.00402953       1
O               0.37261800     22.91040000     15.55490000     -0.00649427     -0.00217120     -0.00322850       8
H               1.76475000     -0.20816500     15.77400000     -0.00112074     -0.00629984     -0.00050823       1
H              23.84410000     23.38040000     13.99230000     -0.00249735      0.00955062      0.00481950       1
O              13.69200000      0.38640500      9.16376000     -0.00268338     -0.00287350      0.00068593       8
H              13.35570000     -0.61424600      7.68435000      0.00416943      0.00283876     -0.00168828       1
H              14.24460000      2.04645000      8.58147000      0.00081928     -0.00118618      0.00259677       1
O              19.25220000     17.77960000      2.59747000     -0.00042667     -0.00162544      0.00217083       8
H              17.94830000     16.52380000      2.29340000      0.00268900     -0.00020913     -0.00861509       1
H              19.89330000     18.20720000      0.93034800      0.00531661      0.00152551      0.00468606       1
O               3.82742000     17.32430000     19.86680000     -0.01156450      0.00588070      0.00607233       8
H               5.64695000     17.04540000     19.93160000     -0.00176833     -0.00543060     -0.00566790       1
H               3.47150000     18.49560000     21.22220000     -0.00188264     -0.00637820     -0.00416559       1
O              11.92310000     22.29650000     16.76690000      0.00673635     -0.00341653     -0.00319653       8
H              10.57150000     22.27610000     15.54730000     -0.00275979     -0.00460643      0.00909474       1
H              11.23500000     21.82040000     18.38010000     -0.00470540      0.00032169     -0.00397783       1
O               7.45206000      9.45696000     13.84780000     -0.00130367     -0.00132613      0.00004087       8
H               8.77958000     10.47350000     14.59550000     -0.00051960     -0.00156573      0.00327614       1
H               6.20521000     10.65110000     13.22540000      0.00231234     -0.00571388      0.00019549       1
O               6.46884000      2.25667000      4.26356000     -0.00212671      0.00642296      0.00040678       8
H               7.77093000      1.85763000      3.03127000     -0.00317551     -0.00385864     -0.00176550       1
H               6.51081000      4.07510000      4.48735000      0.00195885     -0.00091627      0.00131006       1
O               8.78278000      2.10866000     11.19600000      0.00198109      0.00257951      0.00213197       8
H              10.33990000      1.34179000     10.64460000      0.00410802     -0.00437824     -0.00046496       1
H               9.07813000      3.86126000     10.78390000     -0.00542656     -0.00076276      0.00263111       1
O              16.11230000     14.26090000      0.16958400     -0.00157494      0.00023926      0.00000635       8
H              16.29510000     14.52190000     22.67510000      0.00583648     -0.00228755     -0.00068400       1
H              16.79350000     12.57490000      0.45500300     -0.00761063      0.00137520     -0.00186820       1
O              17.84120000     21.15600000     10.63430000      0.01007490     -0.01088240      0.01109540       8
H              16.40330000     22.24690000     10.53360000     -0.00795142      0.00870747     -0.00717962       1
H              17.68520000     20.37210000     12.28390000     -0.00257708      0.00141747     -0.00428495       1
O              19.05420000      6.13231000     12.24720000      0.00789955      0.00260163     -0.00346393       8
H              19.62990000      4.42073000     12.46850000     -0.00766341     -0.00878720      0.00123809       1
H              20.63470000      7.03396000     12.16380000     -0.00102647      0.00687989     -0.00010167       1
O               8.57529000     16.21890000     19.17350000      0.00857987      0.00377771      0.00536531       8
H               9.47224000     15.18680000     17.99450000      0.00350698     -0.00920961     -0.00599753       1
H               9.84423000     16.75500000     20.40460000     -0.00227582      0.00473333     -0.00328534       1
O              15.30100000      2.16682000     14.58730000      0.00288409      0.00843517     -0.00204172       8
H              15.27850000      1.83513000     16.37700000     -0.00187955     -0.00388016     -0.00214457       1
H              14.19250000      0.99207300     13.77810000     -0.00077687     -0.00052520      0.00582741       1
O              17.29890000      9.03511000      0.26065000      0.00039786     -0.00224045      0.00090087       8
H              19.10100000      8.98482000      0.10661100      0.00267170      0.00308710     -0.00273150       1
H              16.93840000      7.41405000      1.02366000     -0.00350195     -0.00000512      0.00348606       1
O              19.68260000     21.93660000     18.09410000      0.00387806     -0.00382115      0.00547510       8
H              21.33280000     22.56470000     17.63220000      0.00266951      0.00193589     -0.00884259       1
H              20.10940000     20.87630000     19.54070000     -0.00103760      0.00043590      0.00313969       1
O               6.94976000      7.83171000      5.04964000     -0.00108872     -0.00475370      0.00495284       8
H               7.44080000      8.80937000      3.60369000      0.00042033     -0.00175478      0.00124694       1
H               5.38555000      8.60285000      5.70547000      0.00478773     -0.00330258     -0.00657178       1
O              13.06330000      7.65103000     16.30730000      0.00248164     -0.00149289      0.00100083       8
H              13.67730000      6.12130000     15.53900000     -0.00195806     -0.00440073     -0.00340266       1
H              14.63590000      8.50221000     16.68180000     -0.00118962     -0.00118274      0.00369783       1
O              23.17710000     14.71630000     20.10110000      0.00022274     -0.00362894      0.00351743       8
H              22.82980000     13.87140000     21.67540000      0.00245150     -0.00509217      0.00308389       1
H               0.69084200     14.82100000     20.00850000      0.00215708      0.00187625     -0.00221398       1
O              12.78780000     11.89370000      5.32227000      0.00336199     -0.00260285      0.00204077       8
H              12.08870000     10.97830000      6.72666000     -0.00223433     -0.00057799      0.00355762       1
H              12.25760000     10.92040000      3.87072000     -0.00036479      0.00379231     -0.00045362       1
O              10.47970000      9.72389000      0.45765600      0.00156475      0.00116734     -0.00045533       8
H              12.03770000     10.29860000     -0.26039300      0.00496771     -0.00082467     -0.00249069       1
H               9.38380000     11.19750000      0.36690000     -0.00355899      0.00068258      0.00019428       1
O              22.71780000     11.23170000      0.67361200     -0.00091885      0.00015658     -0.00041568       8
H              23.84610000     12.22770000      1.71493000      0.00310168      0.00263376     -0.00567235       1
H              23.77100000      9.97586000     -0.12461000      0.00448077      0.00529356      0.00219348       1
O              10.21070000      7.94571000      9.49605000     -0.00014277     -0.00129415      0.00457511       8
H               9.16481000      8.47225000     10.93050000      0.00314923     -0.00180144     -0.00363921       1
H               9.07943000      7.54645000      8.11805000     -0.00165629      0.00507785     -0.00298388       1
O              18.29010000      9.02294000     17.23470000      0.00568988      0.00089672     -0.00038748       8
H              18.04390000     10.81680000     17.07740000     -0.00091007      0.00385700      0.00171872       1
H              18.75550000      8.44453000     15.57200000     -0.00440711     -0.00402017     -0.00242175       1
O              14.93140000      5.60701000      8.43800000     -0.00136837      0.00401003      0.00383224       8
H              13.59240000      6.51815000      9.28326000     -0.00964996     -0.00088100     -0.00559971       1
H              16.37100000      6.06408000      9.44481000      0.01122910     -0.00434072      0.00609281       1
O              11.19630000     13.30080000     15.15420000     -0.00425063     -0.00583227     -0.00486182       8
H              12.71270000     12.45750000     14.61060000      0.00957405     -0.00352929      0.01145910       1
H              10.72090000     14.02620000     13.57310000     -0.00856338      0.01134780     -0.00867382       1
O              23.01790000      9.63793000     13.42690000     -0.00397547      0.00341380     -0.00103579       8
H              22.76590000      9.93832000     15.19750000      0.00146172     -0.00247088      0.00049651       1
H              22.48380000     11.21570000     12.66390000      0.00838533      0.00089075      0.00049909       1
O               8.74851000     19.32020000      1.88887000     -0.00478799      0.00057970      0.00349159       8
H               8.97852000     21.15610000      1.89145000     -0.00197523     -0.00004356      0.00029396       1
H               9.56162000     18.60410000      3.36865000      0.00142701      0.00547189      0.00302728       1
O               7.41067000     13.93920000      1.15044000     -0.00460951     -0.00140428     -0.00187922       8
H               8.19078000     15.56600000      1.08918000      0.00453484      0.00345188     -0.00172920       1
H               5.64068000     14.32420000      0.96279000     -0.00057874     -0.00550071      0.00260985       1
O              14.43430000      0.59448400      0.44454000      0.00227318      0.00634820      0.00356376       8
H              14.93870000      2.06912000      1.41582000     -0.00025991     -0.00173843      0.00121341       1
H              15.21830000      0.84516200     23.11450000      0.00249580     -0.00040390     -0.00692971       1
O              17.74740000     14.44670000     19.13620000      0.00234646     -0.00199114     -0.00145662       8
H              17.34010000     15.76320000     17.93990000     -0.00229637      0.00105454      0.00217692       1
H              19.56360000     14.32700000     19.09290000      0.00007657      0.00349844      0.00098316       1
O               2.12602000     19.13360000      6.31632000     -0.00051906     -0.00352153      0.00074994       8
H               0.49410900     19.17070000      7.11406000      0.00175259      0.00199817     -0.00006582       1
H               3.22930000     20.28640000      7.21349000     -0.00235128      0.00190951     -0.00055165       1
O               5.10286000     23.49240000      8.24877000     -0.00130218      0.00066012     -0.00329624       8
H               5.84084000      0.21037100      6.89147000     -0.00191573     -0.00247850     -0.00228981       1
H               6.10479000     23.97990000      9.68459000      0.00004167      0.00251281      0.00205310       1
O              22.09560000      9.78407000      6.25069000      0.00213605      0.00355969     -0.00191001       8
H              21.80890000     10.92860000      4.85873000     -0.00083635     -0.00526299      0.00143469       1
H              21.08440000     10.45480000      7.60585000     -0.00861261     -0.00039303      0.00006298       1
O               2.26729000     14.37390000      3.56483000     -0.00251774     -0.00044474      0.00069824       8
H               2.32605000     15.54690000      4.97251000     -0.00081395     -0.00061374     -0.00774954       1
H               2.89061000     12.80290000      4.26434000     -0.00064829     -0.00055524      0.00337409       1
O              16.61350000      4.67718000      3.58827000     -0.00255550      0.00775826      0.00347781       8
H              15.92700000      5.74818000      4.92446000     -0.00330936     -0.01142240     -0.00346378       1
H              18.24270000      4.21294000      4.26622000      0.00376152     -0.00125747     -0.00736752       1
O              22.05730000      4.88573000      4.22573000     -0.00049412     -0.00037295      0.00064870       8
H              23.04880000      4.03178000      5.50587000      0.00135126     -0.00679610      0.00050791       1
H              21.85980000      6.57713000      4.89217000      0.00071999      0.00191941     -0.00178854       1
O              21.54760000      0.87004200     11.74330000      0.00268596     -0.00592758      0.00057493       8
H              20.51990000     -0.48883900     11.08890000     -0.00611875      0.00167948      0.00253361       1
H              22.75550000      1.19510000     10.41050000      0.00078945      0.00297548     -0.00561844       1
O              12.02930000     18.55840000     22.30580000      0.00517376     -0.00036195      0.00049879       8
H              13.16260000     17.53230000     23.29770000     -0.00311828      0.00355814     -0.00150355       1
H              11.07670000     19.53700000     23.53660000      0.00189939     -0.00997921     -0.00355084       1
O              23.80560000     14.64100000     11.40060000      0.00324875      0.00223376      0.00139160       8
H              22.78700000     15.46700000     10.14090000      0.00067454      0.00300674     -0.00155337       1
H               0.15006900     15.95580000     12.53910000     -0.00391842     -0.00688184     -0.00013144       1
O              20.97720000      5.60405000     20.70160000     -0.00195469      0.00248339     -0.00002785       8
H              20.23050000      6.89745000     19.66340000     -0.00667539      0.00273240     -0.00348856       1
H              22.65360000      6.18292000     21.00150000      0.00803445     -0.00359544      0.00206881       1
O              11.96840000     17.67370000      5.86651000     -0.00703980      0.00401933     -0.00070531       8
H              12.57100000     15.96510000      5.62845000      0.00227091      0.00380405     -0.00443866       1
H              13.15430000     18.91470000      5.18124000      0.00429286     -0.00836209      0.00236421       1
O              17.06960000      1.74627000     20.08690000     -0.00178404     -0.00363580      0.00504975       8
H              18.11690000      0.43844500     19.31640000     -0.00317851      0.00109215      0.00405624       1
H              18.24090000      2.97293000     20.74830000      0.00247468      0.00127106     -0.00467944       1
O               3.46084000     19.48540000      0.83523100      0.00298006     -0.00421809      0.00465838       8
H               5.21021000     19.05030000      1.13187000      0.00396164      0.00625550      0.00052860       1
H               2.70506000     19.25890000      2.47333000     -0.00403684     -0.00208754      0.00315532       1
O               1.13057000      3.42741000      0.21315000     -0.00259147      0.00666498      0.00913211       8
H              -0.09616300      4.09319000      1.39924000     -0.01401910      0.00004986     -0.00184565       1
H               2.33201000      2.79076000      1.39740000      0.01577840     -0.00553642      0.00208644       1
O               4.79135000      1.26181000     16.05960000      0.01147420     -0.00053219     -0.00622627       8
H               6.14656000      1.21504000     14.84680000     -0.00259551     -0.00418349     -0.00624873       1
H               5.21065000      2.78867000     17.01340000     -0.00746321      0.00691816      0.00718008       1
O               3.14386000      8.40044000     23.26960000     -0.00295534      0.00307825      0.00074404       8
H               4.12456000      7.66488000     21.92190000     -0.00262706      0.00139979     -0.00130976       1
H               2.44624000      6.96144000     -0.17064500      0.00472868     -0.00607986     -0.00272112       1
O               1.74938000     17.97160000     14.68390000     -0.00045556      0.00098712      0.00179402       8
H               0.69841100     19.46750000     14.73160000      0.00671538      0.00620956      0.00281684       1
H               2.33028000     17.85710000     16.42370000      0.00015287     -0.00517569     -0.00098727       1
O              15.63140000     21.33460000      4.07376000     -0.00399026      0.00163993     -0.00218349       8
H              17.17500000     20.37400000      3.92802000     -0.00009478     -0.00150504     -0.00254596       1
H              15.57420000     22.33910000      2.52207000     -0.00591496     -0.00095835      0.00733345       1
