192
TotEnergy=-1103.24577000 cutoff=-1.00000000 nneightol=1.20000000 pbc="T T T" Lattice="23.46511000       0.00000000       0.00000000      -0.00000100      23.46511000       0.00000000      -0.00000100      -0.00000100      23.46511000" Properties=species:S:1:pos:R:3:force:R:3:Z:I:1
O               8.24890000     16.29450000     25.65570000      0.02396390     -0.05375530     -0.06368040       8
H               7.13136000     17.58240000     25.50640000     -0.06101520      0.05153280      0.00420727       1
H               8.85307000     16.15670000     27.24680000      0.03140970      0.00155291      0.07003330       1
O               8.14136000      4.20047000      6.50453000     -0.02591900      0.01021200      0.04081060       8
H               6.98560000      5.45679000      7.63144000      0.01229050     -0.02899290     -0.02844690       1
H               9.12268000      5.38344000      5.60327000      0.01586420      0.01796590     -0.02005960       1
O              -1.28927000     24.59310000      2.76117000      0.05660220      0.46928000      0.24915900       8
H              -1.34338000     23.36990000      2.08212000     -0.01515200     -0.43694200     -0.25023900       1
H               0.43561200     25.44030000      2.62460000     -0.04138850     -0.02454010      0.00317998       1
O              12.66550000      9.14361000     23.29260000     -0.03255410     -0.03292400     -0.03553030       8
H              12.81110000      7.66309000     22.03670000      0.01065690      0.03474110      0.02727870       1
H              10.81520000      9.51326000     23.01990000      0.02281950      0.00654405      0.01089200       1
O              18.42980000     10.02450000     11.03580000     -0.07078130     -0.07655940      0.05104120       8
H              16.94810000      8.56088000     11.82010000      0.07016650      0.06711310     -0.01149480       1
H              17.74370000      9.43074000      9.49187000      0.00634466      0.01478180     -0.03651650       1
O              15.73510000      3.41595000     25.78270000     -0.03224460     -0.04994800      0.05864070       8
H              17.19890000      2.51048000     26.29840000      0.00472069     -0.02012370      0.01646370       1
H              16.51810000      4.38577000     24.65070000      0.02735900      0.06564480     -0.07755850       1
O              -5.67052000      4.39161000      8.55056000      0.00042427     -0.04931790      0.01002960       8
H              -6.52647000      4.31769000     10.27150000      0.01724680     -0.00770045     -0.03083520       1
H              -5.04697000      2.56640000     31.57790000     -0.01423150      0.05571420      0.02107950       1
O              22.13130000     14.12430000     21.53480000      0.02021190     -0.03238950     -0.07293590       8
H              22.50340000     15.41880000     22.70530000      0.01938420      0.01317450     -0.00363193       1
H              23.21910000     14.08490000     19.68530000     -0.04038830      0.01987210      0.07627910       1
O               0.70089200     -9.34364000     16.69350000     -0.02027120     -0.03570560      0.04044220       8
H              -0.11184700    -10.82620000     16.01910000     -0.00333014     -0.01405090      0.00798116       1
H               1.15235000     -8.45182000     15.28850000      0.02179580      0.04293560     -0.04138420       1
O              22.08370000     15.86300000      5.15948000     -0.00168357     -0.02367640     -0.01352090       8
H              23.84140000     15.29170000      4.58750000     -0.03824360      0.00137257     -0.00785474       1
H              20.73330000     14.88540000      4.23631000      0.03308510      0.02047040      0.01925330       1
O               5.01140000     30.59730000     32.21170000     -0.06737780     -0.13565300     -0.00705794       8
H               3.22915000     30.31070000     31.45220000      0.04136430      0.01672170      0.02145890       1
H               5.37780000     32.20090000     32.16350000      0.01774720      0.12801600     -0.01106690       1
O               3.86215000     27.24570000      2.92806000      0.02716290      0.00086304      0.03598790       8
H               5.37962000     26.69940000      3.96907000     -0.02969460      0.01165470     -0.01969760       1
H               3.72552000     29.07190000      3.35761000      0.00608940     -0.02300640     -0.00789051       1
O              -5.50710000      9.03752000      5.28192000     -0.02753810     -0.04743330      0.02828460       8
H              18.89080000      9.15412000      3.79933000      0.02398940      0.01587670     -0.04078570       1
H              17.53650000      7.18625000      5.20707000      0.00016050      0.03589780      0.01519570       1
O              22.01420000      9.09055000     -6.71562000      0.04906100     -0.06259410      0.03207280       8
H              22.06730000      7.56796000     -7.88953000     -0.00358907      0.03534140      0.01753870       1
H              23.24860000      8.26895000     18.28020000     -0.04406670      0.02483220     -0.04871380       1
O              19.30660000     25.04630000     18.82190000     -0.00414677     -0.03088650      0.02077810       8
H              19.47000000     23.69260000     20.11650000      0.00733547      0.02199740     -0.00713019       1
H              17.89140000     24.32420000     17.94070000     -0.01115630      0.00585981     -0.01055510       1
O              11.40770000     17.32880000     -1.25273000     -0.10817900      0.12478000      0.01583460       8
H              12.54580000     16.19240000     -1.52743000      0.09278730     -0.10328500     -0.00318307       1
H              10.13870000     17.16190000      0.20263200      0.03116140     -0.01954820     -0.01925500       1
O              20.16070000     -3.82154000     11.60260000     -0.02904590     -0.01833990      0.03686260       8
H              19.33440000     -5.28594000     12.51010000     -0.01651090      0.03025800     -0.00068728       1
H              21.23620000     18.43470000     10.92260000      0.04459810     -0.01002580     -0.03469710       1
O              14.26130000      0.52143000     16.41880000      0.04327800      0.03818300     -0.07921790       8
H              14.00910000     -0.87698100     15.37350000     -0.00649988     -0.03566610     -0.00393651       1
H              13.80860000      0.42898700     18.03080000     -0.03507750     -0.01725640      0.09331700       1
O              15.33880000     27.58720000     13.29730000     -0.06137960      0.00519149     -0.02735240       8
H              38.68720000     26.17500000     14.42120000      0.01421290     -0.00990832      0.01491350       1
H              13.43710000     27.44580000     12.77790000      0.05196990      0.01459930      0.00517760       1
O              10.55490000      4.79439000     11.26510000      0.05212740     -0.01155520      0.03380360       8
H               9.88064000      4.52814000      9.69759000     -0.02243200     -0.01801580     -0.05974070       1
H               9.26342000      5.57840000     12.12200000     -0.04019720      0.01750290      0.03395270       1
O               5.02189000    -12.01560000     19.51690000      0.02660150     -0.00720699     -0.01387270       8
H               3.75791000    -10.78400000     19.02800000      0.01895490     -0.00670852     -0.01450320       1
H               6.56531000    -12.40070000     18.30320000     -0.05484710      0.01248250      0.02141330       1
O              10.25040000     17.84640000     -6.28397000     -0.06992660      0.05908530      0.00832455       8
H              10.47550000     17.32120000     -4.60668000      0.02583250     -0.02741770      0.03644580       1
H               8.71716000     19.01670000     -5.53019000      0.03932820     -0.03412790     -0.05346220       1
O               7.82976000      4.61768000     -1.90107000      0.05099750     -0.00490990     -0.04371740       8
H               8.90007000      3.63769000     -0.74417600     -0.01095070      0.00980228     -0.01298800       1
H               8.98720000      4.87691000     -3.49031000     -0.03662720     -0.00791521      0.05510390       1
O              15.75660000     13.84260000     22.76460000     -0.16754800     -0.00351555      0.15871000       8
H              14.89170000     12.11130000     23.47660000      0.02468050      0.06030680     -0.03622940       1
H              16.80970000     13.26380000     21.72430000      0.13058100     -0.06033810     -0.12823000       1
O              21.20580000      0.01347000      8.01482000      0.01852210      0.05904540      0.03337860       8
H              20.42930000     -1.00159000      9.22296000     -0.01222610     -0.03081410      0.02200590       1
H              20.92080000     -0.59141500      6.43514000     -0.01586720     -0.02605960     -0.05739180       1
O               3.32925000     32.31580000      2.04877000      0.04274670      0.08255650      0.06863400       8
H               4.78742000      9.29056000      1.06599000      0.01467880      0.00041477     -0.00380807       1
H               2.54276000     31.09000000      1.28256000     -0.06002060     -0.08286180     -0.07311370       1
O               8.24248000      8.88389000     16.64030000      0.06327170      0.06799230     -0.03767200       8
H               9.17920000     10.02490000     15.28400000     -0.00196973     -0.01824750      0.06445150       1
H               7.43214000      8.16655000     15.26840000     -0.04942680     -0.04823480     -0.01484620       1
O              -2.51213000      9.76180000      1.16726000     -0.02130460      0.01363450     -0.03256990       8
H              -1.23949000      9.62353000      2.39290000      0.02587350      0.00471990      0.00821463       1
H              -2.12460000     11.15940000     -0.06102100      0.00210266     -0.01549250      0.02100260       1
O              12.83000000     10.73100000     14.45730000      0.04311860     -0.00097550      0.01413760       8
H              14.47750000     11.02150000     15.43250000     -0.03908490     -0.00807223     -0.01353830       1
H              13.39390000      9.80568000     12.97570000     -0.00652831      0.01373860      0.00233308       1
O               2.70410000     21.94460000      7.75812000     -0.03127810      0.06337860      0.05149010       8
H               1.24149000     23.14200000      7.47483000      0.02527030     -0.02055020      0.02515500       1
H               2.72939000     21.27490000      6.20583000      0.01307360     -0.04638060     -0.07843020       1
O               6.04161000     -2.17702000     11.59770000      0.01844930     -0.03827510      0.01159390       8
H               5.53401000     -1.69082000      9.90194000     -0.01391450     -0.01186860      0.00673440       1
H               5.43323000     -3.99757000     12.13630000      0.00147237      0.05058220     -0.02071200       1
O               4.95112000     19.58230000     17.52400000     -0.01933920     -0.04033440     -0.02446220       8
H               4.66649000     21.34220000     17.01550000     -0.00858732     -0.01182300     -0.01153280       1
H               4.14007000     18.32000000     16.15800000      0.02828570      0.05872510      0.04540930       1
O              17.76480000     15.31780000    -10.05440000      0.05726900     -0.08511620     -0.01410660       8
H              16.12000000     15.95660000     -9.82144000     -0.03031140      0.00570618     -0.00134738       1
H              17.86950000     13.34600000    -10.44070000     -0.01555640      0.07172710      0.00995686       1
O              19.83740000     -2.69252000     -0.11897300      0.00710649     -0.09189660     -0.04749910       8
H              21.41360000     -3.60229000     23.69740000      0.00353006      0.02156440      0.00919820       1
H              19.42050000     -4.28337000     -1.34018000     -0.01159190      0.05849330      0.01839300       1
O              13.10470000      6.27544000     18.48240000     -0.05173390      0.02407950      0.04366680       8
H              14.31860000      5.50672000     17.56210000      0.04853550     -0.02800700     -0.03706510       1
H              11.97140000      7.03313000     17.30280000     -0.00424646      0.00870007     -0.00502894       1
O              12.38900000     24.04150000      6.84967000     -0.07197000      0.03086170      0.01901880       8
H              13.85580000     24.69340000      6.22697000      0.05815730      0.01196140     -0.02367570       1
H              11.32900000     25.65510000      6.88101000      0.01220300     -0.04321240      0.00303007       1
O              16.31000000     14.33790000      4.42551000      0.01016570     -0.04880180     -0.02673630       8
H              15.89410000     14.42740000      2.42679000      0.03044460     -0.01658670      0.06077690       1
H              16.95780000     12.49050000      5.10264000     -0.03505870      0.06677120     -0.03874470       1
O               7.50172000     11.15950000      0.19505000      0.00570862      0.01334980      0.00738862       8
H               6.46889000     11.83770000     -1.19078000      0.00225239     -0.01243450     -0.01051260       1
H               7.82500000     12.70510000      1.11961000      0.00160584     -0.00404554      0.00355940       1
O              16.75550000     20.76450000      3.68244000      0.05823090      0.02915010     -0.09890380       8
H              18.00310000     19.90260000      2.21846000     -0.04769110      0.03719830      0.06050020       1
H              16.26970000     19.69570000      4.91047000     -0.01558690     -0.05543230      0.04700110       1
O              13.21290000      8.72748000      9.56582000      0.00466802     -0.06554090     -0.00298527       8
H              12.64500000      7.04407000     10.45390000      0.01009680      0.04836590     -0.03038500       1
H              13.65150000      8.11904000      7.79973000     -0.01313820      0.01587510      0.02892640       1
O              11.84450000     15.88980000      6.26342000     -0.00933897     -0.02816970     -0.04036700       8
H              13.45960000     15.50830000      5.30407000     -0.01136530      0.00869917      0.03493460       1
H              11.86650000     16.91740000      7.70838000      0.01865290      0.02089690      0.01276660       1
O              17.63400000     29.58290000     21.23160000     -0.11807200     -0.08308530     -0.07417900       8
H              17.98410000     28.00370000     20.14090000      0.00121481      0.04144710      0.03195540       1
H              19.03410000     30.12510000     21.86790000      0.12601500      0.04435150      0.05064060       1
O               4.32829000     12.42280000      7.27976000      0.01183300      0.04932810      0.04620070       8
H               5.98099000     13.37530000      7.65122000     -0.03884710     -0.03061470     -0.00269845       1
H               3.03122000     13.20970000      8.49215000      0.03032070     -0.02078690     -0.03227610       1
O              14.47710000     18.70230000     13.91620000     -0.08919650      0.03159150     -0.01747620       8
H              13.01520000     19.32660000     12.41390000      0.05051990     -0.02404830      0.03786930       1
H              13.19490000     18.44820000     15.30680000      0.02110350      0.00070881     -0.02107750       1
O               1.64513000     19.65940000     22.28460000     -0.04313710     -0.03333220      0.04914630       8
H               2.52821000     19.76350000     20.83930000      0.05756170     -0.03330100     -0.08307380       1
H               1.43427000     21.37870000     22.17840000     -0.02122340      0.06838020      0.01843580       1
O               3.73612000     24.03390000     15.09740000      0.04199140      0.00362838      0.00822725       8
H               1.97909000     24.19490000     14.73070000     -0.00734628     -0.00802513     -0.00504464       1
H               4.75357000     23.41390000     13.64890000     -0.01956480     -0.00076138      0.00706647       1
O              -0.30420600     14.76540000     10.06840000     -0.00057487     -0.02217160      0.07226220       8
H              -1.02299000     14.82470000      8.41616000     -0.02151810      0.00005109     -0.01899280       1
H              -1.37200000     13.88920000     11.45040000      0.02431850      0.02465650     -0.05696060       1
O              -6.51583000     10.89660000     18.06550000      0.00099717     -0.04241360      0.04249140       8
H              16.37320000      9.59707000     19.34150000     -0.01056950      0.02562190     -0.02598760       1
H              -4.84509000     10.13270000     18.06050000      0.01142720      0.01283060     -0.02209290       1
O              32.91810000     12.32050000      9.22151000     -0.03838180     -0.05605580      0.01274450       8
H              33.99410000     13.25250000      8.22785000      0.03701960      0.04437150     -0.02882530       1
H              33.36220000     10.63580000      8.55804000     -0.00387106      0.01414790      0.01881300       1
O               3.65485000     17.04770000     13.13970000     -0.00342564     -0.04561590     -0.05100710       8
H               4.95422000     15.58520000     13.23620000     -0.00480634      0.02705390      0.01065090       1
H               2.78463000     16.57370000     11.48560000      0.00433193      0.01791050      0.03908420       1
O              23.10700000      7.26128000      7.15965000     -0.03113460      0.02780040      0.00604612       8
H              22.13290000      5.76535000      6.78287000      0.00070002      0.00525805      0.00504469       1
H              -1.67548000      8.55598000      7.72148000      0.03341490     -0.03644850     -0.01326770       1
O              26.14250000     14.07280000      2.76093000     -0.00833000     -0.03125870     -0.04205530       8
H              26.03100000     12.40860000      1.77192000      0.00017859      0.04060570      0.03092780       1
H              27.37040000     13.71400000      4.02754000      0.00406749     -0.00704467      0.00873261       1
O              22.37640000      0.11042100     14.87600000      0.00218038      0.04631250      0.02286880       8
H              21.24300000      0.57237600     16.24960000      0.00849559      0.00490161      0.00265770       1
H              21.63810000     -1.27541000     14.14300000     -0.02013840     -0.04970350     -0.03290410       1
O               8.77200000     23.19770000     25.64060000     -0.06048210      0.00857841      0.10203900       8
H               9.39219000     22.96810000     27.45470000     -0.01293080      0.00963293     -0.04510360       1
H              10.15970000     22.89740000     24.73840000      0.07375810     -0.01666950     -0.05478040       1
O             -17.95490000      5.37671000     14.40390000     -0.05188170      0.06956940     -0.06523140       8
H             -19.64010000      5.92669000     13.26160000      0.06996010     -0.04129380      0.05302630       1
H             -18.09410000      3.78276000     15.17570000     -0.02208590     -0.02737420      0.00224824       1
O              11.27870000     -3.32479000     10.10940000     -0.01766330     -0.02366020      0.02223480       8
H              12.05040000     -1.75951000      9.58377000     -0.01554190      0.00646098     -0.00735505       1
H               9.44223000     -3.21563000     10.63990000      0.03113940      0.01677480     -0.00892804       1
O              18.03120000     -5.71051000     19.04390000      0.06419160      0.01313120      0.04140530       8
H              16.39280000     -5.39324000     18.63990000     -0.04951100     -0.00162377     -0.02610170       1
H              18.93030000     -6.90183000     18.05310000     -0.01049900     -0.00867657     -0.01292480       1
O              25.27960000      6.44055000     20.06440000      0.03621250      0.01833720     -0.04667810       8
H              25.19630000      4.54328000     20.07850000      0.01482610      0.03187630     -0.00374339       1
H              26.71660000      7.16934000     18.80950000     -0.04840030     -0.03974280      0.05316580       1
O              27.91790000     19.78700000     26.14420000      0.08808380     -0.03244640      0.12966300       8
H              26.80560000     -3.62933000     24.94230000     -0.08194800      0.01087550     -0.10409200       1
H              28.98800000     21.17820000     26.38020000      0.00736480      0.02342970     -0.01427100       1
O              26.50800000     25.01940000     21.70770000      0.08334350     -0.00284779      0.02795280       8
H               4.80620000     24.95370000     20.83180000     -0.05605110      0.00413743      0.01773750       1
H              27.27630000     25.46260000     23.50670000     -0.03248670     -0.00082967     -0.05077880       1
O             -10.26710000     23.25210000     -1.59685000      0.01971640     -0.03195610      0.06072730       8
H             -10.70310000     21.33260000     -1.67376000      0.01810960      0.05169800      0.01405110       1
H              -9.33487000     23.71610000      0.22209000     -0.03506100     -0.02638780     -0.07636930       1
O              12.23910000      7.41837000      4.70294000      0.04821660     -0.01382160     -0.07524790       8
H              13.25020000      5.82316000      4.18767000     -0.02656170      0.04124860      0.01461040       1
H              12.66680000      8.50723000      2.92995000     -0.02101000     -0.03881720      0.05420990       1
O              22.95660000      4.88910000     12.62930000      0.01354490     -0.07866550      0.04907340       8
H              21.69370000      5.11141000     11.45190000     -0.03106710      0.01518550     -0.03581470       1
H              22.58360000      2.91997000     13.11980000      0.01720030      0.06802190     -0.01013930       1
O               7.51569000     -9.18587000     13.98940000      0.00759981     -0.02255990     -0.01743210       8
H               8.82011000     15.32650000     14.82870000     -0.00719367     -0.01438260     -0.01189070       1
H               8.12711000    -10.39350000     12.64310000      0.00591520      0.03592510      0.02505700       1
