192
TotEnergy=-1103.88045000 cutoff=-1.00000000 nneightol=1.20000000 pbc="T T T" Lattice="23.45566000       0.00000000       0.00000000      -0.00000100      23.45566000       0.00000000      -0.00000100      -0.00000100      23.45566000" Properties=species:S:1:pos:R:3:force:R:3:Z:I:1
O              10.57380000      4.75678000     22.29470000     -0.01056320      0.00029377     -0.00366466       8
H               9.62373000      3.58012000     21.27970000      0.00727975     -0.00311864     -0.00277351       1
H               9.92307000      4.20542000      0.47735000      0.01020060      0.00304883      0.00264607       1
O               0.96648300     20.08770000      1.46545000      0.00479038     -0.00218691     -0.00754385       8
H               1.64082000     20.18890000      3.14148000      0.00450061     -0.00381483      0.00282190       1
H              -0.06169200     21.59850000      1.23018000      0.00326253      0.00520064      0.00217078       1
O              10.79170000     16.41950000     17.79530000     -0.01137960      0.00724655     -0.00460300       8
H              10.02080000     15.94320000     16.21880000     -0.00134705      0.00632349     -0.00110550       1
H              11.95000000     15.06820000     18.07890000      0.00693358     -0.00436677     -0.00013460       1
O              18.93030000      5.09042000      2.13862000     -0.00228754     -0.00291558      0.00822318       8
H              17.74860000      5.08999000      0.71502000      0.00146993      0.00822184      0.00510232       1
H              19.98220000      3.61980000      1.94675000      0.00090460     -0.00813395     -0.00481171       1
O              13.86800000     12.05820000     18.08550000     -0.00186616      0.00385252     -0.00311682       8
H              15.34270000     13.08060000     18.36920000      0.00080116      0.00437575      0.00829747       1
H              12.93730000     11.97440000     19.64140000      0.00342268     -0.00825631      0.00140676       1
O               1.05207000     18.02150000     19.97530000      0.00018542     -0.00439436      0.00124817       8
H               2.68427000     17.66960000     19.26600000      0.00207566     -0.00029545      0.00176454       1
H               1.40034000     18.31090000     21.75730000     -0.00213502      0.00355088     -0.00472012       1
O               5.51165000     17.86370000     14.89950000     -0.00017421      0.00249484     -0.00147745       8
H               5.56173000     19.65590000     14.56850000     -0.00249657     -0.00122801      0.00363117       1
H               5.78823000     17.19500000     13.24060000      0.00473940     -0.00134176     -0.00295019       1
O               2.90423000      7.31122000      9.24502000     -0.00282068     -0.00108530     -0.00454018       8
H               1.87287000      7.86515000      7.84586000     -0.00361856      0.00099034     -0.00027364       1
H               1.68826000      6.85980000     10.53920000      0.00279129     -0.00047287      0.00078964       1
O               7.16842000      9.65178000      4.97254000     -0.00191840     -0.00298787      0.00513361       8
H               8.84660000      9.72547000      4.31173000      0.00312620      0.00287465     -0.01337510       1
H               6.51532000     11.28760000      4.51937000     -0.00861235      0.00245117      0.00052860       1
O              13.62580000     14.75550000      7.79893000     -0.00032346     -0.00195737      0.00173080       8
H              12.88390000     13.84210000      9.18851000     -0.00882997      0.00268989     -0.00312969       1
H              13.62230000     13.50140000      6.47345000      0.00785141     -0.00068144      0.00068119       1
O               3.43340000      6.02984000     20.21480000     -0.00862915      0.00173282      0.00611825       8
H               4.27822000      5.07808000     21.52870000      0.00177522      0.00452347      0.00071912       1
H               3.83194000      5.26277000     18.64020000      0.01022130     -0.00645107     -0.00838751       1
O               0.20754100      1.42686000     11.62120000      0.00111177     -0.00360770      0.00278926       8
H               1.87291000      0.64557300     11.65380000     -0.00378241      0.00146699     -0.00527899       1
H              22.80560000      0.76562100     10.15080000     -0.00340407      0.00196903     -0.00038151       1
O              22.67640000      3.03921000     19.52480000      0.00021901      0.00001646      0.00396123       8
H               0.12893300      4.39547000     20.35730000      0.00592520     -0.00234231     -0.00679788       1
H              23.88560000      2.23156000     18.43300000     -0.00317505     -0.00421631     -0.00101044       1
O              21.59000000     11.84880000     20.54190000      0.00188397     -0.00567823     -0.00148042       8
H              22.96500000     12.79770000     19.84910000      0.00026231      0.00499224      0.00012408       1
H              21.57450000     10.32080000     19.56590000     -0.00411928      0.00243677     -0.00143870       1
O              12.87950000     21.75830000     18.69370000      0.00226545      0.00470614     -0.00228548       8
H              11.53530000     22.82750000     19.33310000     -0.00081327     -0.00488697      0.00287527       1
H              12.02610000     20.28680000     18.02470000      0.00447273      0.00035832      0.00176466       1
O               5.51515000     11.84200000     10.41180000      0.01141210      0.00099795     -0.00674779       8
H               4.48883000     12.29130000     11.81230000     -0.00868482      0.00340164      0.00418061       1
H               4.64193000     10.52820000      9.50034000     -0.00009103     -0.00673615      0.00389475       1
O               3.23289000     13.95290000      4.33895000      0.00836049      0.00125365      0.00591189       8
H               2.34191000     13.14040000      3.01432000     -0.00650619     -0.00552196     -0.00859363       1
H               2.06936000     13.99880000      5.72202000     -0.00484828      0.00269261      0.00231427       1
O              23.12670000     15.14870000      8.65948000      0.00171697     -0.00714395      0.00189045       8
H              21.32370000     14.93380000      9.04243000      0.00944038      0.01251240     -0.00179328       1
H               0.51769600     15.01450000     10.28360000     -0.00488170      0.00125670     -0.00092207       1
O               4.17634000     11.47800000     21.68870000     -0.01032140     -0.00150246      0.00677548       8
H               4.32066000     13.27700000     21.87400000      0.00581518      0.00491462     -0.00348383       1
H               2.84029000     11.19690000     20.50240000      0.00603141     -0.00507484     -0.00102329       1
O              16.13800000      1.26134000     15.38650000     -0.02812830     -0.01828500     -0.02128160       8
H              17.39990000      1.89754000     16.40530000      0.02750890      0.02579680      0.02142560       1
H              14.92570000     24.01500000     16.56490000     -0.00208865     -0.00789541     -0.00451930       1
O               5.53977000      1.62887000     16.26780000     -0.01006940      0.00023188      0.01181750       8
H               6.22630000      2.05589000     14.63270000      0.00552209      0.00174161     -0.00215222       1
H               3.83741000      1.05172000     16.00590000      0.00141308     -0.00648915     -0.00389707       1
O              15.74800000      6.55722000     21.88200000      0.00149606     -0.00647502      0.00823217       8
H              14.51130000      5.23550000     21.62680000     -0.00359990      0.00738022     -0.00112230       1
H              17.03700000      6.33847000     20.61610000     -0.00257182     -0.00127031     -0.01124450       1
O              18.35220000     16.32840000     10.12710000     -0.00103810     -0.00010161      0.00219034       8
H              18.72260000     17.27670000     11.64010000     -0.00167741      0.00101718      0.00295785       1
H              16.79470000     15.43850000     10.39970000      0.00205306      0.00016471     -0.00293616       1
O               8.82145000      3.69681000     12.77500000     -0.00338449      0.00118358      0.00271414       8
H               8.20378000      4.29349000     11.15160000     -0.00044659     -0.00440522      0.00109932       1
H               8.70486000      5.13455000     13.89340000      0.00202758     -0.00152726     -0.00237763       1
O               8.22921000     15.63130000      3.00515000      0.00256056      0.01063500     -0.02666200       8
H               9.56105000     14.47880000      2.67759000      0.01249360     -0.00875485     -0.00411763       1
H               7.95517000     15.48020000      4.77741000     -0.00792032      0.00153949      0.02122000       1
O               7.19264000      8.42991000     15.10700000     -0.00367156      0.00117309      0.00331757       8
H               6.30481000      9.21968000     16.48030000      0.00600660     -0.00249128      0.00481407       1
H               8.89180000      9.06559000     15.19090000      0.00134986      0.00005263     -0.00028050       1
O              18.60190000      7.82939000     10.41570000     -0.01041190     -0.02436120      0.02570730       8
H              18.29480000      6.35721000      9.36944000     -0.00630241     -0.00157515      0.00424401       1
H              19.16350000      8.99756000      9.23405000      0.02046850      0.03020580     -0.02639920       1
O               1.53676000      1.29992000      4.56213000      0.00126717     -0.00429619     -0.00185508       8
H               2.74621000      0.40058600      5.55917000      0.00897227      0.00376075      0.00097968       1
H               2.02938000      3.03933000      4.49515000      0.00709767      0.00260969     -0.00260152       1
O              22.93620000      5.90093000     13.58620000     -0.00345336      0.00378530     -0.00082340       8
H              22.95460000      4.20657000     12.82690000      0.00591708     -0.00269142      0.00236205       1
H              21.34440000      6.59580000     13.04180000      0.00246109      0.00155414     -0.00540589       1
O              10.70540000     12.28960000     11.74360000      0.00012682      0.00389020      0.00183817       8
H              12.00460000     11.11840000     11.28320000      0.00163921     -0.01022180      0.00578697       1
H               9.19480000     11.29320000     11.45460000     -0.00045973      0.00801054     -0.00012926       1
O               7.07454000     21.32470000      1.78086000     -0.00368006      0.00539938     -0.00333560       8
H               7.64429000     19.73940000      2.44534000     -0.00265473     -0.00922111     -0.00025338       1
H               5.32917000     21.15740000      1.27888000      0.00312871     -0.00668507      0.00510394       1
O              22.13220000     10.34880000      6.81735000      0.00055668      0.00034584      0.00088464       8
H              21.42750000     10.81000000      5.19587000     -0.00255847     -0.00116859     -0.00153489       1
H              22.79520000     11.95380000      7.39562000     -0.00160102     -0.00090700      0.00472649       1
O              12.47820000      0.32300500     11.06970000      0.01183330     -0.00330209     -0.00541729       8
H              10.94280000      1.01427000     11.73150000     -0.00586008      0.01043750      0.00674510       1
H              13.79100000      1.44825000     11.64670000     -0.00289113     -0.00544322      0.00751238       1
O              17.28390000     20.27740000      6.57268000     -0.00411389     -0.00200054      0.00091934       8
H              15.87200000     21.41310000      6.82412000     -0.00413443     -0.00469991     -0.00910816       1
H              16.98580000     18.88670000      7.70477000      0.00671080     -0.00179864      0.00284941       1
O              21.43180000      0.56585500      0.49307200     -0.00113642     -0.00342127     -0.00114727       8
H              22.29790000      1.13600000     22.43320000     -0.00846313      0.00027802     -0.00034534       1
H              20.07160000     22.92800000     -0.06969700     -0.00620426      0.00198671      0.00007194       1
O               9.24489000      2.34952000      3.19376000      0.00938035      0.01191590      0.00481375       8
H              10.68710000      1.40116000      3.77960000      0.00088225     -0.00043776      0.00431729       1
H               8.22207000      1.04641000      2.45968000     -0.00924369     -0.00843266     -0.00125946       1
O              11.20720000     11.24990000      1.78960000      0.00431589      0.00414706      0.00474894       8
H              12.37850000     10.06150000      2.52143000      0.00856751      0.00867263     -0.00010920       1
H              10.94220000     10.73310000      0.06601100     -0.01098680     -0.00781230     -0.00635319       1
O              18.71330000     10.53090000     15.27410000      0.00686550     -0.00338424     -0.00431387       8
H              18.68590000      9.78899000     13.60240000     -0.00269860      0.00332952     -0.00253852       1
H              17.03660000     10.28550000     15.87890000     -0.00734095      0.00069023      0.00219327       1
O               6.54939000     16.43040000     21.26040000     -0.00146017      0.00151174     -0.00447184       8
H               7.71761000     16.53290000     19.86220000      0.00145121     -0.00186091      0.00002819       1
H               7.57375000     15.93060000     22.66940000     -0.00267941      0.00341998      0.00699135       1
O              14.97860000     10.39120000      4.92395000     -0.01299450     -0.00812966      0.00375996       8
H              14.84300000      8.85762000      5.87193000      0.00406576     -0.00115678      0.00463952       1
H              16.45090000     10.30310000      3.86125000      0.01016780      0.00409598     -0.00097094       1
O              16.72300000      4.01490000      7.10936000     -0.01158690      0.00930808     -0.01029180       8
H              17.34300000      4.09893000      5.37176000      0.00637707      0.00313592      0.00645967       1
H              17.25970000      2.44046000      7.79150000      0.01114810     -0.00385289      0.00191019       1
O              19.20860000     12.21120000      2.68064000     -0.00680750      0.00052803     -0.00811415       8
H              19.99290000     11.94460000      1.06293000      0.00192871     -0.00094737      0.00083604       1
H              18.74470000     13.98880000      2.72218000      0.00941312     -0.00318530      0.00371880       1
O              16.80480000     20.90700000     23.24610000      0.01122630     -0.00044585      0.00363791       8
H              15.61080000     21.05810000     21.90870000     -0.00767180      0.00250671     -0.00937709       1
H              16.35170000     19.31700000      0.58911500      0.00277364      0.00440317     -0.00353687       1
O              12.84220000      8.27236000     14.39570000      0.00004574      0.00176393      0.00239504       8
H              13.89540000      7.06286000     15.23330000     -0.00072938     -0.00452948     -0.00013445       1
H              13.06520000      9.80861000     15.34810000     -0.00074148     -0.00033574      0.00312934       1
O               1.28427000     14.50020000     13.60810000      0.00240492     -0.00507635     -0.00248167       8
H               2.47482000     15.25670000     14.74340000      0.00020066      0.00792967      0.00217813       1
H               0.70987600     12.97900000     14.41830000     -0.00241468     -0.00065097      0.00341950       1
O              10.62330000     18.37600000     11.37040000     -0.00917811     -0.04415240      0.01417420       8
H              11.15820000     19.81360000     10.54690000      0.01620910      0.04120720     -0.01569730       1
H              12.03920000     17.23390000     11.24720000     -0.00724397      0.00496952      0.00237181       1
O               0.42185900     22.14650000     16.07130000      0.00365509      0.00108028      0.00974144       8
H              22.38590000     22.48030000     15.11180000      0.00570389     -0.00084673     -0.00631377       1
H               0.09171400     20.62020000     17.01850000      0.00121740      0.00300650      0.00115343       1
O              18.69230000      5.53485000     17.56900000     -0.00774015      0.00769365      0.00309277       8
H              20.21080000      4.58093000     17.87290000      0.00875566     -0.00075409      0.00169428       1
H              19.11540000      6.88502000     16.42420000      0.00102013     -0.00176863      0.00415733       1
O               6.93467000      3.53367000      8.10867000      0.00168169      0.00499335     -0.00166422       8
H               5.58179000      4.76129000      8.02323000     -0.00012658      0.00172532      0.00168175       1
H               8.09081000      3.91111000      6.75794000     -0.00798059     -0.00656819     -0.00717972       1
O               8.49107000      0.18370200     20.98680000     -0.00099996     -0.00358141     -0.00814254       8
H               8.22239000     22.06140000     21.89550000     -0.00187624      0.01015710      0.00115175       1
H               7.29848000     23.72990000     19.62060000     -0.00264677     -0.00302615     -0.00490037       1
O               8.99899000      9.74584000     20.93510000     -0.00400142      0.02939250      0.00120794       8
H               9.29223000      8.07199000     20.46130000      0.01034820     -0.03084370     -0.00115215       1
H               7.39518000      9.70604000     21.81580000     -0.00092463      0.00698034     -0.00837853       1
O               7.41419000     15.82760000      7.83286000     -0.00956224     -0.00085795     -0.00290871       8
H               7.05269000     14.30660000      8.81064000     -0.00077462      0.00578123     -0.00088694       1
H               8.77559000     16.74340000      8.59827000      0.00396729     -0.00129119      0.01060060       1
O              10.99780000      8.17226000      8.69347000      0.02821190     -0.01837450      0.02391020       8
H              10.95400000      6.49521000      8.04011000     -0.00131349      0.00015229     -0.00132346       1
H              10.20040000      9.24810000      7.56630000     -0.02422300      0.01596150     -0.02381590       1
O              18.83250000     19.62370000     15.03280000      0.00571946      0.00008904     -0.00188754       8
H              18.12970000     19.04460000     16.59530000     -0.00085697     -0.00785854      0.00376083       1
H              18.90190000     21.42140000     15.23010000     -0.01184790      0.00063112     -0.00589484       1
O               4.35216000      5.75300000      1.72934000      0.00394373      0.00435988      0.00075402       8
H               5.77897000      6.46571000      2.59505000      0.00358874     -0.00223522      0.00319604       1
H               3.39989000      7.26070000      1.35515000     -0.00446092     -0.00282846      0.00535514       1
O              18.13700000     15.76570000     19.11900000     -0.00460170     -0.00750675     -0.01231540       8
H              19.03800000     14.37850000     18.36020000      0.00029753      0.00104910     -0.00431279       1
H              19.27900000     16.17240000     20.44270000      0.00108813      0.00768471      0.01198250       1
O              14.62140000     16.63350000      1.58896000     -0.00059157     -0.00493278     -0.00663595       8
H              14.71020000     16.98330000      3.35006000     -0.00183556     -0.00134483      0.01096660       1
H              14.12600000     14.89930000      1.37639000     -0.00063771      0.00149066      0.00445013       1
O              13.24080000     23.42190000      6.19504000     -0.00489385     -0.00362244     -0.00077816       8
H              12.92680000      0.24479200      8.01562000     -0.00580288      0.00104292     -0.00516143       1
H              14.23210000      1.38337000      5.67579000      0.00144387      0.00579814      0.00070025       1
O               3.55293000     19.43720000      6.38618000     -0.00622925     -0.00144598     -0.00153500       8
H               4.66111000     17.97250000      6.30758000      0.00034677      0.00288565      0.00169358       1
H               1.96644000     18.73670000      6.92114000     -0.00469409     -0.00698739      0.00048803       1
O              20.98950000      0.58988000      7.23934000     -0.00461704      0.00213526      0.00804233       8
H              19.77540000     23.34100000      6.12423000     -0.00912477     -0.01633450      0.00163278       1
H              22.43770000      0.76743300      6.15154000      0.01164260      0.00996717     -0.00695068       1
O              23.07320000      8.44907000      1.74371000      0.03294070      0.02368880     -0.00214118       8
H              23.29460000      8.01942000     23.48180000     -0.00074421      0.00063276     -0.01376290       1
H              21.69990000      7.48604000      2.27281000     -0.03182300     -0.02213200      0.01053050       1
O               4.68260000     22.46080000     10.34340000     -0.00596222     -0.00622553      0.01234200       8
H               6.05697000     -0.13547700      9.56441000      0.00369422      0.00944798     -0.00438743       1
H               4.11774000     21.23150000      9.09969000      0.00583235     -0.00004875     -0.00094907       1
O              20.69690000     17.16000000      3.59551000     -0.01037530     -0.00790140      0.00907925       8
H              21.60240000     18.01770000      2.29815000      0.00919323      0.00597049     -0.00321168       1
H              20.27880000     18.41910000      4.84131000     -0.00389364     -0.00190311     -0.00522456       1
O               1.84393000      9.92640000     16.30980000      0.00078884      0.00787283      0.00447406       8
H               1.05386000      8.32037000     16.49870000     -0.00891631     -0.00836849     -0.00156151       1
H               2.90313000      9.61016000     14.88410000      0.00470887     -0.00064249     -0.00584946       1
