192
TotEnergy=-1103.82260000 cutoff=-1.00000000 nneightol=1.20000000 pbc="T T T" Lattice="24.64241000       0.00000000       0.00000000      -0.00000100      24.64241000       0.00000000      -0.00000100      -0.00000100      24.64241000" Properties=species:S:1:pos:R:3:force:R:3:Z:I:1
O              19.89260000     20.83650000     12.25460000      0.00734077      0.00416467     -0.00440741       8
H              20.66220000     21.99830000     11.06810000     -0.00036409      0.00469296     -0.00004147       1
H              21.27840000     20.26510000     13.32480000      0.00001242     -0.00493842     -0.00146183       1
O               1.19490000      4.14217000     12.64150000      0.01131690     -0.00347768      0.00464279       8
H               1.39268000      5.83172000     13.26190000     -0.00044563     -0.00107594      0.00242136       1
H               2.89907000      3.55546000     12.27230000     -0.00054226      0.00060294     -0.00727652       1
O              16.75880000      5.96743000     22.85130000      0.00390344      0.00024773     -0.00305659       8
H              16.84560000      5.99906000     21.00780000     -0.00559007     -0.00246441      0.00506598       1
H              18.13300000      7.01220000     23.41820000     -0.00116902     -0.00069284      0.00451439       1
O              12.41030000     19.32410000     13.55760000      0.00217477      0.00166424      0.01241710       8
H              12.51920000     20.22440000     11.97940000     -0.00361171      0.00951259     -0.00457475       1
H              13.85960000     19.87300000     14.50810000     -0.00049747     -0.00626486      0.00307884       1
O              16.93910000     14.89000000     16.53480000      0.00416489      0.00827300     -0.00564861       8
H              15.23110000     14.51440000     16.96840000     -0.00935229     -0.00171935      0.00736068       1
H              17.03420000     16.73250000     16.62520000      0.00174838     -0.00733054     -0.00363850       1
O              18.79890000      2.03592000     14.64930000     -0.00127044      0.00169333      0.00087660       8
H              18.37190000      3.20833000     15.99220000      0.00062848     -0.00127427     -0.00131121       1
H              17.09870000      1.50540000     14.17270000      0.00183443      0.00114668     -0.00278572       1
O              16.77070000     16.86210000      2.87815000      0.00509583      0.01049990      0.00907111       8
H              16.76030000     18.34990000      3.92924000      0.00997705     -0.00509798     -0.00165282       1
H              15.02830000     16.76100000      2.43074000     -0.01199730     -0.00362567     -0.01101830       1
O               8.65511000     19.07360000      5.25486000     -0.00465263     -0.00099579     -0.00384591       8
H               8.36883000     17.36070000      5.82863000     -0.00529464      0.00151333     -0.00067170       1
H               7.11019000     19.70900000      4.46310000      0.00885621     -0.00787485      0.00561426       1
O              11.84560000     17.42630000      1.39998000     -0.00337677      0.01203980      0.00235006       8
H              11.09120000     18.24070000      2.86583000     -0.00732999     -0.01088550      0.00810030       1
H              11.68770000     18.81080000      0.24420200      0.00442204     -0.00471217     -0.01483070       1
O              22.00350000     24.05470000      8.16212000     -0.00565642      0.00363454      0.01931410       8
H              22.02450000     23.25320000      6.56807000     -0.00267881      0.00087835     -0.01560960       1
H              21.09330000     25.66300000      8.07895000      0.00899828     -0.00947865     -0.00185691       1
O               0.10263200     19.18780000     24.39920000     -0.01046790     -0.00651293      0.00624994       8
H              -0.44238400     17.42890000     24.49690000      0.00527526      0.01420690     -0.00136913       1
H               1.15542000     19.43600000     22.94090000      0.00537511     -0.00942159     -0.00784903       1
O              23.39330000      8.80364000     20.63480000     -0.00030836     -0.01670440     -0.01777500       8
H              23.23640000      8.93855000     22.43940000     -0.00412387      0.00098797      0.00383805       1
H              22.82740000      7.09156000     20.23750000      0.00598237      0.01491030      0.00524370       1
O              22.37170000     -0.67257000     17.65660000      0.01306950     -0.00199999      0.00838426       8
H              22.49320000      0.77357800     18.79720000      0.00099298     -0.00805954     -0.01592030       1
H              21.61230000     -0.05772000     16.12990000     -0.00992563      0.00658698     -0.00092506       1
O               6.21670000     11.83410000     17.20900000      0.00784052     -0.00895783     -0.00816386       8
H               6.29099000     12.42740000     18.92000000      0.00082700      0.00204612      0.00999020       1
H               6.04418000      9.99842000     17.19950000     -0.00116554      0.00790097      0.00033288       1
O              11.83990000     11.93240000      1.04239000      0.00031793      0.00128071     -0.00324047       8
H              10.08580000     11.56810000      1.43208000      0.00133254     -0.00083295      0.00074502       1
H              11.81580000     13.73050000      0.75557000      0.00428649      0.00035904      0.00210500       1
O              17.27260000     20.34260000     16.53000000      0.00165979      0.00549141     -0.00742162       8
H              18.76530000     20.36400000     17.55190000      0.00174578      0.00175617      0.00758771       1
H              17.93460000     21.13860000     14.98860000     -0.00451517     -0.00667839      0.00313981       1
O               6.58342000      1.54557000      0.74386900      0.01189660      0.01591400     -0.00640675       8
H               5.62361000      0.14607800      1.33337000     -0.00007026     -0.01165570      0.00353938       1
H               8.11875000      0.92052000     -0.12176800     -0.01570050      0.00223848      0.00348127       1
O               6.50919000     14.34840000     21.86270000     -0.00286554     -0.00395835      0.00680871       8
H               4.69805000     13.95470000     22.09670000      0.01213070      0.00673799     -0.00008971       1
H               7.36866000     13.83450000     23.41440000     -0.01434940      0.00234539     -0.00800381       1
O              11.74930000     14.39630000     18.36400000     -0.00789988     -0.00090328      0.01064640       8
H              10.98940000     15.07180000     19.88830000      0.00649400      0.00223065     -0.00644324       1
H              10.67080000     12.96280000     18.07820000      0.00367495      0.00490740      0.00836890       1
O              15.35750000     14.78230000      8.65184000      0.00432774     -0.00166185     -0.00828261       8
H              15.47570000     14.65980000     10.43790000     -0.00418353      0.00304180      0.00695824       1
H              15.63780000     16.52100000      8.19333000      0.00378854     -0.00140421      0.00163036       1
O              23.20270000     18.44210000     15.29900000     -0.01149400      0.00543875     -0.00809005       8
H              24.33290000     18.82970000     16.64270000      0.00421475     -0.00444235      0.00351129       1
H              22.96680000     16.66220000     15.11040000      0.00770225     -0.00532788      0.00752441       1
O              22.95830000     24.04160000      0.83994700      0.01189990     -0.00428838     -0.00628102       8
H              23.25530000     22.25230000      0.44248100     -0.00814775      0.00944371      0.00293812       1
H              21.29690000     24.19380000      1.52260000     -0.00737089     -0.00420950      0.00006809       1
O              16.24100000     11.33040000      5.09909000     -0.00001569      0.00073870     -0.00119853       8
H              16.16720000     12.93580000      5.99225000     -0.00430331     -0.00242227     -0.00615246       1
H              14.72640000     11.25400000      4.09884000     -0.00199182      0.00257212     -0.00217147       1
O               2.76525000     22.17640000     16.15010000     -0.00834868      0.00476799      0.00088712       8
H               2.80923000     21.94390000     14.34390000      0.00503479     -0.00708488     -0.00412207       1
H               1.22811000     23.11920000     16.47800000     -0.00360326     -0.00224662      0.00600765       1
O              16.10130000      9.31487000     14.54790000      0.00112514      0.01246310     -0.00911654       8
H              14.37980000      9.87157000     14.85360000      0.00061041     -0.00004252     -0.00355310       1
H              17.08880000     10.80940000     14.15160000     -0.00554429     -0.00809256      0.00917944       1
O               6.12522000      1.27658000     16.42230000     -0.01114890      0.00138112      0.00520798       8
H               4.70950000      1.80755000     15.39510000      0.01046950     -0.00406538      0.00079215       1
H               5.51506000     -0.37151100     16.97650000      0.00266298      0.00892892     -0.00342646       1
O              20.86750000     14.32470000      0.72271400     -0.01585320      0.00892708     -0.00644734       8
H              19.80160000     12.89800000      1.05539000      0.00841657     -0.01019660      0.00302350       1
H              19.52500000     15.58870000      0.76446300      0.01151450      0.00223846      0.00505050       1
O               8.38539000     13.66810000      7.29355000      0.00059914      0.00296257      0.00384298       8
H               7.45300000     12.15540000      7.69640000     -0.00764720     -0.00504050     -0.00317739       1
H               9.34582000     13.88220000      8.84457000      0.00609264      0.01120320     -0.00249990       1
O              23.15470000      3.22001000     21.19970000     -0.00532302     -0.00147257      0.00262623       8
H              22.50380000      1.77229000     22.11450000      0.00232525      0.00199722      0.00930556       1
H              24.74520000      3.57441000     21.98810000      0.00387319     -0.00405854     -0.00012682       1
O               8.11551000     18.44260000     16.91520000      0.00035728      0.00701511     -0.00279272       8
H               7.65789000     19.47900000     15.50400000     -0.00749320      0.00123684     -0.00281586       1
H               9.77188000     17.90730000     16.42230000      0.00345644     -0.00559012      0.00166612       1
O               3.63250000     19.36700000     12.02040000     -0.00217865      0.00649395     -0.00198343       8
H               2.50910000     18.08280000     12.69170000      0.01050050     -0.00405960     -0.00512903       1
H               4.40321000     18.71990000     10.51230000     -0.00411794     -0.00195227      0.00485568       1
O              10.20440000      5.98155000     11.17970000     -0.00208361      0.00335766     -0.00393054       8
H               9.19939000      6.85404000      9.91812000      0.00114140     -0.00277078      0.00565368       1
H              11.88330000      5.90431000     10.47110000     -0.00536866     -0.00046615      0.00316634       1
O              23.04900000     11.97690000     11.56080000      0.00545200      0.00311818      0.00118918       8
H              21.87660000     10.78040000     10.86960000      0.00356327      0.00382200     -0.00058504       1
H              22.37650000     12.55390000     13.14460000      0.00154070     -0.00889163      0.00766574       1
O              11.06770000      2.68880000     18.43710000     -0.00182514      0.00067878     -0.00043344       8
H               9.29253000      3.09176000     18.40720000      0.00333271     -0.00459823     -0.00461534       1
H              11.18340000      1.56779000     19.87830000      0.00358662      0.00290433      0.00396905       1
O              21.40040000     12.20810000     16.69340000     -0.00021236     -0.00524254      0.00231979       8
H              21.76760000     10.81040000     17.80980000      0.00590656      0.00373372      0.00034786       1
H              19.70420000     12.68770000     17.12800000     -0.00436420      0.00957545     -0.00042261       1
O              13.69120000      1.22399000     13.52890000     -0.00094688     -0.00279326      0.01258740       8
H              13.68860000     -0.51364300     12.99850000     -0.00486991      0.00491840     -0.00340170       1
H              12.58500000      1.32691000     14.99970000      0.00579690      0.00100087     -0.00665088       1
O              12.14770000      1.21216000      3.40950000      0.01444460      0.00156533      0.00323763       8
H              10.70790000      2.02562000      2.69990000     -0.00540409      0.01091780     -0.00212461       1
H              13.24680000      2.54586000      4.11224000     -0.00674996     -0.01000350     -0.00639589       1
O              10.65780000     24.47780000     23.03060000     -0.00727234      0.00704742     -0.01522890       8
H              11.86250000     24.22710000     24.35140000      0.00500422     -0.00561399      0.00216033       1
H               9.82859000     22.87750000     22.50170000      0.01548410      0.00235785      0.01381960       1
O               2.87958000     14.53920000     14.11130000     -0.00335320      0.00264878     -0.00115454       8
H               4.18174000     14.33590000     15.38140000     -0.00323387     -0.00625404     -0.00699393       1
H               3.12094000     13.19510000     12.91210000     -0.00178749      0.00368363      0.00609440       1
O              16.05150000      4.01724000      5.39308000      0.01131580      0.01384620     -0.00410914       8
H              15.67680000      5.32245000      6.61867000     -0.00631427     -0.00047580      0.00585694       1
H              17.65750000      4.70792000      4.75290000     -0.00808756     -0.00851255      0.00422265       1
O              21.11440000     11.14520000      6.96472000      0.05503390      0.02806250     -0.02227270       8
H              21.18280000     12.95150000      6.66866000      0.01318530     -0.00926156     -0.00549184       1
H              19.53610000     11.07500000      7.60928000     -0.06763440     -0.01504640      0.02055610       1
O              17.15930000      0.17814400     23.62300000     -0.00853414      0.00682166     -0.00215209       8
H              16.44840000      1.85573000     23.83130000      0.00668713     -0.00051940     -0.00268432       1
H              16.70610000     -0.24411700     21.91060000      0.00268598     -0.00130795      0.00479582       1
O              16.13740000      5.37300000     17.82480000      0.00259423      0.00004667      0.00236067       8
H              14.35800000      5.00678000     17.90920000     -0.00270952     -0.00501644      0.00012168       1
H              16.29610000      6.81309000     16.70710000      0.00049627      0.00307073     -0.00224702       1
O              12.35810000      6.71575000      1.33715000     -0.00262291      0.00782617     -0.00026282       8
H              14.03630000      6.13792000      1.62916000      0.00491433     -0.00879278      0.00068808       1
H              12.66910000      8.37003000      0.62837000     -0.00492786     -0.00099233     -0.00089762       1
O              13.40080000     22.14880000      9.65563000      0.00430582     -0.00839581     -0.00672594       8
H              14.37020000     20.84590000      8.78533000      0.00210634      0.01193560     -0.00116471       1
H              12.75090000     23.30900000      8.42347000     -0.00019172      0.00017532     -0.00002388       1
O               9.28331000     20.05880000     21.72520000      0.05339000      0.03567290     -0.02764850       8
H               8.95950000     20.38160000     19.94440000      0.00156675     -0.01068550     -0.00019480       1
H               7.92645000     19.14930000     22.21560000     -0.05708660     -0.03752050      0.02466850       1
O              17.27950000     23.55870000      4.68314000      0.01156810     -0.01230930      0.00744216       8
H              16.33850000     23.98770000      3.19628000     -0.00165991      0.00381330      0.00226049       1
H              16.95490000     24.78070000      5.99147000     -0.00499920      0.00708983     -0.01286030       1
O               6.90262000     12.42850000      2.17811000     -0.00531549      0.00033310      0.00112216       8
H               5.65174000     11.12500000      2.42677000      0.00805108      0.00198592      0.00188958       1
H               7.45172000     13.01600000      3.81996000     -0.00356739     -0.00095593      0.00151143       1
O               1.40439000     13.58100000     21.07130000      0.00931944      0.01037870      0.01191580       8
H               0.15254900     14.84080000     20.70710000      0.00102042     -0.00848366     -0.00347814       1
H               1.13809000     12.14780000     20.02170000     -0.00983269     -0.00446503     -0.00614736       1
O              21.25930000      4.08981000     10.22310000     -0.00673978     -0.00052415     -0.00080200       8
H              22.98210000      3.55426000     10.46630000      0.00040373      0.00546592      0.00592697       1
H              20.42460000      3.75044000     11.81980000     -0.00085771     -0.00284881     -0.00109669       1
O              20.83530000      6.36732000      5.61434000      0.00545552      0.01092710      0.00847757       8
H              21.32170000      8.13146000      5.46298000     -0.00447412      0.00119165     -0.00622963       1
H              20.93710000      6.28045000      7.45447000      0.00042734     -0.01866790     -0.00665894       1
O               3.80409000     19.36080000     20.21960000     -0.00318781     -0.00283558     -0.00297035       8
H               5.04139000     18.03030000     20.21120000     -0.00643626     -0.00331060     -0.00289980       1
H               3.63377000     19.89560000     18.45530000      0.00103450      0.00203463      0.01216480       1
O               1.42763000      8.25641000      8.79106000      0.00571906     -0.00369465      0.00427098       8
H               1.74063000      6.58343000      9.46564000     -0.00406901      0.01113270     -0.00145118       1
H               1.21779000      9.39002000     10.21840000     -0.00245038     -0.00645192     -0.00912163       1
O              10.78520000     10.16680000     14.85980000      0.00525461      0.00271467     -0.00259328       8
H               9.49095000      9.52594000     13.75340000      0.00675071     -0.00304409     -0.00162654       1
H               9.96874000     11.51010000     15.75700000     -0.01313330     -0.00740106     -0.00545553       1
O               6.02245000      2.50634000     10.86370000     -0.00121845      0.00578598      0.00266793       8
H               7.36521000      3.44294000     11.67220000      0.00097875     -0.00365680     -0.00416155       1
H               6.66690000      2.16899000      9.19347000     -0.00112858     -0.00445182      0.00174563       1
O               6.84893000      8.85269000      7.83154000     -0.00145743     -0.00455331     -0.00253201       8
H               5.42572000      8.14015000      6.92304000      0.00226907      0.00336287      0.00905536       1
H               8.22661000      8.54934000      6.69943000      0.00127791     -0.00170807     -0.00781763       1
O               7.31688000      6.63160000      2.93920000     -0.00279042      0.00776318      0.00191327       8
H               6.44920000      5.32994000      2.02428000      0.00325617     -0.00745041      0.00021572       1
H               9.06663000      6.54020000      2.41009000      0.00017341     -0.00124223     -0.00187724       1
O              10.81580000     14.95990000     11.73350000     -0.00500103     -0.00594717      0.00120522       8
H              11.14450000     13.82120000     13.10010000     -0.00022250     -0.00058096     -0.00295111       1
H              11.24000000     16.62690000     12.36460000      0.00305531     -0.00395550      0.00154658       1
O              21.46920000      7.11350000      0.43107000      0.00205889      0.00684856     -0.00921886       8
H              21.73400000      6.60272000      2.14396000     -0.00123815     -0.00530780      0.00758010       1
H              21.52640000      5.61660000     -0.58951900      0.00142302     -0.00499928      0.00379499       1
O               4.11048000     21.67070000      2.96441000      0.00883773     -0.00083106     -0.00490505       8
H               2.61861000     21.67650000      1.95190000     -0.00667656     -0.00948325     -0.00434609       1
H               3.64020000     22.57640000      4.43046000     -0.00135972      0.00852967      0.01500780       1
O              14.83530000      8.19447000      8.75160000      0.00332542      0.00383581      0.01208390       8
H              15.51280000      9.62180000      7.81011000     -0.00613207     -0.00435648     -0.01743970       1
H              15.12100000      8.71406000     10.46750000     -0.00077837     -0.00901284      0.00586818       1
O              17.59620000     19.30250000      7.82887000      0.00091081     -0.00570918      0.00807950       8
H              18.58530000     19.02300000      9.34963000     -0.00185108      0.00425341     -0.00053877       1
H              18.14180000     20.90770000      7.20256000     -0.00060446      0.00561076     -0.00756944       1
O               6.07616000      6.65498000     15.96410000     -0.00529444      0.00863542      0.00098772       8
H               7.77850000      6.08037000     15.75260000      0.00136911     -0.00349758     -0.00140305       1
H               5.24742000      5.43485000     17.01830000      0.00463417     -0.00189874      0.00006987       1
O               8.54701000     24.07080000      6.77037000     -0.01090360     -0.00038607      0.02107190       8
H               9.01875000     22.53950000      7.62949000     -0.00676689      0.00089631     -0.00393831       1
H               9.63621000     24.15290000      5.35268000      0.01089830      0.00450522     -0.01136010       1
