 DBCSR| CPU Multiplication driver                                           XSMM
 DBCSR| Multrec recursion limit                                              512
 DBCSR| Multiplication stack size                                           1000
 DBCSR| Maximum elements for images                                    UNLIMITED
 DBCSR| Multiplicative factor virtual images                                   1
 DBCSR| Use multiplication densification                                       T
 DBCSR| Multiplication size stacks                                             3


  **** **** ******  **  PROGRAM STARTED AT               2020-05-27 04:00:03.206
 ***** ** ***  *** **   PROGRAM STARTED ON                               gnode44
 **    ****   ******    PROGRAM STARTED BY                           mayank.modi
 ***** **    ** ** **   PROGRAM PROCESS ID                                 30539
  **** **  *******  **  PROGRAM STARTED IN /home/mayank.modi/ab-initio-thermodyn
                                           amics-of-water/mayank/cp2k_energy_cal
                                           culations

 CP2K| version string:                                          CP2K version 7.1
 CP2K| source code revision number:                                  git:e635599
 CP2K| cp2kflags: omp libint fftw3 libxc xsmm spglib                            
 CP2K| is freely available from                            https://www.cp2k.org/
 CP2K| Program compiled at                          Mon Dec 23 19:23:12 CET 2019
 CP2K| Program compiled on                                                pc9404
 CP2K| Program compiled for                                Linux-x86-64-gfortran
 CP2K| Data directory path                                        /opt/cp2k/data
 CP2K| Input file name                                  input_training/input6.in

 GLOBAL| Force Environment number                                              1
 GLOBAL| Basis set file name                                           BASIS_SET
 GLOBAL| Potential file name                                      GTH_POTENTIALS
 GLOBAL| MM Potential file name                                     MM_POTENTIAL
 GLOBAL| Coordinate file name                                      __STD_INPUT__
 GLOBAL| Method name                                                        CP2K
 GLOBAL| Project name                                                   H2O_bulk
 GLOBAL| Preferred FFT library                                             FFTW3
 GLOBAL| Preferred diagonalization lib.                                       SL
 GLOBAL| Run type                                                   ENERGY_FORCE
 GLOBAL| All-to-all communication in single precision                          F
 GLOBAL| FFTs using library dependent lengths                                  F
 GLOBAL| Global print level                                                  LOW
 GLOBAL| MPI I/O enabled                                                       T
 GLOBAL| Total number of message passing processes                             1
 GLOBAL| Number of threads for this process                                   36
 GLOBAL| This output is from process                                           0
 GLOBAL| CPU model name                Intel(R) Xeon(R) CPU E5-2640 v4 @ 2.40GHz
 GLOBAL| CPUID                                                              1002
 GLOBAL| Compiled for CPUID                                                    0

 MEMORY| system memory details [Kb]
 MEMORY|                        rank 0           min           max       average
 MEMORY| MemTotal            131893056     131893056     131893056     131893056
 MEMORY| MemFree             123439080     123439080     123439080     123439080
 MEMORY| Buffers               2079680       2079680       2079680       2079680
 MEMORY| Cached                2768032       2768032       2768032       2768032
 MEMORY| Slab                  3285628       3285628       3285628       3285628
 MEMORY| SReclaimable          3097200       3097200       3097200       3097200
 MEMORY| MemLikelyFree       131383992     131383992     131383992     131383992


 GENERATE| WARNING:: No connections detected for Hydrogen - Atom Nr:        21 !
 GENERATE| WARNING:: No connections detected for Hydrogen - Atom Nr:        42 !
 GENERATE| WARNING:: No connections detected for Hydrogen - Atom Nr:        51 !
 GENERATE| WARNING:: No connections detected for Hydrogen - Atom Nr:        56 !
 GENERATE| WARNING:: No connections detected for Hydrogen - Atom Nr:        77 !
 GENERATE| WARNING:: No connections detected for Hydrogen - Atom Nr:       101 !
 GENERATE| WARNING:: No connections detected for Hydrogen - Atom Nr:       143 !
 GENERATE| WARNING:: No connections detected for Hydrogen - Atom Nr:       153 !
 GENERATE| WARNING:: No connections detected for Hydrogen - Atom Nr:       176 !
 GENERATE| WARNING:: No connections detected for Hydrogen - Atom Nr:       179 !
 GENERATE| WARNING:: No connections detected for Hydrogen - Atom Nr:       191 !
 GENERATE|  Preliminary Number of Bonds generated:                             0
 GENERATE|  Achieved consistency in connectivity generation.

 *******************************************************************************
 *******************************************************************************
 **                                                                           **
 **     #####                         ##              ##                      **
 **    ##   ##            ##          ##              ##                      **
 **   ##     ##                       ##            ######                    **
 **   ##     ##  ##   ##  ##   #####  ##  ##   ####   ##    #####    #####    **
 **   ##     ##  ##   ##  ##  ##      ## ##   ##      ##   ##   ##  ##   ##   **
 **   ##  ## ##  ##   ##  ##  ##      ####     ###    ##   ######   ######    **
 **    ##  ###   ##   ##  ##  ##      ## ##      ##   ##   ##       ##        **
 **     #######   #####   ##   #####  ##  ##  ####    ##    #####   ##        **
 **           ##                                                    ##        **
 **                                                                           **
 **                                                ... make the atoms dance   **
 **                                                                           **
 **            Copyright (C) by CP2K developers group (2000 - 2019)           **
 **                                                                           **
 *******************************************************************************


 TOTAL NUMBERS AND MAXIMUM NUMBERS

  Total number of            - Atomic kinds:                                   2
                             - Atoms:                                        192
                             - Shell sets:                                   384
                             - Shells:                                       704
                             - Primitive Cartesian functions:                960
                             - Cartesian basis functions:                   1536
                             - Spherical basis functions:                   1472

  Maximum angular momentum of- Orbital basis functions:                        2
                             - Local part of the GTH pseudopotential:          2
                             - Non-local part of the GTH pseudopotential:      0


 SCF PARAMETERS         Density guess:                                    ATOMIC
                        --------------------------------------------------------
                        max_scf:                                             300
                        max_scf_history:                                       0
                        max_diis:                                              4
                        --------------------------------------------------------
                        eps_scf:                                        1.00E-07
                        eps_scf_history:                                0.00E+00
                        eps_diis:                                       1.00E-01
                        eps_eigval:                                     1.00E-05
                        --------------------------------------------------------
                        level_shift [a.u.]:                                 0.00
                        --------------------------------------------------------
                        Mixing method:                            BROYDEN_MIXING
                                                charge density mixing in g-space
                        --------------------------------------------------------
                        No outer SCF

 Number of electrons:                                                        512
 Number of occupied orbitals:                                                256
 Number of molecular orbitals:                                               256

 Number of orbital functions:                                               1472
 Number of independent orbital functions:                                   1472

 Extrapolation method: initial_guess


 SCF WAVEFUNCTION OPTIMIZATION

  Step     Update method      Time    Convergence         Total energy    Change
  ------------------------------------------------------------------------------
     1 NoMix/Diag. 0.40E+00    9.8     0.68793960     -1063.2245045706 -1.06E+03
     2 Broy./Diag. 0.40E+00   16.0     1.95735202      -982.8682053590  8.04E+01
     3 Broy./Diag. 0.40E+00   16.5     1.89388402     -1300.8736735389 -3.18E+02
     4 Broy./Diag. 0.40E+00   16.4     1.84802360     -1161.3131793288  1.40E+02
     5 Broy./Diag. 0.40E+00   16.2     1.97310373     -1107.8214619381  5.35E+01
     6 Broy./Diag. 0.40E+00   17.4     2.02065701     -1080.6697867675  2.72E+01
     7 Broy./Diag. 0.40E+00   18.8     1.84972074     -1110.2227724839 -2.96E+01
     8 Broy./Diag. 0.40E+00   20.9     1.90172995     -1075.7828630197  3.44E+01
     9 Broy./Diag. 0.40E+00   22.0     1.98634324     -1092.4802507916 -1.67E+01
    10 Broy./Diag. 0.40E+00   22.6     1.60948809     -1081.5305964095  1.09E+01
    11 Broy./Diag. 0.40E+00   23.4     1.72631366     -1072.6124017210  8.92E+00
    12 Broy./Diag. 0.40E+00   23.1     1.87646691     -1065.6899396715  6.92E+00
    13 Broy./Diag. 0.40E+00   23.6     1.96763998     -1085.4263412002 -1.97E+01
    14 Broy./Diag. 0.40E+00   21.9     1.78600841     -1082.9447411038  2.48E+00
    15 Broy./Diag. 0.40E+00   22.2     1.94336407     -1069.7004822075  1.32E+01
    16 Broy./Diag. 0.40E+00   22.7     1.93094596     -1080.9046124033 -1.12E+01
    17 Broy./Diag. 0.40E+00   21.4     1.86189689     -1074.6808777374  6.22E+00
    18 Broy./Diag. 0.40E+00   22.5     1.78465118     -1077.1940822892 -2.51E+00
    19 Broy./Diag. 0.40E+00   22.7     1.85657010     -1062.6447591874  1.45E+01
    20 Broy./Diag. 0.40E+00   23.3     1.90693300     -1095.5871916701 -3.29E+01
    21 Broy./Diag. 0.40E+00   23.4     1.85462711     -1078.4690929313  1.71E+01
    22 Broy./Diag. 0.40E+00   23.1     1.98299491     -1070.2497509070  8.22E+00
    23 Broy./Diag. 0.40E+00   22.2     1.94879561     -1063.2148574368  7.03E+00
    24 Broy./Diag. 0.40E+00   23.3     1.87547809     -1091.2569444402 -2.80E+01
    25 Broy./Diag. 0.40E+00   23.3     1.88880996     -1069.6207878420  2.16E+01
    26 Broy./Diag. 0.40E+00   23.5     1.91609841     -1075.3439099641 -5.72E+00
    27 Broy./Diag. 0.40E+00   22.0     1.84918390     -1085.7678143334 -1.04E+01
    28 Broy./Diag. 0.40E+00   22.9     1.89926538     -1065.3425573263  2.04E+01
    29 Broy./Diag. 0.40E+00   22.8     1.90992640     -1074.8400122522 -9.50E+00
    30 Broy./Diag. 0.40E+00   22.9     1.91804033     -1072.6612007861  2.18E+00
    31 Broy./Diag. 0.40E+00   23.3     1.91804606     -1074.9677138112 -2.31E+00
    32 Broy./Diag. 0.40E+00   23.3     1.89506343     -1071.5968301790  3.37E+00
    33 Broy./Diag. 0.40E+00   24.1     1.86465844     -1082.9871669433 -1.14E+01
    34 Broy./Diag. 0.40E+00   23.5     1.88645666     -1068.8364195834  1.42E+01
    35 Broy./Diag. 0.40E+00   23.6     1.91846479     -1069.7707352246 -9.34E-01
    36 Broy./Diag. 0.40E+00   23.9     1.93939800     -1071.4481535451 -1.68E+00
    37 Broy./Diag. 0.40E+00   22.9     1.71496333     -1077.8283118554 -6.38E+00
    38 Broy./Diag. 0.40E+00   23.0     1.80549524     -1068.6152041683  9.21E+00
    39 Broy./Diag. 0.40E+00   23.5     1.87051578     -1070.4967426306 -1.88E+00
    40 Broy./Diag. 0.40E+00   23.5     1.90698926     -1078.2076605556 -7.71E+00
    41 Broy./Diag. 0.40E+00   21.9     1.89969524     -1074.5571251752  3.65E+00
    42 Broy./Diag. 0.40E+00   23.0     1.89240540     -1081.9726433162 -7.42E+00
    43 Broy./Diag. 0.40E+00   22.9     1.90784690     -1066.8792430565  1.51E+01
    44 Broy./Diag. 0.40E+00   23.0     1.72784636     -1071.8611915687 -4.98E+00
    45 Broy./Diag. 0.40E+00   22.4     1.81956996     -1071.3175462357  5.44E-01
    46 Broy./Diag. 0.40E+00   24.1     1.85855445     -1073.4619874479 -2.14E+00
    47 Broy./Diag. 0.40E+00   24.4     1.85546335     -1065.9582712285  7.50E+00
    48 Broy./Diag. 0.40E+00   23.3     1.90616315     -1078.5315931690 -1.26E+01
    49 Broy./Diag. 0.40E+00   23.0     1.87834254     -1066.0863247695  1.24E+01
    50 Broy./Diag. 0.40E+00   23.6     1.81658696     -1081.2182871208 -1.51E+01
    51 Broy./Diag. 0.40E+00   23.4     1.90913176     -1075.7345906403  5.48E+00
    52 Broy./Diag. 0.40E+00   21.7     1.95300798     -1077.6822610633 -1.95E+00
    53 Broy./Diag. 0.40E+00   21.2     1.93488145     -1061.6982747009  1.60E+01
    54 Broy./Diag. 0.40E+00   23.1     1.87605922     -1076.3182993520 -1.46E+01
    55 Broy./Diag. 0.40E+00   23.7     1.94913065     -1073.4685857737  2.85E+00
    56 Broy./Diag. 0.40E+00   23.1     1.83058574     -1086.0021451545 -1.25E+01
    57 Broy./Diag. 0.40E+00   22.4     1.82790245     -1068.9145096761  1.71E+01
    58 Broy./Diag. 0.40E+00   23.3     1.93795013     -1074.0217704656 -5.11E+00
    59 Broy./Diag. 0.40E+00   22.9     1.82412821     -1074.3854805473 -3.64E-01
    60 Broy./Diag. 0.40E+00   22.1     1.86267191     -1071.3526057352  3.03E+00
    61 Broy./Diag. 0.40E+00   22.8     1.90490980     -1082.5267831254 -1.12E+01
    62 Broy./Diag. 0.40E+00   23.0     1.90630072     -1066.4244069093  1.61E+01
    63 Broy./Diag. 0.40E+00   23.6     1.92027078     -1080.8143208273 -1.44E+01
    64 Broy./Diag. 0.40E+00   23.9     1.88410500     -1082.3656378431 -1.55E+00
    65 Broy./Diag. 0.40E+00   21.0     1.89186310     -1071.1575287958  1.12E+01
    66 Broy./Diag. 0.40E+00   23.5     1.93876035     -1067.3350131466  3.82E+00
    67 Broy./Diag. 0.40E+00   21.4     1.86472859     -1077.4671434264 -1.01E+01
    68 Broy./Diag. 0.40E+00   22.1     1.89291008     -1077.2012891186  2.66E-01
    69 Broy./Diag. 0.40E+00   22.7     1.96475972     -1075.5103482825  1.69E+00
    70 Broy./Diag. 0.40E+00   23.3     1.74339492     -1064.5519988233  1.10E+01
    71 Broy./Diag. 0.40E+00   23.2     1.86003304     -1076.8032951593 -1.23E+01
    72 Broy./Diag. 0.40E+00   23.3     1.88182436     -1073.0076639007  3.80E+00
    73 Broy./Diag. 0.40E+00   23.6     1.94526431     -1074.8144333291 -1.81E+00
    74 Broy./Diag. 0.40E+00   21.6     1.75119821     -1077.0368978240 -2.22E+00
    75 Broy./Diag. 0.40E+00   21.2     1.84454944     -1060.1114288323  1.69E+01
    76 Broy./Diag. 0.40E+00   22.7     1.90759423     -1081.0549943986 -2.09E+01
    77 Broy./Diag. 0.40E+00   23.1     1.98159732     -1075.3280412510  5.73E+00
    78 Broy./Diag. 0.40E+00   23.1     1.92808091     -1085.3352557240 -1.00E+01
    79 Broy./Diag. 0.40E+00   23.4     1.87458908     -1066.1015310004  1.92E+01
    80 Broy./Diag. 0.40E+00   23.6     1.93928911     -1080.0634878813 -1.40E+01
    81 Broy./Diag. 0.40E+00   24.1     1.75929919     -1071.3869890709  8.68E+00
    82 Broy./Diag. 0.40E+00   23.8     1.85895554     -1067.4303567637  3.96E+00
    83 Broy./Diag. 0.40E+00   24.5     1.83633145     -1079.1355861190 -1.17E+01
    84 Broy./Diag. 0.40E+00   20.8     1.86819746     -1072.5158555286  6.62E+00
    85 Broy./Diag. 0.40E+00   21.2     1.91042072     -1076.2870221629 -3.77E+00
    86 Broy./Diag. 0.40E+00   20.8     1.87757191     -1072.0189803055  4.27E+00
    87 Broy./Diag. 0.40E+00   22.5     1.87506800     -1070.7998114149  1.22E+00
    88 Broy./Diag. 0.40E+00   23.3     1.94944848     -1076.6006716803 -5.80E+00
    89 Broy./Diag. 0.40E+00   22.0     1.85069125     -1070.7820116300  5.82E+00
    90 Broy./Diag. 0.40E+00   21.2     1.90365464     -1077.1968509845 -6.41E+00
    91 Broy./Diag. 0.40E+00   20.8     1.92009874     -1077.2511119414 -5.43E-02
    92 Broy./Diag. 0.40E+00   22.9     1.81096298     -1076.9165268830  3.35E-01
    93 Broy./Diag. 0.40E+00   23.6     1.91130294     -1067.7936865161  9.12E+00
    94 Broy./Diag. 0.40E+00   24.3     1.89092794     -1070.4889605365 -2.70E+00
    95 Broy./Diag. 0.40E+00   23.2     1.93088834     -1070.0764636808  4.12E-01
    96 Broy./Diag. 0.40E+00   23.4     1.86415567     -1070.1382712829 -6.18E-02
    97 Broy./Diag. 0.40E+00   25.0     1.88052727     -1086.0661031869 -1.59E+01
    98 Broy./Diag. 0.40E+00   24.3     1.96983579     -1073.9632374319  1.21E+01
    99 Broy./Diag. 0.40E+00   21.1     1.96637687     -1069.1730970114  4.79E+00
   100 Broy./Diag. 0.40E+00   22.2     1.90055477     -1075.7211242964 -6.55E+00
   101 Broy./Diag. 0.40E+00   21.4     1.88557602     -1070.5794501201  5.14E+00
   102 Broy./Diag. 0.40E+00   20.8     1.91127926     -1076.6838779113 -6.10E+00
   103 Broy./Diag. 0.40E+00   20.8     1.90493383     -1075.8663304410  8.18E-01
   104 Broy./Diag. 0.40E+00   22.0     1.88546365     -1070.7504885534  5.12E+00
   105 Broy./Diag. 0.40E+00   23.1     1.87633518     -1078.4860557185 -7.74E+00
   106 Broy./Diag. 0.40E+00   23.5     1.85863174     -1064.5977667849  1.39E+01
   107 Broy./Diag. 0.40E+00   22.6     1.99559991     -1077.2264268359 -1.26E+01
   108 Broy./Diag. 0.40E+00   23.3     1.83617536     -1065.0597011997  1.22E+01
   109 Broy./Diag. 0.40E+00   23.2     1.80872762     -1078.5568424569 -1.35E+01
   110 Broy./Diag. 0.40E+00   22.7     1.80816641     -1079.5859313619 -1.03E+00
   111 Broy./Diag. 0.40E+00   23.2     1.91812720     -1062.4784181028  1.71E+01
   112 Broy./Diag. 0.40E+00   23.1     1.82565873     -1080.3640589694 -1.79E+01
   113 Broy./Diag. 0.40E+00   23.2     1.94786553     -1078.1427599186  2.22E+00
   114 Broy./Diag. 0.40E+00   24.6     1.90752123     -1076.3969127594  1.75E+00
   115 Broy./Diag. 0.40E+00   21.8     1.80726347     -1065.4255633046  1.10E+01
   116 Broy./Diag. 0.40E+00   23.3     1.88106103     -1078.2619582037 -1.28E+01
   117 Broy./Diag. 0.40E+00   24.1     1.95664696     -1077.7955738465  4.66E-01
   118 Broy./Diag. 0.40E+00   24.7     1.92114545     -1079.6403233928 -1.84E+00
   119 Broy./Diag. 0.40E+00   21.1     1.89863987     -1073.6596823049  5.98E+00
   120 Broy./Diag. 0.40E+00   22.2     1.97525841     -1068.4041371991  5.26E+00
   121 Broy./Diag. 0.40E+00   22.4     1.82599149     -1061.8106335578  6.59E+00
   122 Broy./Diag. 0.40E+00   22.8     1.92049570     -1084.9417514976 -2.31E+01
   123 Broy./Diag. 0.40E+00   23.0     1.88480422     -1058.3935252259  2.65E+01
   124 Broy./Diag. 0.40E+00   23.7     1.91533359     -1077.9021122108 -1.95E+01
   125 Broy./Diag. 0.40E+00   22.5     1.91536628     -1067.9280758869  9.97E+00
   126 Broy./Diag. 0.40E+00   22.1     1.92059059     -1076.9010198036 -8.97E+00
   127 Broy./Diag. 0.40E+00   21.9     1.91011084     -1077.5985934235 -6.98E-01
   128 Broy./Diag. 0.40E+00   21.7     1.89087942     -1071.1076537752  6.49E+00
   129 Broy./Diag. 0.40E+00   22.1     1.83848364     -1076.2162647823 -5.11E+00
   130 Broy./Diag. 0.40E+00   20.5     1.82319907     -1077.9236086644 -1.71E+00
   131 Broy./Diag. 0.40E+00   23.7     1.93108777     -1065.6345172763  1.23E+01
   132 Broy./Diag. 0.40E+00   24.3     1.91875941     -1082.5253357059 -1.69E+01
   133 Broy./Diag. 0.40E+00   23.3     1.78842380     -1075.5681080037  6.96E+00
   134 Broy./Diag. 0.40E+00   23.9     1.89203872     -1066.7419565588  8.83E+00
   135 Broy./Diag. 0.40E+00   23.2     1.96297806     -1067.1646963845 -4.23E-01
   136 Broy./Diag. 0.40E+00   23.4     1.94488375     -1083.5094539131 -1.63E+01
   137 Broy./Diag. 0.40E+00   24.1     1.87896274     -1070.0672526739  1.34E+01
   138 Broy./Diag. 0.40E+00   23.2     1.92446489     -1078.3878083429 -8.32E+00
   139 Broy./Diag. 0.40E+00   24.7     1.82781414     -1071.4782332322  6.91E+00
   140 Broy./Diag. 0.40E+00   23.2     1.77541710     -1073.8569734682 -2.38E+00
   141 Broy./Diag. 0.40E+00   23.1     1.86637020     -1074.0687553091 -2.12E-01
   142 Broy./Diag. 0.40E+00   23.0     1.86238588     -1082.1769544444 -8.11E+00
   143 Broy./Diag. 0.40E+00   22.8     1.90799014     -1067.0949450839  1.51E+01
   144 Broy./Diag. 0.40E+00   23.4     1.86633018     -1071.7520653734 -4.66E+00
   145 Broy./Diag. 0.40E+00   24.2     1.92257587     -1074.2421291808 -2.49E+00
   146 Broy./Diag. 0.40E+00   21.1     1.92257851     -1074.3085073293 -6.64E-02
   147 Broy./Diag. 0.40E+00   22.5     1.90694582     -1071.3343955339  2.97E+00
   148 Broy./Diag. 0.40E+00   23.2     1.85605938     -1079.1530244440 -7.82E+00
   149 Broy./Diag. 0.40E+00   23.2     1.87218235     -1079.1500983548  2.93E-03
   150 Broy./Diag. 0.40E+00   23.4     1.90419863     -1069.0594613143  1.01E+01
   151 Broy./Diag. 0.40E+00   23.6     1.83336035     -1070.7580369133 -1.70E+00
   152 Broy./Diag. 0.40E+00   23.2     1.88182162     -1068.6898954307  2.07E+00
   153 Broy./Diag. 0.40E+00   22.3     1.96299852     -1079.4413849374 -1.08E+01
   154 Broy./Diag. 0.40E+00   21.4     1.67894698     -1065.2071881430  1.42E+01
   155 Broy./Diag. 0.40E+00   22.5     1.88671076     -1068.8082660557 -3.60E+00
   156 Broy./Diag. 0.40E+00   22.7     1.87720389     -1094.8476040891 -2.60E+01
   157 Broy./Diag. 0.40E+00   23.5     1.95028999     -1071.4573270125  2.34E+01
   158 Broy./Diag. 0.40E+00   22.9     1.85210998     -1072.1375275102 -6.80E-01
   159 Broy./Diag. 0.40E+00   22.5     1.88489543     -1077.8286004942 -5.69E+00
   160 Broy./Diag. 0.40E+00   23.0     1.91399745     -1066.0665085812  1.18E+01
   161 Broy./Diag. 0.40E+00   22.5     1.82416449     -1089.9391513968 -2.39E+01
   162 Broy./Diag. 0.40E+00   24.0     1.82316901     -1066.0535362490  2.39E+01
   163 Broy./Diag. 0.40E+00   23.7     1.86250675     -1074.1080954337 -8.05E+00
   164 Broy./Diag. 0.40E+00   21.5     1.89900542     -1069.6108500430  4.50E+00
   165 Broy./Diag. 0.40E+00   22.6     1.87787903     -1069.2804733485  3.30E-01
   166 Broy./Diag. 0.40E+00   23.1     1.88411481     -1079.4241107811 -1.01E+01
   167 Broy./Diag. 0.40E+00   22.3     1.90770992     -1078.2902896432  1.13E+00
   168 Broy./Diag. 0.40E+00   23.7     1.76438335     -1079.7162022773 -1.43E+00
   169 Broy./Diag. 0.40E+00   23.5     1.89104420     -1055.9900904326  2.37E+01
   170 Broy./Diag. 0.40E+00   24.6     1.95020250     -1098.4445851376 -4.25E+01
   171 Broy./Diag. 0.40E+00   21.6     1.90972861     -1077.7947388702  2.06E+01
   172 Broy./Diag. 0.40E+00   21.8     1.83372038     -1071.3292855133  6.47E+00
   173 Broy./Diag. 0.40E+00   23.8     1.89584737     -1084.7364362266 -1.34E+01
   174 Broy./Diag. 0.40E+00   20.8     1.82400238     -1061.8646039603  2.29E+01
   175 Broy./Diag. 0.40E+00   22.4     1.90586706     -1077.0087570449 -1.51E+01
   176 Broy./Diag. 0.40E+00   21.2     1.94837272     -1081.1163293808 -4.11E+00
   177 Broy./Diag. 0.40E+00   22.2     1.94410019     -1073.5447035427  7.57E+00
   178 Broy./Diag. 0.40E+00   22.0     1.95909385     -1075.3417723786 -1.80E+00
   179 Broy./Diag. 0.40E+00   20.7     1.94919674     -1076.9848289459 -1.64E+00
   180 Broy./Diag. 0.40E+00   22.2     1.89551552     -1054.8750945922  2.21E+01
   181 Broy./Diag. 0.40E+00   23.1     1.93728738     -1084.0380608266 -2.92E+01
   182 Broy./Diag. 0.40E+00   23.5     1.84393440     -1076.3437822760  7.69E+00
   183 Broy./Diag. 0.40E+00   24.0     1.81466253     -1070.3560001761  5.99E+00
   184 Broy./Diag. 0.40E+00   21.6     1.92011229     -1062.4738082073  7.88E+00
   185 Broy./Diag. 0.40E+00   21.2     1.93817659     -1070.4887983736 -8.01E+00
   186 Broy./Diag. 0.40E+00   23.3     1.87545812     -1083.8007309992 -1.33E+01
   187 Broy./Diag. 0.40E+00   24.3     1.87581233     -1081.7063828378  2.09E+00
   188 Broy./Diag. 0.40E+00   23.3     1.87863284     -1077.8093915505  3.90E+00
   189 Broy./Diag. 0.40E+00   24.2     1.90014221     -1066.6669825180  1.11E+01
   190 Broy./Diag. 0.40E+00   21.3     1.92831572     -1063.5122041419  3.15E+00
   191 Broy./Diag. 0.40E+00   22.4     1.92636785     -1070.0016651510 -6.49E+00
   192 Broy./Diag. 0.40E+00   21.7     1.88774891     -1080.1453629952 -1.01E+01
   193 Broy./Diag. 0.40E+00   21.7     1.94946570     -1081.9856465553 -1.84E+00
   194 Broy./Diag. 0.40E+00   22.5     1.93711484     -1070.8245337809  1.12E+01
   195 Broy./Diag. 0.40E+00   23.2     1.88959082     -1067.4899990199  3.33E+00
   196 Broy./Diag. 0.40E+00   23.1     1.95623010     -1068.9652744972 -1.48E+00
   197 Broy./Diag. 0.40E+00   23.5     1.94694197     -1071.1125687658 -2.15E+00
   198 Broy./Diag. 0.40E+00   23.5     1.83288579     -1077.1296470185 -6.02E+00
   199 Broy./Diag. 0.40E+00   23.9     1.85629173     -1086.5410216741 -9.41E+00
   200 Broy./Diag. 0.40E+00   23.1     1.86853617     -1070.1538513401  1.64E+01
   201 Broy./Diag. 0.40E+00   23.5     1.91156822     -1072.8395326542 -2.69E+00
   202 Broy./Diag. 0.40E+00   24.0     1.96977002     -1064.2718273009  8.57E+00
   203 Broy./Diag. 0.40E+00   23.5     1.95570810     -1077.0940177554 -1.28E+01
   204 Broy./Diag. 0.40E+00   22.6     1.81920545     -1069.2600020045  7.83E+00
   205 Broy./Diag. 0.40E+00   23.5     1.86484470     -1074.5141283594 -5.25E+00
   206 Broy./Diag. 0.40E+00   23.2     1.92872703     -1083.5396752428 -9.03E+00
   207 Broy./Diag. 0.40E+00   22.0     1.89362431     -1073.7212692961  9.82E+00
   208 Broy./Diag. 0.40E+00   22.4     1.88127928     -1070.5525627032  3.17E+00
   209 Broy./Diag. 0.40E+00   21.7     1.95163212     -1073.2104796697 -2.66E+00
   210 Broy./Diag. 0.40E+00   20.9     1.69973502     -1075.6747593601 -2.46E+00
   211 Broy./Diag. 0.40E+00   20.9     1.84362187     -1067.4989002260  8.18E+00
   212 Broy./Diag. 0.40E+00   21.0     1.96390192     -1072.2324716295 -4.73E+00
   213 Broy./Diag. 0.40E+00   22.3     1.87276073     -1079.3186502267 -7.09E+00
   214 Broy./Diag. 0.40E+00   23.2     1.84738451     -1065.7789920939  1.35E+01
   215 Broy./Diag. 0.40E+00   22.7     1.94437705     -1076.6930831663 -1.09E+01
   216 Broy./Diag. 0.40E+00   22.9     1.94489028     -1070.0478105945  6.65E+00
   217 Broy./Diag. 0.40E+00   24.3     1.88950939     -1080.4599541707 -1.04E+01
   218 Broy./Diag. 0.40E+00   23.0     1.92825952     -1077.8347400258  2.63E+00
   219 Broy./Diag. 0.40E+00   21.9     1.89859409     -1069.8149600020  8.02E+00
   220 Broy./Diag. 0.40E+00   22.8     1.83782333     -1077.4718163491 -7.66E+00
   221 Broy./Diag. 0.40E+00   23.3     1.91906002     -1072.0185425322  5.45E+00
   222 Broy./Diag. 0.40E+00   22.7     1.91676249     -1065.0485311907  6.97E+00
   223 Broy./Diag. 0.40E+00   21.8     1.91483475     -1074.5542508086 -9.51E+00
   224 Broy./Diag. 0.40E+00   21.1     1.90019027     -1079.5181821002 -4.96E+00
   225 Broy./Diag. 0.40E+00   21.3     1.92559304     -1077.4274119812  2.09E+00
   226 Broy./Diag. 0.40E+00   20.4     1.88668203     -1070.6019663568  6.83E+00
   227 Broy./Diag. 0.40E+00   22.2     1.86406138     -1080.4805879429 -9.88E+00
   228 Broy./Diag. 0.40E+00   22.7     1.85925086     -1065.5104151205  1.50E+01
   229 Broy./Diag. 0.40E+00   22.8     1.92808988     -1077.0466980857 -1.15E+01
   230 Broy./Diag. 0.40E+00   21.8     1.94100207     -1067.2925976179  9.75E+00
   231 Broy./Diag. 0.40E+00   23.4     1.88800295     -1081.0266789887 -1.37E+01
   232 Broy./Diag. 0.40E+00   23.2     1.88812537     -1067.4079200490  1.36E+01
   233 Broy./Diag. 0.40E+00   22.9     1.90638730     -1080.0492965789 -1.26E+01
   234 Broy./Diag. 0.40E+00   22.7     1.84368926     -1069.6601811752  1.04E+01
   235 Broy./Diag. 0.40E+00   23.1     1.90677954     -1072.3770400032 -2.72E+00
   236 Broy./Diag. 0.40E+00   23.2     1.86103575     -1078.7153262103 -6.34E+00
   237 Broy./Diag. 0.40E+00   23.9     1.93022032     -1074.7450587941  3.97E+00
   238 Broy./Diag. 0.40E+00   23.5     1.81314649     -1072.1543047700  2.59E+00
   239 Broy./Diag. 0.40E+00   22.5     1.85882519     -1072.3069400774 -1.53E-01
   240 Broy./Diag. 0.40E+00   23.0     1.93676362     -1070.0760176787  2.23E+00
   241 Broy./Diag. 0.40E+00   22.1     1.84347705     -1078.8050652693 -8.73E+00
   242 Broy./Diag. 0.40E+00   22.5     1.88076786     -1072.5301942161  6.27E+00
   243 Broy./Diag. 0.40E+00   24.5     1.93079781     -1075.9175962607 -3.39E+00
   244 Broy./Diag. 0.40E+00   23.9     1.92440800     -1074.7180780006  1.20E+00
   245 Broy./Diag. 0.40E+00   23.5     1.81495494     -1070.8012956261  3.92E+00
   246 Broy./Diag. 0.40E+00   23.2     1.95116876     -1070.2148798281  5.86E-01
   247 Broy./Diag. 0.40E+00   22.3     1.90959501     -1076.3582928384 -6.14E+00
   248 Broy./Diag. 0.40E+00   21.6     1.92696840     -1072.4114245873  3.95E+00
   249 Broy./Diag. 0.40E+00   23.6     1.92125786     -1075.7328065974 -3.32E+00
   250 Broy./Diag. 0.40E+00   23.5     1.87988987     -1079.5031748857 -3.77E+00
   251 Broy./Diag. 0.40E+00   23.3     1.92619092     -1068.2015132556  1.13E+01
   252 Broy./Diag. 0.40E+00   23.5     1.82677748     -1072.0750675298 -3.87E+00
   253 Broy./Diag. 0.40E+00   23.5     1.92463009     -1063.6611070856  8.41E+00
   254 Broy./Diag. 0.40E+00   22.4     1.93476394     -1082.1215553400 -1.85E+01
   255 Broy./Diag. 0.40E+00   21.9     1.82320269     -1074.6705397522  7.45E+00
   256 Broy./Diag. 0.40E+00   23.5     1.85517130     -1075.2720186215 -6.01E-01
   257 Broy./Diag. 0.40E+00   23.1     1.85373420     -1062.8659918068  1.24E+01
   258 Broy./Diag. 0.40E+00   23.1     1.89531941     -1082.8926765876 -2.00E+01
   259 Broy./Diag. 0.40E+00   23.2     1.93194331     -1085.6053240210 -2.71E+00
   260 Broy./Diag. 0.40E+00   23.3     1.98353497     -1063.1915629643  2.24E+01
   261 Broy./Diag. 0.40E+00   23.6     1.88587000     -1077.6691797471 -1.45E+01
   262 Broy./Diag. 0.40E+00   23.2     1.82909814     -1073.7314765078  3.94E+00
   263 Broy./Diag. 0.40E+00   24.3     1.88159344     -1072.7405225542  9.91E-01
   264 Broy./Diag. 0.40E+00   21.8     1.89988121     -1069.8756603589  2.86E+00
   265 Broy./Diag. 0.40E+00   24.3     1.89122302     -1085.2612330780 -1.54E+01
   266 Broy./Diag. 0.40E+00   22.8     1.89402112     -1063.4723837371  2.18E+01
   267 Broy./Diag. 0.40E+00   23.3     1.92758599     -1084.5116197632 -2.10E+01
   268 Broy./Diag. 0.40E+00   23.2     1.92030532     -1076.2759036081  8.24E+00
   269 Broy./Diag. 0.40E+00   24.0     1.85563304     -1066.6885655501  9.59E+00
   270 Broy./Diag. 0.40E+00   23.1     1.81565413     -1086.7230711070 -2.00E+01
   271 Broy./Diag. 0.40E+00   23.5     1.91690672     -1069.0130677621  1.77E+01
   272 Broy./Diag. 0.40E+00   23.6     1.88454405     -1084.1765013263 -1.52E+01
   273 Broy./Diag. 0.40E+00   21.6     1.89661281     -1072.8489749417  1.13E+01
   274 Broy./Diag. 0.40E+00   22.8     1.70720367     -1078.5038562116 -5.65E+00
   275 Broy./Diag. 0.40E+00   23.6     1.79215138     -1070.7015541385  7.80E+00
   276 Broy./Diag. 0.40E+00   22.9     1.86741632     -1064.0211184837  6.68E+00
   277 Broy./Diag. 0.40E+00   22.8     1.93889446     -1071.4098419851 -7.39E+00
   278 Broy./Diag. 0.40E+00   23.1     1.88895857     -1086.2253453757 -1.48E+01
   279 Broy./Diag. 0.40E+00   23.2     1.85942384     -1059.6483246756  2.66E+01
   280 Broy./Diag. 0.40E+00   23.5     1.98263612     -1081.3549737965 -2.17E+01
   281 Broy./Diag. 0.40E+00   23.8     1.80448980     -1063.7160356333  1.76E+01
   282 Broy./Diag. 0.40E+00   23.8     1.86961437     -1071.0516287280 -7.34E+00
   283 Broy./Diag. 0.40E+00   24.6     1.64377885     -1068.3545463324  2.70E+00
   284 Broy./Diag. 0.40E+00   22.5     1.87043078     -1067.7631232298  5.91E-01
   285 Broy./Diag. 0.40E+00   24.6     1.96594050     -1080.7341888707 -1.30E+01
   286 Broy./Diag. 0.40E+00   23.0     1.85089591     -1073.3914409680  7.34E+00
   287 Broy./Diag. 0.40E+00   23.1     1.94094655     -1073.9923291098 -6.01E-01
   288 Broy./Diag. 0.40E+00   23.9     1.93937981     -1071.2214904341  2.77E+00
   289 Broy./Diag. 0.40E+00   24.0     1.88173243     -1072.0718732384 -8.50E-01
   290 Broy./Diag. 0.40E+00   22.1     1.91356514     -1083.0120394068 -1.09E+01
   291 Broy./Diag. 0.40E+00   24.6     1.92014213     -1072.7468479373  1.03E+01
   292 Broy./Diag. 0.40E+00   24.2     1.86367963     -1063.7330201333  9.01E+00
   293 Broy./Diag. 0.40E+00   23.7     1.94362575     -1079.3490628007 -1.56E+01
   294 Broy./Diag. 0.40E+00   23.3     1.86066978     -1072.7866167477  6.56E+00
   295 Broy./Diag. 0.40E+00   22.9     1.92347322     -1076.1734835842 -3.39E+00
   296 Broy./Diag. 0.40E+00   22.9     1.91620704     -1076.1589052811  1.46E-02
   297 Broy./Diag. 0.40E+00   23.8     1.86964579     -1067.6489057357  8.51E+00
   298 Broy./Diag. 0.40E+00   23.7     1.88933057     -1067.9549894829 -3.06E-01
   299 Broy./Diag. 0.40E+00   23.0     1.86656168     -1081.8751780742 -1.39E+01
   300 Broy./Diag. 0.40E+00   21.9     1.85785535     -1073.9423242265  7.93E+00

  Leaving inner SCF loop after reaching   300 steps.


  Electronic density on regular grids:       -512.0004803311       -0.0004803311
  Core density on regular grids:              512.0003764709        0.0003764709
  Total charge density on r-space grids:       -0.0001038602
  Total charge density g-space grids:          -0.0001038602

  Overlap energy of the core charge distribution:               0.00000000000000
  Self energy of the core charge distribution:              -2838.21791979120962
  Core Hamiltonian energy:                                    761.79841054620704
  Hartree energy:                                            1240.00486397499822
  Exchange-correlation energy:                               -237.52767895649899

  Total energy:                                             -1073.94232422650339

 *** WARNING in qs_scf.F:542 :: SCF run NOT converged ***


 ENERGY| Total FORCE_EVAL ( QS ) energy (a.u.):            -1056.241536022595483


 ATOMIC FORCES in [a.u.]

 # Atom   Kind   Element          X              Y              Z
      1      1      O          -0.02076376     0.00519866     0.13246112
      2      2      H           0.03887238    -0.03370613     0.00013524
      3      2      H          -0.01162424     0.04153407    -0.07103595
      4      1      O          -0.02410086     0.05451668    -0.02002217
      5      2      H           0.02815517    -0.04790415    -0.03499509
      6      2      H          -0.02601535    -0.03307095     0.01786853
      7      1      O           0.04247864    -0.07245856    -0.08565850
      8      2      H           0.00930622     0.05052874     0.07378566
      9      2      H          -0.07046304    -0.07412589     0.00722924
     10      1      O          -0.02684892     0.02008140    -0.14602426
     11      2      H          -0.00888880     0.02046422     0.03702117
     12      2      H           0.04572497    -0.02854284     0.04368739
     13      1      O          -0.05300136     0.04429582     0.05145910
     14      2      H           0.01825026     0.02913128    -0.03708060
     15      2      H           0.02776181     0.03775191     0.01874103
     16      1      O           0.06844053     0.04765834    -0.10322626
     17      2      H          -0.08600673     0.03548115    -0.04215542
     18      2      H          -0.00295068    -0.03260881     0.08365721
     19      1      O           0.00376932    -0.02494550     0.11456100
     20      2      H           0.02285719     0.03764295    -0.03857924
     21      2      H           0.01399145    -0.02016249    -0.03416316
     22      1      O           0.03833975    -0.01197811    -0.06106451
     23      2      H          -0.02898890    -0.01240017    -0.07244722
     24      2      H          -0.03446991     0.02020733     0.04458537
     25      1      O           0.02425984    -0.06575112    -0.11636854
     26      2      H           0.03467266     0.03905474     0.02877242
     27      2      H          -0.00057595    -0.08300138     0.08650482
     28      1      O          -0.01157801    -0.09036941     0.06906519
     29      2      H          -0.02226110     0.01593778     0.04922458
     30      2      H           0.01443742     0.00916013    -0.00690107
     31      1      O          -0.05799742     0.04521849     0.04543055
     32      2      H           0.07689934     0.02572416     0.03151016
     33      2      H          -0.00272816    -0.09756030    -0.01940350
     34      1      O           0.01538015     0.08386467     0.13871691
     35      2      H          -0.03544115     0.04177055    -0.07372060
     36      2      H           0.02224300    -0.06249161    -0.04402744
     37      1      O          -0.03789303    -0.01967997    -0.05808535
     38      2      H          -0.01490232     0.01222729     0.00531450
     39      2      H          -0.00199153    -0.00826197     0.01632653
     40      1      O          -0.03347879     0.03479645     0.07991579
     41      2      H          -0.01280537     0.02337060     0.00000227
     42      2      H          -0.01766558     0.02465370     0.03250489
     43      1      O          -0.05627372     0.02400188    -0.04166019
     44      2      H          -0.00448675     0.01489792    -0.02601791
     45      2      H           0.08087056    -0.02624438     0.08095196
     46      1      O           0.00465438    -0.11032379     0.01693825
     47      2      H          -0.04228458     0.07025598     0.01944336
     48      2      H           0.03319244     0.00350361    -0.01984961
     49      1      O           0.01343302     0.05509397    -0.09073368
     50      2      H           0.00973422     0.05309464    -0.04590309
     51      2      H           0.00767225     0.02561590    -0.02695152
     52      1      O          -0.04255361    -0.04193776     0.00454134
     53      2      H           0.00728836     0.02390892     0.04785119
     54      2      H           0.00723753     0.00319251    -0.09103894
     55      1      O          -0.03818909    -0.07980408     0.10845875
     56      2      H          -0.00738250    -0.02920557    -0.03496429
     57      2      H           0.00967070    -0.02214373    -0.02275962
     58      1      O          -0.07925116     0.08814925    -0.09909698
     59      2      H           0.02271570     0.00093849     0.02724408
     60      2      H           0.08255506    -0.00497593    -0.08933652
     61      1      O          -0.00635393     0.08832378    -0.01171626
     62      2      H           0.04379997    -0.01487165    -0.00413083
     63      2      H          -0.03831822     0.03025673     0.02331301
     64      1      O          -0.03402765     0.04573840    -0.00074587
     65      2      H          -0.02218616     0.01317592    -0.07412179
     66      2      H           0.07827147    -0.02694976    -0.00470855
     67      1      O           0.04706751     0.02776021    -0.09677614
     68      2      H          -0.01332259     0.03615733    -0.05096127
     69      2      H          -0.03131789     0.01607010     0.04342108
     70      1      O          -0.01839444    -0.06108423    -0.10733146
     71      2      H           0.02530048     0.02674269    -0.04039603
     72      2      H          -0.04470824     0.02139308     0.07325585
     73      1      O          -0.02438362    -0.00485281    -0.04929916
     74      2      H           0.00498759    -0.00586037    -0.03771941
     75      2      H           0.00697545     0.02193490     0.07105222
     76      1      O           0.00790609    -0.03852349    -0.01880235
     77      2      H          -0.02622170     0.01830571     0.02537871
     78      2      H          -0.00118954    -0.01676397    -0.01929616
     79      1      O           0.00768628     0.05529729    -0.18743633
     80      2      H          -0.03405222    -0.09139892     0.04045997
     81      2      H           0.06120940     0.01670652     0.03325855
     82      1      O           0.12536917     0.01557901     0.08428475
     83      2      H          -0.10987441     0.02455754    -0.04938600
     84      2      H           0.00557625    -0.06948020     0.10855513
     85      1      O           0.08194010    -0.10649177     0.05646046
     86      2      H          -0.04454398     0.01073407    -0.00699187
     87      2      H          -0.01317535     0.05834244     0.04728742
     88      1      O          -0.01772098    -0.00615406    -0.05705917
     89      2      H           0.04982527    -0.02689599     0.01414163
     90      2      H          -0.01876056     0.07102173     0.06572049
     91      1      O          -0.06893265     0.00668598     0.01168636
     92      2      H           0.00170622    -0.03684670     0.11254547
     93      2      H           0.01211541     0.04355833    -0.07192306
     94      1      O          -0.05534917     0.02428103    -0.05275971
     95      2      H           0.03536748    -0.05030979     0.03987119
     96      2      H           0.03447838     0.05059485     0.02332116
     97      1      O           0.00796827    -0.02903428    -0.01470122
     98      2      H          -0.03938714    -0.01949870    -0.02766779
     99      2      H          -0.02211721     0.01066872    -0.04304609
    100      1      O          -0.03077447     0.04706146     0.10643840
    101      2      H          -0.00056581     0.00301683    -0.04164914
    102      2      H           0.00638790     0.00843647    -0.03348919
    103      1      O          -0.00176872     0.01260709     0.00928355
    104      2      H          -0.05482182     0.03742548     0.02388549
    105      2      H           0.03734125    -0.05274638     0.02776733
    106      1      O           0.02221492    -0.00596929    -0.08284156
    107      2      H          -0.02606530    -0.04092498     0.04200516
    108      2      H           0.02359490    -0.06396737     0.04289637
    109      1      O           0.03469605     0.00942536    -0.08948536
    110      2      H           0.00595040    -0.02949876     0.03787766
    111      2      H          -0.00083676     0.03281036     0.02214290
    112      1      O           0.00305195    -0.00286137     0.00150046
    113      2      H           0.01223992     0.01839368     0.00551550
    114      2      H          -0.02593639    -0.01485788    -0.03573811
    115      1      O          -0.00495212    -0.04044580    -0.08076295
    116      2      H          -0.01465797     0.02923984     0.05974853
    117      2      H          -0.00482767     0.00155989    -0.05091983
    118      1      O           0.01410034    -0.06808750     0.01086145
    119      2      H           0.01540431     0.06786856     0.00883202
    120      2      H           0.00645896    -0.00591489     0.07452737
    121      1      O           0.01986728     0.07237701     0.03929827
    122      2      H          -0.05204757     0.03429277     0.01699359
    123      2      H           0.01109495    -0.02159267     0.00642968
    124      1      O           0.13456279     0.00191266    -0.01116215
    125      2      H          -0.01708765     0.16381052     0.05779978
    126      2      H          -0.10425268    -0.12582196    -0.06446026
    127      1      O          -0.02462317    -0.03326688     0.17272478
    128      2      H          -0.07485866    -0.04125000     0.02041281
    129      2      H           0.10167381    -0.06265070    -0.09604487
    130      1      O          -0.08014357     0.01906059    -0.07274749
    131      2      H           0.04076149    -0.05112609     0.04378338
    132      2      H           0.06575841    -0.02172788    -0.00581087
    133      1      O           0.04302255     0.12597104     0.01430534
    134      2      H          -0.05383188    -0.02915814     0.07530028
    135      2      H           0.00866708    -0.08030453     0.04046492
    136      1      O          -0.08791683     0.00532628     0.00522189
    137      2      H           0.08627810     0.00227981     0.00802107
    138      2      H          -0.03345918     0.02813824     0.04953541
    139      1      O          -0.17268456    -0.14303328    -0.01065635
    140      2      H           0.08236443     0.01388802     0.13610463
    141      2      H           0.08312877     0.05264412    -0.06945023
    142      1      O           0.27670417    -0.06654796    -0.05800058
    143      2      H          -0.00471998    -0.01963114     0.00458661
    144      2      H          -0.27153705     0.05811646     0.04536854
    145      1      O           0.09778162    -0.10762047     0.02272105
    146      2      H          -0.04096444    -0.05125541     0.07401160
    147      2      H          -0.02835161     0.10804990    -0.01074821
    148      1      O           0.07296405    -0.01209829     0.01255069
    149      2      H          -0.07609337     0.07153438     0.03079426
    150      2      H           0.03876527     0.04813736     0.08947278
    151      1      O           0.03026734    -0.03498434    -0.00838591
    152      2      H           0.00216670     0.03228043    -0.00141735
    153      2      H           0.03126108    -0.02846122     0.02497565
    154      1      O           0.01162838    -0.05356504    -0.04351599
    155      2      H           0.01173825     0.06761305     0.03886418
    156      2      H          -0.04548656     0.02852284    -0.02503931
    157      1      O          -0.09056905    -0.08862357    -0.05652615
    158      2      H           0.03492918    -0.03649779    -0.09880178
    159      2      H           0.00678252     0.04610634     0.03906530
    160      1      O           0.10416590     0.03172676     0.10500924
    161      2      H          -0.02367637    -0.01515237    -0.11085987
    162      2      H          -0.07847026     0.03709617     0.04824853
    163      1      O          -0.08822971     0.01363749    -0.02786057
    164      2      H           0.04635820    -0.04413428     0.01696280
    165      2      H           0.02043487     0.10130513    -0.05303018
    166      1      O          -0.02235789     0.04315860     0.09994610
    167      2      H          -0.03695982    -0.01284386     0.06014622
    168      2      H           0.03630779     0.03297623    -0.04891129
    169      1      O          -0.08485513    -0.09904226    -0.14324078
    170      2      H           0.10911485    -0.04782251    -0.02613232
    171      2      H          -0.01777261     0.06689761     0.03841559
    172      1      O           0.07336486    -0.06781483     0.04088039
    173      2      H           0.01864030     0.06597691    -0.00792546
    174      2      H          -0.06946619    -0.06779556     0.07441565
    175      1      O           0.03408342    -0.03296726     0.09635517
    176      2      H           0.00341115    -0.01309834    -0.03216480
    177      2      H          -0.01642974     0.00109956    -0.04373443
    178      1      O           0.03929227    -0.03438429     0.03534375
    179      2      H           0.01575260    -0.02362010    -0.03308952
    180      2      H          -0.01610744    -0.03184102    -0.00064232
    181      1      O           0.05275680    -0.01336960    -0.00489751
    182      2      H           0.01016103     0.07110643    -0.02834161
    183      2      H          -0.03149061    -0.02273795    -0.07231545
    184      1      O           0.02375402    -0.09891003    -0.07649921
    185      2      H          -0.06162107     0.04501608     0.01948317
    186      2      H          -0.00818761    -0.03571104     0.02287994
    187      1      O          -0.02911270    -0.10738112     0.01809309
    188      2      H           0.02225638    -0.01569736     0.02991999
    189      2      H          -0.00331588     0.01766251    -0.01136758
    190      1      O           0.04138225     0.05157018     0.08729600
    191      2      H           0.02044993    -0.01306784     0.02704115
    192      2      H          -0.00626892    -0.01933580    -0.01303462
 SUM OF ATOMIC FORCES          -0.00864590    -0.26594329     0.28849960     0.39246988

 -------------------------------------------------------------------------------
 -                                                                             -
 -                                DBCSR STATISTICS                             -
 -                                                                             -
 -------------------------------------------------------------------------------
 COUNTER                                    TOTAL       BLAS       SMM       ACC
 flops     5 x     5 x   256           2076659200       0.0%    100.0%      0.0%
 flops     5 x    13 x   256           2113646080       0.0%    100.0%      0.0%
 flops    13 x     5 x   256           2464250880       0.0%    100.0%      0.0%
 flops    13 x    13 x   256           3750469632       0.0%    100.0%      0.0%
 flops inhomo. stacks                           0       0.0%      0.0%      0.0%
 flops total                        10.405026E+09       0.0%    100.0%      0.0%
 flops max/rank                     10.405026E+09       0.0%    100.0%      0.0%
 matmuls inhomo. stacks                         0       0.0%      0.0%      0.0%
 matmuls total                             343140       0.0%    100.0%      0.0%
 number of processed stacks                 42140       0.0%    100.0%      0.0%
 average stack size                                     0.0       8.1       0.0
 marketing flops                   333.927416E+09
 -------------------------------------------------------------------------------
 # multiplications                            301
 max memory usage/rank              30.538564E+09
 # max total images/rank                        1
 # max 3D layers                                1
 # MPI messages exchanged                       0
 MPI messages size (bytes):
  total size                         0.000000E+00
  min size                           0.000000E+00
  max size                           0.000000E+00
  average size                       0.000000E+00
 MPI breakdown and total messages size (bytes):
             size <=      128                   0                        0
       128 < size <=     8192                   0                        0
      8192 < size <=    32768                   0                        0
     32768 < size <=   131072                   0                        0
    131072 < size <=  4194304                   0                        0
   4194304 < size <= 16777216                   0                        0
  16777216 < size                               0                        0
 -------------------------------------------------------------------------------

 MEMORY| Estimated peak process memory [MiB]                               29128

 -------------------------------------------------------------------------------
 -                                                                             -
 -                           R E F E R E N C E S                               -
 -                                                                             -
 -------------------------------------------------------------------------------
 
 CP2K version 7.1, the CP2K developers group (2019).
 CP2K is freely available from https://www.cp2k.org/ .

 Schuett, Ole; Messmer, Peter; Hutter, Juerg; VandeVondele, Joost. 
 Electronic Structure Calculations on Graphics Processing Units, John
 Wiley & Sons, Ltd, 173-190 (2016). 
 GPU-Accelerated Sparse Matrix-Matrix Multiplication for
 Linear Scaling Density Functional Theory.
 https://dx.doi.org/10.1002/9781118670712.ch8

 Borstnik, U; VandeVondele, J; Weber, V; Hutter, J. 
 PARALLEL COMPUTING, 40 (5-6), 47-58 (2014). 
 Sparse matrix multiplication: The distributed block-compressed sparse
 row library.
 https://dx.doi.org/10.1016/j.parco.2014.03.012

 Hutter, J; Iannuzzi, M; Schiffmann, F; VandeVondele, J. 
 WIREs Comput Mol Sci., 4 (1), 15-25 (2014). 
 CP2K: atomistic simulations of condensed matter systems.
 https://dx.doi.org/10.1002/wcms.1159

 Krack, M. 
 THEORETICAL CHEMISTRY ACCOUNTS, 114 (1-3), 145-152 (2005). 
 Pseudopotentials for H to Kr optimized for gradient-corrected
 exchange-correlation functionals.
 https://dx.doi.org/10.1007/s00214-005-0655-y

 VandeVondele, J; Krack, M; Mohamed, F; Parrinello, M; Chassaing, T;
 Hutter, J. COMPUTER PHYSICS COMMUNICATIONS, 167 (2), 103-128 (2005). 
 QUICKSTEP: Fast and accurate density functional calculations using a
 mixed Gaussian and plane waves approach.
 https://dx.doi.org/10.1016/j.cpc.2004.12.014

 Frigo, M; Johnson, SG. 
 PROCEEDINGS OF THE IEEE, 93 (2), 216-231 (2005). 
 The design and implementation of FFTW3.
 https://dx.doi.org/10.1109/JPROC.2004.840301

 Hartwigsen, C; Goedecker, S; Hutter, J. 
 PHYSICAL REVIEW B, 58 (7), 3641-3662 (1998). 
 Relativistic separable dual-space Gaussian pseudopotentials from H to Rn.
 https://dx.doi.org/10.1103/PhysRevB.58.3641

 Lippert, G; Hutter, J; Parrinello, M. 
 MOLECULAR PHYSICS, 92 (3), 477-487 (1997). 
 A hybrid Gaussian and plane wave density functional scheme.
 https://dx.doi.org/10.1080/002689797170220

 Goedecker, S; Teter, M; Hutter, J. 
 PHYSICAL REVIEW B, 54 (3), 1703-1710 (1996). 
 Separable dual-space Gaussian pseudopotentials.
 https://dx.doi.org/10.1103/PhysRevB.54.1703


 -------------------------------------------------------------------------------
 -                                                                             -
 -                                T I M I N G                                  -
 -                                                                             -
 -------------------------------------------------------------------------------
 SUBROUTINE                       CALLS  ASD         SELF TIME        TOTAL TIME
                                MAXIMUM       AVERAGE  MAXIMUM  AVERAGE  MAXIMUM
 CP2K                                 1  1.0    1.042    1.042 6847.496 6847.496
 qs_forces                            1  2.0    0.000    0.000 6836.463 6836.463
 qs_energies                          1  3.0    0.000    0.000 6832.837 6832.837
 scf_env_do_scf                       1  4.0    0.001    0.001 6821.497 6821.497
 scf_env_do_scf_inner_loop          300  5.0    0.048    0.048 6821.497 6821.497
 gspace_mixing                      299  6.0   42.089   42.089 2912.980 2912.980
 broyden_mixing                     299  7.0 2630.687 2630.687 2630.691 2630.691
 qs_scf_new_mos                     300  6.0    0.009    0.009 1812.845 1812.845
 eigensolver                        300  7.0    0.035    0.035 1783.859 1783.859
 cp_fm_syevd                        300  8.0 1234.738 1234.738 1235.843 1235.843
 pw_transfer                       3912  9.9    0.373    0.373 1118.644 1118.644
 fft_wrap_pw1pw2                   3310 10.9    0.054    0.054 1093.364 1093.364
 rebuild_ks_matrix                  301  7.0    0.001    0.001 1087.931 1087.931
 qs_ks_build_kohn_sham_matrix       301  8.0    0.084    0.084 1087.929 1087.929
 qs_ks_update_qs_env                300  6.0    0.004    0.004 1084.503 1084.503
 qs_rho_update_rho                  301  6.0    0.003    0.003 1013.037 1013.037
 calculate_rho_elec                 301  7.0  497.371  497.371 1013.033 1013.033
 fft_wrap_pw1pw2_70                1504 11.2   86.317   86.317 1005.407 1005.407
 cp_fm_cholesky_restore             900  8.0  546.914  546.914  546.914  546.914
 fft3d_s                           3311 12.9  514.548  514.548  514.574  514.574
 density_rs2pw                      301  8.0    0.034    0.034  508.223  508.223
 pw_scatter_s                      1804 13.2  409.197  409.197  409.197  409.197
 pw_poisson_solve                   301  9.0  333.918  333.918  359.178  359.178
 sum_up_and_integrate               301  9.0   18.196   18.196  285.341  285.341
 integrate_v_rspace                 301 10.0    6.829    6.829  267.144  267.144
 potential_pw2rs                    301 11.0    2.497    2.497  258.313  258.313
 qs_vxc_create                      301  9.0    0.007    0.007  160.395  160.395
 xc_vxc_pw_create                   301 10.0   42.346   42.346  160.389  160.389
 -------------------------------------------------------------------------------

 The number of warnings for this run is : 1
 
 -------------------------------------------------------------------------------
  **** **** ******  **  PROGRAM ENDED AT                 2020-05-27 05:54:11.111
 ***** ** ***  *** **   PROGRAM RAN ON                                   gnode44
 **    ****   ******    PROGRAM RAN BY                               mayank.modi
 ***** **    ** ** **   PROGRAM PROCESS ID                                 30539
  **** **  *******  **  PROGRAM STOPPED IN /home/mayank.modi/ab-initio-thermodyn
                                           amics-of-water/mayank/cp2k_energy_cal
                                           culations
