 DBCSR| CPU Multiplication driver                                           XSMM
 DBCSR| Multrec recursion limit                                              512
 DBCSR| Multiplication stack size                                           1000
 DBCSR| Maximum elements for images                                    UNLIMITED
 DBCSR| Multiplicative factor virtual images                                   1
 DBCSR| Use multiplication densification                                       T
 DBCSR| Multiplication size stacks                                             3


  **** **** ******  **  PROGRAM STARTED AT               2020-05-27 02:03:59.814
 ***** ** ***  *** **   PROGRAM STARTED ON                               gnode44
 **    ****   ******    PROGRAM STARTED BY                           mayank.modi
 ***** **    ** ** **   PROGRAM PROCESS ID                                 28915
  **** **  *******  **  PROGRAM STARTED IN /home/mayank.modi/ab-initio-thermodyn
                                           amics-of-water/mayank/cp2k_energy_cal
                                           culations

 CP2K| version string:                                          CP2K version 7.1
 CP2K| source code revision number:                                  git:e635599
 CP2K| cp2kflags: omp libint fftw3 libxc xsmm spglib                            
 CP2K| is freely available from                            https://www.cp2k.org/
 CP2K| Program compiled at                          Mon Dec 23 19:23:12 CET 2019
 CP2K| Program compiled on                                                pc9404
 CP2K| Program compiled for                                Linux-x86-64-gfortran
 CP2K| Data directory path                                        /opt/cp2k/data
 CP2K| Input file name                                  input_training/input5.in

 GLOBAL| Force Environment number                                              1
 GLOBAL| Basis set file name                                           BASIS_SET
 GLOBAL| Potential file name                                      GTH_POTENTIALS
 GLOBAL| MM Potential file name                                     MM_POTENTIAL
 GLOBAL| Coordinate file name                                      __STD_INPUT__
 GLOBAL| Method name                                                        CP2K
 GLOBAL| Project name                                                   H2O_bulk
 GLOBAL| Preferred FFT library                                             FFTW3
 GLOBAL| Preferred diagonalization lib.                                       SL
 GLOBAL| Run type                                                   ENERGY_FORCE
 GLOBAL| All-to-all communication in single precision                          F
 GLOBAL| FFTs using library dependent lengths                                  F
 GLOBAL| Global print level                                                  LOW
 GLOBAL| MPI I/O enabled                                                       T
 GLOBAL| Total number of message passing processes                             1
 GLOBAL| Number of threads for this process                                   36
 GLOBAL| This output is from process                                           0
 GLOBAL| CPU model name                Intel(R) Xeon(R) CPU E5-2640 v4 @ 2.40GHz
 GLOBAL| CPUID                                                              1002
 GLOBAL| Compiled for CPUID                                                    0

 MEMORY| system memory details [Kb]
 MEMORY|                        rank 0           min           max       average
 MEMORY| MemTotal            131893056     131893056     131893056     131893056
 MEMORY| MemFree             121485900     121485900     121485900     121485900
 MEMORY| Buffers               2078916       2078916       2078916       2078916
 MEMORY| Cached                2779916       2779916       2779916       2779916
 MEMORY| Slab                  3294604       3294604       3294604       3294604
 MEMORY| SReclaimable          3097264       3097264       3097264       3097264
 MEMORY| MemLikelyFree       129441996     129441996     129441996     129441996


 GENERATE| WARNING:: No connections detected for Hydrogen - Atom Nr:        21 !
 GENERATE| WARNING:: No connections detected for Hydrogen - Atom Nr:        38 !
 GENERATE| WARNING:: No connections detected for Hydrogen - Atom Nr:        39 !
 GENERATE| WARNING:: No connections detected for Hydrogen - Atom Nr:        42 !
 GENERATE| WARNING:: No connections detected for Hydrogen - Atom Nr:        51 !
 GENERATE| WARNING:: No connections detected for Hydrogen - Atom Nr:        56 !
 GENERATE| WARNING:: No connections detected for Hydrogen - Atom Nr:        77 !
 GENERATE| WARNING:: No connections detected for Hydrogen - Atom Nr:       101 !
 GENERATE| WARNING:: No connections detected for Hydrogen - Atom Nr:       143 !
 GENERATE| WARNING:: No connections detected for Hydrogen - Atom Nr:       153 !
 GENERATE| WARNING:: No connections detected for Hydrogen - Atom Nr:       176 !
 GENERATE| WARNING:: No connections detected for Hydrogen - Atom Nr:       179 !
 GENERATE| WARNING:: No connections detected for Hydrogen - Atom Nr:       191 !
 GENERATE|  Preliminary Number of Bonds generated:                             0
 GENERATE|  Achieved consistency in connectivity generation.

 *******************************************************************************
 *******************************************************************************
 **                                                                           **
 **     #####                         ##              ##                      **
 **    ##   ##            ##          ##              ##                      **
 **   ##     ##                       ##            ######                    **
 **   ##     ##  ##   ##  ##   #####  ##  ##   ####   ##    #####    #####    **
 **   ##     ##  ##   ##  ##  ##      ## ##   ##      ##   ##   ##  ##   ##   **
 **   ##  ## ##  ##   ##  ##  ##      ####     ###    ##   ######   ######    **
 **    ##  ###   ##   ##  ##  ##      ## ##      ##   ##   ##       ##        **
 **     #######   #####   ##   #####  ##  ##  ####    ##    #####   ##        **
 **           ##                                                    ##        **
 **                                                                           **
 **                                                ... make the atoms dance   **
 **                                                                           **
 **            Copyright (C) by CP2K developers group (2000 - 2019)           **
 **                                                                           **
 *******************************************************************************


 TOTAL NUMBERS AND MAXIMUM NUMBERS

  Total number of            - Atomic kinds:                                   2
                             - Atoms:                                        192
                             - Shell sets:                                   384
                             - Shells:                                       704
                             - Primitive Cartesian functions:                960
                             - Cartesian basis functions:                   1536
                             - Spherical basis functions:                   1472

  Maximum angular momentum of- Orbital basis functions:                        2
                             - Local part of the GTH pseudopotential:          2
                             - Non-local part of the GTH pseudopotential:      0


 SCF PARAMETERS         Density guess:                                    ATOMIC
                        --------------------------------------------------------
                        max_scf:                                             300
                        max_scf_history:                                       0
                        max_diis:                                              4
                        --------------------------------------------------------
                        eps_scf:                                        1.00E-07
                        eps_scf_history:                                0.00E+00
                        eps_diis:                                       1.00E-01
                        eps_eigval:                                     1.00E-05
                        --------------------------------------------------------
                        level_shift [a.u.]:                                 0.00
                        --------------------------------------------------------
                        Mixing method:                            BROYDEN_MIXING
                                                charge density mixing in g-space
                        --------------------------------------------------------
                        No outer SCF

 Number of electrons:                                                        512
 Number of occupied orbitals:                                                256
 Number of molecular orbitals:                                               256

 Number of orbital functions:                                               1472
 Number of independent orbital functions:                                   1472

 Extrapolation method: initial_guess


 SCF WAVEFUNCTION OPTIMIZATION

  Step     Update method      Time    Convergence         Total energy    Change
  ------------------------------------------------------------------------------
     1 NoMix/Diag. 0.40E+00   10.3     0.68793960     -1063.1612421060 -1.06E+03
     2 Broy./Diag. 0.40E+00   15.6     1.96586268      -982.6632714211  8.05E+01
     3 Broy./Diag. 0.40E+00   16.5     1.90802077     -1300.3479503292 -3.18E+02
     4 Broy./Diag. 0.40E+00   15.8     1.85553002     -1165.8933162480  1.34E+02
     5 Broy./Diag. 0.40E+00   17.2     1.99011192     -1105.7440433029  6.01E+01
     6 Broy./Diag. 0.40E+00   17.9     2.00558165     -1081.8385981647  2.39E+01
     7 Broy./Diag. 0.40E+00   19.8     1.83119397     -1110.7971910324 -2.90E+01
     8 Broy./Diag. 0.40E+00   20.6     1.87428690     -1074.9539160316  3.58E+01
     9 Broy./Diag. 0.40E+00   22.5     1.89085880     -1092.8070215536 -1.79E+01
    10 Broy./Diag. 0.40E+00   23.6     1.87910317     -1078.5019017654  1.43E+01
    11 Broy./Diag. 0.40E+00   24.2     1.91655940     -1073.0915852560  5.41E+00
    12 Broy./Diag. 0.40E+00   24.7     1.93121137     -1087.2050598776 -1.41E+01
    13 Broy./Diag. 0.40E+00   24.3     1.85328309     -1061.4845688921  2.57E+01
    14 Broy./Diag. 0.40E+00   24.4     1.92566228     -1088.5531059730 -2.71E+01
    15 Broy./Diag. 0.40E+00   24.0     1.84572033     -1091.2305002117 -2.68E+00
    16 Broy./Diag. 0.40E+00   24.1     1.95808134     -1071.6217874003  1.96E+01
    17 Broy./Diag. 0.40E+00   24.3     1.88063202     -1068.7375945145  2.88E+00
    18 Broy./Diag. 0.40E+00   24.1     1.88063198     -1080.4981794121 -1.18E+01
    19 Broy./Diag. 0.40E+00   24.0     1.97670852     -1084.6494753275 -4.15E+00
    20 Broy./Diag. 0.40E+00   24.0     1.87298361     -1061.3354826462  2.33E+01
    21 Broy./Diag. 0.40E+00   23.8     1.88335759     -1088.9588592100 -2.76E+01
    22 Broy./Diag. 0.40E+00   23.9     1.89396716     -1075.5525605428  1.34E+01
    23 Broy./Diag. 0.40E+00   24.2     1.85196297     -1076.5552003699 -1.00E+00
    24 Broy./Diag. 0.40E+00   24.3     1.87199447     -1067.5071095461  9.05E+00
    25 Broy./Diag. 0.40E+00   24.0     1.89740324     -1073.7644985940 -6.26E+00
    26 Broy./Diag. 0.40E+00   23.8     1.91042014     -1074.8237310112 -1.06E+00
    27 Broy./Diag. 0.40E+00   24.9     1.91664368     -1069.1721674450  5.65E+00
    28 Broy./Diag. 0.40E+00   23.8     1.90144682     -1069.2551591852 -8.30E-02
    29 Broy./Diag. 0.40E+00   24.1     1.87933403     -1082.4982679236 -1.32E+01
    30 Broy./Diag. 0.40E+00   23.1     1.88611775     -1073.0125186072  9.49E+00
    31 Broy./Diag. 0.40E+00   23.1     1.90936967     -1076.8469169072 -3.83E+00
    32 Broy./Diag. 0.40E+00   23.0     1.80151632     -1071.7116646565  5.14E+00
    33 Broy./Diag. 0.40E+00   24.3     1.88711349     -1072.9298747078 -1.22E+00
    34 Broy./Diag. 0.40E+00   23.3     1.99018514     -1068.6972761003  4.23E+00
    35 Broy./Diag. 0.40E+00   22.6     1.84991243     -1072.4621402678 -3.76E+00
    36 Broy./Diag. 0.40E+00   21.8     1.87131643     -1071.1016427441  1.36E+00
    37 Broy./Diag. 0.40E+00   24.1     1.87472443     -1072.7408575916 -1.64E+00
    38 Broy./Diag. 0.40E+00   21.8     1.94826780     -1084.9053665442 -1.22E+01
    39 Broy./Diag. 0.40E+00   22.2     1.91710384     -1072.7618105674  1.21E+01
    40 Broy./Diag. 0.40E+00   20.7     1.79891944     -1074.6397216785 -1.88E+00
    41 Broy./Diag. 0.40E+00   23.5     1.89595694     -1067.1096629802  7.53E+00
    42 Broy./Diag. 0.40E+00   24.0     1.80747347     -1062.8090627877  4.30E+00
    43 Broy./Diag. 0.40E+00   23.6     1.88131112     -1071.5240679142 -8.72E+00
    44 Broy./Diag. 0.40E+00   24.0     1.92408608     -1069.9355512528  1.59E+00
    45 Broy./Diag. 0.40E+00   23.2     1.93073739     -1096.2733491401 -2.63E+01
    46 Broy./Diag. 0.40E+00   23.5     1.90194193     -1074.7353836867  2.15E+01
    47 Broy./Diag. 0.40E+00   23.4     1.85854776     -1077.9322684420 -3.20E+00
    48 Broy./Diag. 0.40E+00   24.9     1.88628695     -1070.6922213108  7.24E+00
    49 Broy./Diag. 0.40E+00   24.2     1.78997245     -1071.2065576113 -5.14E-01
    50 Broy./Diag. 0.40E+00   23.2     1.90535271     -1066.5811092353  4.63E+00
    51 Broy./Diag. 0.40E+00   23.8     1.90079308     -1077.6639161200 -1.11E+01
    52 Broy./Diag. 0.40E+00   24.0     1.87929309     -1069.5263745567  8.14E+00
    53 Broy./Diag. 0.40E+00   24.7     1.92195629     -1076.5185484450 -6.99E+00
    54 Broy./Diag. 0.40E+00   22.0     1.91606554     -1078.1543872649 -1.64E+00
    55 Broy./Diag. 0.40E+00   23.5     1.91976299     -1086.8576621328 -8.70E+00
    56 Broy./Diag. 0.40E+00   23.7     1.91436636     -1060.6396057651  2.62E+01
    57 Broy./Diag. 0.40E+00   23.1     1.97866715     -1072.9915498781 -1.24E+01
    58 Broy./Diag. 0.40E+00   23.7     1.90550102     -1072.8831588386  1.08E-01
    59 Broy./Diag. 0.40E+00   25.4     1.93790347     -1062.7649465629  1.01E+01
    60 Broy./Diag. 0.40E+00   23.9     1.97486890     -1085.9204464483 -2.32E+01
    61 Broy./Diag. 0.40E+00   24.2     1.90346736     -1076.8958528819  9.02E+00
    62 Broy./Diag. 0.40E+00   24.2     1.81210118     -1071.2552494776  5.64E+00
    63 Broy./Diag. 0.40E+00   24.8     1.87715744     -1068.2013939227  3.05E+00
    64 Broy./Diag. 0.40E+00   23.9     1.86273428     -1061.9325527841  6.27E+00
    65 Broy./Diag. 0.40E+00   24.0     1.92164673     -1081.3133930926 -1.94E+01
    66 Broy./Diag. 0.40E+00   24.0     1.87624373     -1072.4483317233  8.87E+00
    67 Broy./Diag. 0.40E+00   24.1     1.92015937     -1080.5317425776 -8.08E+00
    68 Broy./Diag. 0.40E+00   24.2     1.80593730     -1069.7804343985  1.08E+01
    69 Broy./Diag. 0.40E+00   24.4     1.90528865     -1068.5962011423  1.18E+00
    70 Broy./Diag. 0.40E+00   24.2     1.92684631     -1082.3601945476 -1.38E+01
    71 Broy./Diag. 0.40E+00   24.2     1.89211245     -1069.8442610823  1.25E+01
    72 Broy./Diag. 0.40E+00   24.3     1.86848856     -1066.6164671254  3.23E+00
    73 Broy./Diag. 0.40E+00   24.2     1.93018318     -1086.0405882233 -1.94E+01
    74 Broy./Diag. 0.40E+00   24.3     1.89284697     -1073.7552285388  1.23E+01
    75 Broy./Diag. 0.40E+00   24.2     1.88573468     -1061.8722392932  1.19E+01
    76 Broy./Diag. 0.40E+00   23.9     1.86558121     -1074.9578506411 -1.31E+01
    77 Broy./Diag. 0.40E+00   24.8     1.86557548     -1078.6412386061 -3.68E+00
    78 Broy./Diag. 0.40E+00   24.0     1.92513376     -1080.1062419094 -1.47E+00
    79 Broy./Diag. 0.40E+00   23.2     1.92801556     -1077.8465697091  2.26E+00
    80 Broy./Diag. 0.40E+00   24.2     1.87700196     -1078.8416215284 -9.95E-01
    81 Broy./Diag. 0.40E+00   24.0     1.96005554     -1062.9056557966  1.59E+01
    82 Broy./Diag. 0.40E+00   24.1     1.95010062     -1069.9632727344 -7.06E+00
    83 Broy./Diag. 0.40E+00   24.0     1.92564979     -1071.8951372388 -1.93E+00
    84 Broy./Diag. 0.40E+00   24.0     1.90531477     -1072.5013592025 -6.06E-01
    85 Broy./Diag. 0.40E+00   23.8     1.91475243     -1075.3772279077 -2.88E+00
    86 Broy./Diag. 0.40E+00   23.5     1.89363391     -1074.0715497891  1.31E+00
    87 Broy./Diag. 0.40E+00   23.5     1.97146132     -1069.3206231631  4.75E+00
    88 Broy./Diag. 0.40E+00   22.8     1.92613239     -1080.8168042852 -1.15E+01
    89 Broy./Diag. 0.40E+00   24.5     1.82296048     -1073.7914103896  7.03E+00
    90 Broy./Diag. 0.40E+00   23.7     1.88036057     -1070.0612655097  3.73E+00
    91 Broy./Diag. 0.40E+00   23.0     1.86369250     -1073.0606806475 -3.00E+00
    92 Broy./Diag. 0.40E+00   21.7     1.87293670     -1072.9078751051  1.53E-01
    93 Broy./Diag. 0.40E+00   21.2     1.95355102     -1078.3273894772 -5.42E+00
    94 Broy./Diag. 0.40E+00   23.2     1.91201741     -1072.1867729868  6.14E+00
    95 Broy./Diag. 0.40E+00   23.5     2.00899339     -1072.3325496321 -1.46E-01
    96 Broy./Diag. 0.40E+00   22.4     1.92788442     -1068.0253056592  4.31E+00
    97 Broy./Diag. 0.40E+00   23.8     1.84085528     -1080.7245928686 -1.27E+01
    98 Broy./Diag. 0.40E+00   22.9     1.79023642     -1074.0596291621  6.66E+00
    99 Broy./Diag. 0.40E+00   22.9     1.86779369     -1061.3181258043  1.27E+01
   100 Broy./Diag. 0.40E+00   22.8     1.91562849     -1077.3260818353 -1.60E+01
   101 Broy./Diag. 0.40E+00   23.0     1.76154352     -1080.4930949668 -3.17E+00
   102 Broy./Diag. 0.40E+00   23.0     1.92022410     -1071.3516631851  9.14E+00
   103 Broy./Diag. 0.40E+00   23.4     1.95301548     -1075.4334714924 -4.08E+00
   104 Broy./Diag. 0.40E+00   24.2     1.90338519     -1071.0491349739  4.38E+00
   105 Broy./Diag. 0.40E+00   23.7     1.89620961     -1069.3011001260  1.75E+00
   106 Broy./Diag. 0.40E+00   22.8     1.97265435     -1081.4534258783 -1.22E+01
   107 Broy./Diag. 0.40E+00   23.0     1.87246420     -1070.8083938073  1.06E+01
   108 Broy./Diag. 0.40E+00   23.3     1.89787790     -1069.4441763972  1.36E+00
   109 Broy./Diag. 0.40E+00   23.7     1.96397462     -1072.6156372065 -3.17E+00
   110 Broy./Diag. 0.40E+00   23.6     1.85250953     -1076.6017867812 -3.99E+00
   111 Broy./Diag. 0.40E+00   23.1     1.86514166     -1069.1565935038  7.45E+00
   112 Broy./Diag. 0.40E+00   23.1     1.86928153     -1078.5747492202 -9.42E+00
   113 Broy./Diag. 0.40E+00   22.5     1.92593827     -1086.9731970135 -8.40E+00
   114 Broy./Diag. 0.40E+00   23.3     1.83863827     -1072.7060831046  1.43E+01
   115 Broy./Diag. 0.40E+00   22.9     1.88622966     -1065.5267295558  7.18E+00
   116 Broy./Diag. 0.40E+00   22.5     1.93696320     -1077.9701439510 -1.24E+01
   117 Broy./Diag. 0.40E+00   20.9     1.92110637     -1066.5597762460  1.14E+01
   118 Broy./Diag. 0.40E+00   23.6     1.82383525     -1072.3955962007 -5.84E+00
   119 Broy./Diag. 0.40E+00   22.4     1.89647188     -1065.2667012944  7.13E+00
   120 Broy./Diag. 0.40E+00   22.3     1.96577176     -1085.9524562216 -2.07E+01
   121 Broy./Diag. 0.40E+00   22.4     1.87859697     -1079.2226174917  6.73E+00
   122 Broy./Diag. 0.40E+00   23.7     1.87138987     -1068.5766102453  1.06E+01
   123 Broy./Diag. 0.40E+00   23.3     1.87406702     -1059.0561207058  9.52E+00
   124 Broy./Diag. 0.40E+00   24.2     1.87047324     -1071.1105723198 -1.21E+01
   125 Broy./Diag. 0.40E+00   23.1     1.94901825     -1071.1666905324 -5.61E-02
   126 Broy./Diag. 0.40E+00   23.4     1.84666698     -1080.3978421740 -9.23E+00
   127 Broy./Diag. 0.40E+00   22.1     1.92165099     -1077.8464704623  2.55E+00
   128 Broy./Diag. 0.40E+00   24.0     1.81568985     -1069.3264926798  8.52E+00
   129 Broy./Diag. 0.40E+00   23.1     1.88937086     -1078.8590139944 -9.53E+00
   130 Broy./Diag. 0.40E+00   24.4     1.94249588     -1074.2386299990  4.62E+00
   131 Broy./Diag. 0.40E+00   23.6     1.92116537     -1072.9201413275  1.32E+00
   132 Broy./Diag. 0.40E+00   22.6     1.90117143     -1074.2942515748 -1.37E+00
   133 Broy./Diag. 0.40E+00   23.2     1.88160352     -1073.4662494290  8.28E-01
   134 Broy./Diag. 0.40E+00   23.3     1.89028432     -1079.3404764220 -5.87E+00
   135 Broy./Diag. 0.40E+00   23.2     1.95496780     -1056.8934449304  2.24E+01
   136 Broy./Diag. 0.40E+00   22.8     1.82411915     -1086.8504575951 -3.00E+01
   137 Broy./Diag. 0.40E+00   23.0     1.91113399     -1081.0091213416  5.84E+00
   138 Broy./Diag. 0.40E+00   23.9     1.82351642     -1081.7100378311 -7.01E-01
   139 Broy./Diag. 0.40E+00   23.3     1.92980066     -1067.0218580158  1.47E+01
   140 Broy./Diag. 0.40E+00   22.5     1.88578277     -1078.0909347815 -1.11E+01
   141 Broy./Diag. 0.40E+00   21.0     1.88851136     -1072.8853217677  5.21E+00
   142 Broy./Diag. 0.40E+00   23.0     1.95011270     -1081.1646289556 -8.28E+00
   143 Broy./Diag. 0.40E+00   23.2     1.87726904     -1066.0187017306  1.51E+01
   144 Broy./Diag. 0.40E+00   24.6     1.89257525     -1074.1297050086 -8.11E+00
   145 Broy./Diag. 0.40E+00   23.5     1.96463629     -1068.8390774925  5.29E+00
   146 Broy./Diag. 0.40E+00   24.1     1.83661309     -1070.0647259949 -1.23E+00
   147 Broy./Diag. 0.40E+00   23.6     1.92901609     -1081.5245310514 -1.15E+01
   148 Broy./Diag. 0.40E+00   22.4     1.92175679     -1070.3684362208  1.12E+01
   149 Broy./Diag. 0.40E+00   23.3     1.89723071     -1071.3063477162 -9.38E-01
   150 Broy./Diag. 0.40E+00   22.3     1.85962158     -1070.9083318609  3.98E-01
   151 Broy./Diag. 0.40E+00   22.5     1.88765236     -1071.1985828800 -2.90E-01
   152 Broy./Diag. 0.40E+00   22.6     1.89818790     -1069.8254797722  1.37E+00
   153 Broy./Diag. 0.40E+00   22.1     1.90498064     -1070.1128829548 -2.87E-01
   154 Broy./Diag. 0.40E+00   22.4     1.90374596     -1074.7513376031 -4.64E+00
   155 Broy./Diag. 0.40E+00   23.4     1.79656300     -1071.6972602101  3.05E+00
   156 Broy./Diag. 0.40E+00   23.3     1.83683803     -1066.8946814249  4.80E+00
   157 Broy./Diag. 0.40E+00   23.2     1.88426269     -1085.9664259598 -1.91E+01
   158 Broy./Diag. 0.40E+00   23.7     1.91605304     -1086.6241158983 -6.58E-01
   159 Broy./Diag. 0.40E+00   24.2     1.95088206     -1072.3655151809  1.43E+01
   160 Broy./Diag. 0.40E+00   23.5     1.97519029     -1071.8212254335  5.44E-01
   161 Broy./Diag. 0.40E+00   23.6     1.84296316     -1074.5759557017 -2.75E+00
   162 Broy./Diag. 0.40E+00   23.9     1.86527956     -1068.4351011107  6.14E+00
   163 Broy./Diag. 0.40E+00   23.5     1.79706032     -1062.8043940084  5.63E+00
   164 Broy./Diag. 0.40E+00   24.4     1.88416661     -1085.0609478064 -2.23E+01
   165 Broy./Diag. 0.40E+00   22.2     1.91374246     -1077.2956517499  7.77E+00
   166 Broy./Diag. 0.40E+00   23.8     1.91374292     -1083.8359437085 -6.54E+00
   167 Broy./Diag. 0.40E+00   23.8     1.98135124     -1069.2855943118  1.46E+01
   168 Broy./Diag. 0.40E+00   24.6     1.85703237     -1072.0418396810 -2.76E+00
   169 Broy./Diag. 0.40E+00   21.3     1.87787288     -1066.2803115159  5.76E+00
   170 Broy./Diag. 0.40E+00   22.4     1.90332016     -1085.0310333639 -1.88E+01
   171 Broy./Diag. 0.40E+00   21.8     1.99471154     -1081.0671686867  3.96E+00
   172 Broy./Diag. 0.40E+00   21.0     1.90402636     -1060.2324001440  2.08E+01
   173 Broy./Diag. 0.40E+00   23.4     1.87302649     -1064.9151196155 -4.68E+00
   174 Broy./Diag. 0.40E+00   23.5     1.87917411     -1075.9253939125 -1.10E+01
   175 Broy./Diag. 0.40E+00   23.5     1.96579182     -1073.6676595699  2.26E+00
   176 Broy./Diag. 0.40E+00   23.5     1.88727871     -1081.9008195563 -8.23E+00
   177 Broy./Diag. 0.40E+00   23.6     1.88358668     -1061.4273376846  2.05E+01
   178 Broy./Diag. 0.40E+00   23.5     1.87692058     -1079.3137963255 -1.79E+01
   179 Broy./Diag. 0.40E+00   23.4     1.85562353     -1068.3966221253  1.09E+01
   180 Broy./Diag. 0.40E+00   23.3     1.88796124     -1077.9598252347 -9.56E+00
   181 Broy./Diag. 0.40E+00   23.4     1.89621449     -1073.2640429972  4.70E+00
   182 Broy./Diag. 0.40E+00   22.9     1.83870522     -1078.1412273304 -4.88E+00
   183 Broy./Diag. 0.40E+00   23.5     1.88606123     -1070.0204091239  8.12E+00
   184 Broy./Diag. 0.40E+00   23.3     1.99273491     -1083.5727878838 -1.36E+01
   185 Broy./Diag. 0.40E+00   23.7     1.88275032     -1073.9740866034  9.60E+00
   186 Broy./Diag. 0.40E+00   23.6     1.86787564     -1056.7259333638  1.72E+01
   187 Broy./Diag. 0.40E+00   23.0     1.94896147     -1073.2959826232 -1.66E+01
   188 Broy./Diag. 0.40E+00   22.4     1.85697138     -1086.7321269005 -1.34E+01
   189 Broy./Diag. 0.40E+00   22.8     1.90520931     -1074.2198703603  1.25E+01
   190 Broy./Diag. 0.40E+00   23.8     1.98597501     -1068.1313702060  6.09E+00
   191 Broy./Diag. 0.40E+00   24.5     1.86710831     -1080.7101714475 -1.26E+01
   192 Broy./Diag. 0.40E+00   23.8     1.86300991     -1078.5927350609  2.12E+00
   193 Broy./Diag. 0.40E+00   23.6     1.91934581     -1063.1007238697  1.55E+01
   194 Broy./Diag. 0.40E+00   24.0     1.95701697     -1087.0210471025 -2.39E+01
   195 Broy./Diag. 0.40E+00   23.3     1.90954613     -1078.7161957067  8.30E+00
   196 Broy./Diag. 0.40E+00   23.8     1.79468922     -1065.8304997588  1.29E+01
   197 Broy./Diag. 0.40E+00   23.5     1.89287057     -1072.4428498610 -6.61E+00
   198 Broy./Diag. 0.40E+00   23.5     1.91123806     -1077.0776539096 -4.63E+00
   199 Broy./Diag. 0.40E+00   22.0     1.91528241     -1071.3760221283  5.70E+00
   200 Broy./Diag. 0.40E+00   20.9     1.86974062     -1075.9118537805 -4.54E+00
   201 Broy./Diag. 0.40E+00   21.7     1.99764478     -1083.2659146668 -7.35E+00
   202 Broy./Diag. 0.40E+00   21.2     1.89438319     -1058.9966336757  2.43E+01
   203 Broy./Diag. 0.40E+00   22.9     1.91373375     -1076.6617623794 -1.77E+01
   204 Broy./Diag. 0.40E+00   23.2     1.89292832     -1075.1195285639  1.54E+00
   205 Broy./Diag. 0.40E+00   23.2     1.89292750     -1065.3705885374  9.75E+00
   206 Broy./Diag. 0.40E+00   23.1     1.92034890     -1085.2291896436 -1.99E+01
   207 Broy./Diag. 0.40E+00   23.2     1.90549755     -1077.9234128834  7.31E+00
   208 Broy./Diag. 0.40E+00   23.2     1.89124659     -1071.2699715993  6.65E+00
   209 Broy./Diag. 0.40E+00   23.3     1.88599518     -1063.6831966306  7.59E+00
   210 Broy./Diag. 0.40E+00   24.4     1.95047795     -1072.3288072399 -8.65E+00
   211 Broy./Diag. 0.40E+00   21.4     1.89174569     -1087.3991746247 -1.51E+01
   212 Broy./Diag. 0.40E+00   21.8     1.88570558     -1069.5040046986  1.79E+01
   213 Broy./Diag. 0.40E+00   23.5     1.98483487     -1068.8402916292  6.64E-01
   214 Broy./Diag. 0.40E+00   22.8     1.80519138     -1077.5552541350 -8.71E+00
   215 Broy./Diag. 0.40E+00   23.5     1.85291190     -1070.3982621845  7.16E+00
   216 Broy./Diag. 0.40E+00   23.1     1.91104118     -1068.6859259957  1.71E+00
   217 Broy./Diag. 0.40E+00   23.7     1.85880738     -1075.9296265274 -7.24E+00
   218 Broy./Diag. 0.40E+00   23.8     1.91895504     -1082.2152425314 -6.29E+00
   219 Broy./Diag. 0.40E+00   21.8     1.91895701     -1064.8920484166  1.73E+01
   220 Broy./Diag. 0.40E+00   23.4     1.88221694     -1077.5476446650 -1.27E+01
   221 Broy./Diag. 0.40E+00   24.3     1.88220887     -1082.6414976707 -5.09E+00
   222 Broy./Diag. 0.40E+00   23.7     1.96874786     -1074.1683958643  8.47E+00
   223 Broy./Diag. 0.40E+00   23.7     1.90843003     -1074.4785881691 -3.10E-01
   224 Broy./Diag. 0.40E+00   22.7     1.81885584     -1075.6658994571 -1.19E+00
   225 Broy./Diag. 0.40E+00   21.7     1.87020051     -1078.6565583022 -2.99E+00
   226 Broy./Diag. 0.40E+00   23.9     1.91607163     -1076.1928401010  2.46E+00
   227 Broy./Diag. 0.40E+00   22.3     1.78663385     -1063.5917417391  1.26E+01
   228 Broy./Diag. 0.40E+00   22.7     1.89808563     -1065.4393372240 -1.85E+00
   229 Broy./Diag. 0.40E+00   23.5     1.89469356     -1080.1376641234 -1.47E+01
   230 Broy./Diag. 0.40E+00   23.4     1.89736538     -1080.7217905081 -5.84E-01
   231 Broy./Diag. 0.40E+00   22.4     1.99308455     -1067.8775120471  1.28E+01
   232 Broy./Diag. 0.40E+00   20.8     1.83680139     -1077.1184455680 -9.24E+00
   233 Broy./Diag. 0.40E+00   22.6     1.96537591     -1070.9638390896  6.15E+00
   234 Broy./Diag. 0.40E+00   23.1     1.95550596     -1080.0104638198 -9.05E+00
   235 Broy./Diag. 0.40E+00   24.0     1.81193285     -1071.2062249434  8.80E+00
   236 Broy./Diag. 0.40E+00   23.4     1.91610661     -1067.7472575616  3.46E+00
   237 Broy./Diag. 0.40E+00   23.7     1.81098641     -1069.8568016559 -2.11E+00
   238 Broy./Diag. 0.40E+00   23.3     1.86497182     -1079.0686256490 -9.21E+00
   239 Broy./Diag. 0.40E+00   23.9     1.88161357     -1072.9517222091  6.12E+00
   240 Broy./Diag. 0.40E+00   22.9     1.95633038     -1064.8505902789  8.10E+00
   241 Broy./Diag. 0.40E+00   22.5     1.87950841     -1069.6000797518 -4.75E+00
   242 Broy./Diag. 0.40E+00   23.5     1.88280050     -1072.0917362000 -2.49E+00
   243 Broy./Diag. 0.40E+00   23.4     1.94930362     -1078.6368519718 -6.55E+00
   244 Broy./Diag. 0.40E+00   22.8     1.87308084     -1083.4656627595 -4.83E+00
   245 Broy./Diag. 0.40E+00   22.9     1.87167722     -1066.0712343699  1.74E+01
   246 Broy./Diag. 0.40E+00   23.4     1.94230576     -1077.2510752257 -1.12E+01
   247 Broy./Diag. 0.40E+00   23.6     1.86575342     -1068.3358192688  8.92E+00
   248 Broy./Diag. 0.40E+00   23.4     1.87754298     -1072.1036523759 -3.77E+00
   249 Broy./Diag. 0.40E+00   22.5     1.90620057     -1073.9930403261 -1.89E+00
   250 Broy./Diag. 0.40E+00   23.9     1.86857223     -1074.3953747145 -4.02E-01
   251 Broy./Diag. 0.40E+00   24.2     1.90875976     -1073.7216864654  6.74E-01
   252 Broy./Diag. 0.40E+00   23.5     1.93526967     -1081.9822941240 -8.26E+00
   253 Broy./Diag. 0.40E+00   22.4     1.94690273     -1072.4466994482  9.54E+00
   254 Broy./Diag. 0.40E+00   23.2     1.94632952     -1070.4457405130  2.00E+00
   255 Broy./Diag. 0.40E+00   23.7     1.95033486     -1069.6525433369  7.93E-01
   256 Broy./Diag. 0.40E+00   22.9     1.90626090     -1074.0692470801 -4.42E+00
   257 Broy./Diag. 0.40E+00   22.7     1.84040833     -1070.0446576147  4.02E+00
   258 Broy./Diag. 0.40E+00   20.6     1.89015553     -1083.4091480052 -1.34E+01
   259 Broy./Diag. 0.40E+00   22.8     1.94713233     -1068.5996717983  1.48E+01
   260 Broy./Diag. 0.40E+00   23.4     1.84243393     -1071.7129287703 -3.11E+00
   261 Broy./Diag. 0.40E+00   23.1     1.90457141     -1066.4614390197  5.25E+00
   262 Broy./Diag. 0.40E+00   23.7     1.93446087     -1085.8932888325 -1.94E+01
   263 Broy./Diag. 0.40E+00   23.8     1.86076915     -1074.8085818615  1.11E+01
   264 Broy./Diag. 0.40E+00   23.6     1.91085476     -1063.4490436141  1.14E+01
   265 Broy./Diag. 0.40E+00   22.4     1.93410916     -1072.7837557536 -9.33E+00
   266 Broy./Diag. 0.40E+00   20.9     1.91242779     -1077.5204784801 -4.74E+00
   267 Broy./Diag. 0.40E+00   23.7     1.92057058     -1075.1373766228  2.38E+00
   268 Broy./Diag. 0.40E+00   23.2     1.89705131     -1074.3088904324  8.28E-01
   269 Broy./Diag. 0.40E+00   23.0     1.96194002     -1069.7883567114  4.52E+00
   270 Broy./Diag. 0.40E+00   23.3     1.88287245     -1083.6244382109 -1.38E+01
   271 Broy./Diag. 0.40E+00   23.3     1.87535444     -1067.5241418032  1.61E+01
   272 Broy./Diag. 0.40E+00   22.5     1.90099639     -1067.4052071015  1.19E-01
   273 Broy./Diag. 0.40E+00   23.1     1.88322992     -1082.7365452877 -1.53E+01
   274 Broy./Diag. 0.40E+00   23.2     1.94481227     -1070.9049465121  1.18E+01
   275 Broy./Diag. 0.40E+00   23.6     1.90532744     -1087.3496533323 -1.64E+01
   276 Broy./Diag. 0.40E+00   24.4     1.84130569     -1067.5689759376  1.98E+01
   277 Broy./Diag. 0.40E+00   23.8     1.87690467     -1068.6016212019 -1.03E+00
   278 Broy./Diag. 0.40E+00   22.9     1.95467811     -1075.6256356674 -7.02E+00
   279 Broy./Diag. 0.40E+00   23.0     1.93885186     -1073.0298941716  2.60E+00
   280 Broy./Diag. 0.40E+00   23.3     1.93637333     -1070.3510831458  2.68E+00
   281 Broy./Diag. 0.40E+00   23.5     1.92745913     -1073.2130046273 -2.86E+00
   282 Broy./Diag. 0.40E+00   21.6     1.95453618     -1083.5096439800 -1.03E+01
   283 Broy./Diag. 0.40E+00   22.5     1.85505097     -1062.5082234132  2.10E+01
   284 Broy./Diag. 0.40E+00   22.9     1.91481919     -1081.3613559700 -1.89E+01
   285 Broy./Diag. 0.40E+00   23.1     1.84254080     -1069.5857136360  1.18E+01
   286 Broy./Diag. 0.40E+00   23.1     1.85394710     -1065.0198748906  4.57E+00
   287 Broy./Diag. 0.40E+00   23.2     1.95584841     -1068.0635717837 -3.04E+00
   288 Broy./Diag. 0.40E+00   23.5     1.78799671     -1076.9428484522 -8.88E+00
   289 Broy./Diag. 0.40E+00   22.7     1.91921978     -1069.7855403464  7.16E+00
   290 Broy./Diag. 0.40E+00   23.4     1.94979096     -1078.5617153296 -8.78E+00
   291 Broy./Diag. 0.40E+00   24.0     1.84356099     -1070.2127221083  8.35E+00
   292 Broy./Diag. 0.40E+00   22.8     1.88610279     -1070.8945167971 -6.82E-01
   293 Broy./Diag. 0.40E+00   23.3     1.92137284     -1081.6299649102 -1.07E+01
   294 Broy./Diag. 0.40E+00   23.4     1.88151837     -1059.0295725451  2.26E+01
   295 Broy./Diag. 0.40E+00   22.5     1.87445066     -1078.1784620389 -1.91E+01
   296 Broy./Diag. 0.40E+00   21.3     1.93167997     -1072.0558818116  6.12E+00
   297 Broy./Diag. 0.40E+00   21.7     1.88939046     -1079.0499293336 -6.99E+00
   298 Broy./Diag. 0.40E+00   23.7     1.89214642     -1077.0921668551  1.96E+00
   299 Broy./Diag. 0.40E+00   24.1     1.97444798     -1067.8992513982  9.19E+00
   300 Broy./Diag. 0.40E+00   21.7     1.93284872     -1079.3436751665 -1.14E+01

  Leaving inner SCF loop after reaching   300 steps.


  Electronic density on regular grids:       -511.9997421066        0.0002578934
  Core density on regular grids:              512.0000891488        0.0000891488
  Total charge density on r-space grids:        0.0003470422
  Total charge density g-space grids:           0.0003470422

  Overlap energy of the core charge distribution:               0.00000000000000
  Self energy of the core charge distribution:              -2838.21791979120962
  Core Hamiltonian energy:                                    756.47020217849422
  Hartree energy:                                            1239.91388714034611
  Exchange-correlation energy:                               -237.50984469417762

  Total energy:                                             -1079.34367516654697

 *** WARNING in qs_scf.F:542 :: SCF run NOT converged ***


 ENERGY| Total FORCE_EVAL ( QS ) energy (a.u.):            -1050.493793802754453


 ATOMIC FORCES in [a.u.]

 # Atom   Kind   Element          X              Y              Z
      1      1      O          -0.09112137     0.13118147    -0.00825737
      2      2      H          -0.00063284    -0.01213828     0.11406203
      3      2      H           0.07146776     0.00725944    -0.04022420
      4      1      O          -0.03584927     0.00408651     0.10641284
      5      2      H           0.02172930     0.00080747    -0.06354881
      6      2      H          -0.04184081     0.00549119     0.00183822
      7      1      O           0.08766356    -0.01324864    -0.07282204
      8      2      H          -0.06975865    -0.01251175     0.01771358
      9      2      H          -0.01552527    -0.03858726    -0.01200009
     10      1      O          -0.00403213    -0.04421204    -0.04395879
     11      2      H           0.04922203    -0.05176558     0.09212817
     12      2      H          -0.06313212     0.04127072     0.04929061
     13      1      O          -0.11596491     0.13167197    -0.13658611
     14      2      H           0.11190340    -0.10425698    -0.13963323
     15      2      H           0.00609688    -0.06466398     0.19679984
     16      1      O           0.07826194     0.12284115    -0.01439006
     17      2      H          -0.06353910    -0.04376402    -0.03536698
     18      2      H          -0.00690644    -0.00122631     0.11926249
     19      1      O           0.16220185     0.00020436     0.16622815
     20      2      H          -0.18442718     0.06319867    -0.10259251
     21      2      H           0.00208238     0.02823384     0.03557449
     22      1      O           0.17864584     0.12593081    -0.16200886
     23      2      H          -0.02030009    -0.16910352     0.09237086
     24      2      H          -0.15903623     0.09191848     0.11712488
     25      1      O           0.01288033    -0.05954521    -0.14381095
     26      2      H           0.01796324     0.08514925     0.00079963
     27      2      H          -0.03922451    -0.00070366     0.04865435
     28      1      O           0.07055878    -0.02672698     0.11077769
     29      2      H          -0.07734462     0.03540233     0.07738195
     30      2      H           0.03412076     0.07066769    -0.02969549
     31      1      O          -0.07421278     0.06661133     0.08199480
     32      2      H           0.09549374    -0.01180213     0.01028484
     33      2      H           0.01253524    -0.04387336     0.04567172
     34      1      O           0.03273956    -0.00388863     0.05829010
     35      2      H          -0.02313116     0.05516527     0.05879149
     36      2      H          -0.01016092    -0.00776824    -0.03040593
     37      1      O          -0.00959978     0.05211531     0.05709122
     38      2      H           0.02017592     0.05165493    -0.02414647
     39      2      H           0.01196211    -0.01661228    -0.02726305
     40      1      O          -0.07256201     0.23244730    -0.16331377
     41      2      H           0.08703239    -0.19321492     0.15349251
     42      2      H           0.02417392    -0.02510344     0.03288891
     43      1      O           0.02320430    -0.13899158    -0.12637250
     44      2      H          -0.00366359     0.04376907    -0.08430272
     45      2      H           0.00362213     0.07042255     0.08628180
     46      1      O           0.05730930    -0.03635319     0.14898114
     47      2      H          -0.04803793     0.09458344    -0.05813620
     48      2      H          -0.00703179    -0.09677340    -0.02194218
     49      1      O          -0.03815543     0.05645873     0.13468498
     50      2      H           0.02211676     0.01982149    -0.03899025
     51      2      H          -0.00646604     0.01170600     0.00457877
     52      1      O           0.08117435    -0.05265648     0.07812978
     53      2      H          -0.00357920    -0.00462088     0.00941288
     54      2      H          -0.05861877    -0.03522956    -0.05483662
     55      1      O           0.00622963    -0.06610052    -0.12905196
     56      2      H          -0.01239197    -0.00454600    -0.03202023
     57      2      H           0.00887922    -0.00612752     0.07123623
     58      1      O          -0.00273982     0.04719075    -0.10132261
     59      2      H           0.00088287    -0.00456563     0.00698286
     60      2      H          -0.01840533    -0.01754539     0.02740874
     61      1      O          -0.03122320    -0.00726416    -0.13622011
     62      2      H           0.00308307    -0.05519063     0.00318748
     63      2      H           0.00610847     0.07094652     0.09015467
     64      1      O           0.00089289     0.01927847     0.02629588
     65      2      H          -0.02614088     0.02058578    -0.07317067
     66      2      H           0.06266890    -0.06689487    -0.01850898
     67      1      O           0.01753120    -0.01057011    -0.02441453
     68      2      H          -0.02911145     0.07012971     0.04165123
     69      2      H          -0.01767967    -0.00967214     0.03439571
     70      1      O          -0.02443003    -0.09173072    -0.14820549
     71      2      H           0.10740091    -0.01220156     0.02561808
     72      2      H          -0.07995748     0.04251605     0.09856991
     73      1      O           0.01745502     0.00321063    -0.06918816
     74      2      H          -0.00127628     0.03492382     0.02223692
     75      2      H          -0.04509880    -0.00355956    -0.00644218
     76      1      O          -0.01291928     0.06809422    -0.01729078
     77      2      H          -0.00622229    -0.01931764    -0.03511288
     78      2      H          -0.00456610     0.04138046     0.05544604
     79      1      O           0.02111496    -0.01536619    -0.01175544
     80      2      H          -0.00939858     0.00566164     0.05208208
     81      2      H           0.02476496     0.00770258     0.05195550
     82      1      O          -0.01469281    -0.00737415     0.03921789
     83      2      H          -0.01013670    -0.04556807     0.00136072
     84      2      H           0.03482356    -0.00402435     0.01856818
     85      1      O          -0.04166515    -0.12340117    -0.13819633
     86      2      H           0.06088944     0.04173092    -0.00909818
     87      2      H          -0.03279169     0.03194020     0.07526921
     88      1      O           0.02206188    -0.05068111     0.03740922
     89      2      H          -0.04809484     0.03794766    -0.03603972
     90      2      H          -0.01921309    -0.01082130     0.03967036
     91      1      O           0.03303995    -0.00359705    -0.01406380
     92      2      H          -0.00399760    -0.04890434     0.00783180
     93      2      H           0.02508747     0.08863007     0.02843989
     94      1      O           0.00777215    -0.02445167     0.04250307
     95      2      H           0.02438752    -0.05396700     0.00568260
     96      2      H          -0.02671958     0.01155160     0.09113960
     97      1      O          -0.13670311    -0.16371044    -0.05379024
     98      2      H           0.14088186    -0.00267031    -0.02708700
     99      2      H          -0.03674059     0.18925609     0.02419132
    100      1      O          -0.03998580    -0.10173422     0.11982745
    101      2      H          -0.01080872    -0.01024203     0.01175117
    102      2      H           0.02920733     0.04471344     0.01180264
    103      1      O          -0.06070209     0.03295617     0.03338754
    104      2      H           0.01792627     0.06135402     0.04788853
    105      2      H           0.05130473    -0.04482960     0.03681897
    106      1      O           0.02366987    -0.04921777    -0.14464129
    107      2      H           0.04137515     0.06394352     0.08519435
    108      2      H          -0.07802186    -0.01165736     0.01063509
    109      1      O          -0.07374548     0.00869664     0.01703684
    110      2      H           0.03911633     0.01535529     0.01787688
    111      2      H           0.04196638     0.03145051     0.00873161
    112      1      O           0.06580157     0.09435934    -0.12789616
    113      2      H          -0.02869597    -0.08247719     0.03929168
    114      2      H          -0.02318044     0.00733778     0.00544623
    115      1      O           0.03886955    -0.11787323    -0.16919280
    116      2      H          -0.08955749    -0.05215523     0.10483019
    117      2      H           0.02276995     0.10043881    -0.00186903
    118      1      O           0.01416507     0.04616877    -0.11508242
    119      2      H          -0.01324212     0.03055118     0.01522320
    120      2      H          -0.02882434    -0.01929447     0.05090765
    121      1      O           0.08598968    -0.09688417    -0.14050742
    122      2      H           0.03209209     0.07111805     0.10092356
    123      2      H          -0.11302326    -0.05795196     0.01123746
    124      1      O           0.06302320     0.03379870    -0.09638433
    125      2      H          -0.03588789     0.07560374    -0.01153690
    126      2      H          -0.05919517    -0.04591127     0.01488049
    127      1      O           0.01183562     0.01179625    -0.09603994
    128      2      H          -0.05648217    -0.05117070    -0.03284230
    129      2      H           0.03023921    -0.06381917    -0.04135685
    130      1      O           0.04596652     0.06404279    -0.06744061
    131      2      H          -0.10113298    -0.03458673     0.03884951
    132      2      H           0.06103111     0.01093606     0.08522922
    133      1      O          -0.02938627     0.09591595    -0.14424172
    134      2      H           0.04622265    -0.00774325     0.03186536
    135      2      H          -0.00654344    -0.07041587     0.05715817
    136      1      O          -0.03917400    -0.05931091     0.09882178
    137      2      H          -0.02122525    -0.07808435    -0.09555396
    138      2      H           0.06219031     0.04103156     0.03519536
    139      1      O          -0.04029208    -0.06053689     0.04387148
    140      2      H          -0.00182828     0.01973786     0.05327811
    141      2      H           0.05363985    -0.00887769    -0.00066369
    142      1      O           0.01691312     0.08982371     0.08159353
    143      2      H          -0.00710272    -0.04418164    -0.05311756
    144      2      H          -0.00058395     0.00059213     0.02436011
    145      1      O          -0.01987014    -0.04478328     0.01549900
    146      2      H           0.05035165     0.01895734     0.08746992
    147      2      H          -0.00428635     0.02457377    -0.06022530
    148      1      O          -0.00636888    -0.09984955    -0.12975716
    149      2      H          -0.03868470     0.02715757     0.06139011
    150      2      H           0.04377213    -0.03097158     0.04979038
    151      1      O          -0.03511938     0.07680986    -0.06923883
    152      2      H          -0.00501673     0.01846408     0.01874810
    153      2      H          -0.00555115    -0.02643901    -0.02706028
    154      1      O           0.12814143    -0.03696844     0.17013126
    155      2      H          -0.10326995    -0.02986702    -0.08937224
    156      2      H          -0.03359486     0.06334520    -0.02414430
    157      1      O           0.04162890     0.00641292     0.13187832
    158      2      H          -0.02111759     0.00376974    -0.01770558
    159      2      H           0.01006199     0.01826027    -0.03125054
    160      1      O           0.02682818     0.08726427    -0.00281935
    161      2      H          -0.01762809    -0.03743958    -0.07202086
    162      2      H          -0.03772474     0.01776549     0.05207579
    163      1      O          -0.08470078     0.04420168     0.04511231
    164      2      H           0.06970612    -0.01620179     0.06522207
    165      2      H           0.03645916     0.04094586    -0.03822901
    166      1      O           0.00665620    -0.07163175    -0.11906484
    167      2      H          -0.00316422     0.01058852     0.03925593
    168      2      H           0.03525871     0.03355506    -0.02922709
    169      1      O          -0.03272788    -0.01661577    -0.04294926
    170      2      H           0.05066307    -0.05269393    -0.01442838
    171      2      H          -0.00635867     0.02894287     0.00342978
    172      1      O           0.06766084    -0.01395502    -0.00574651
    173      2      H          -0.01047047     0.12627801     0.02049712
    174      2      H          -0.04567518    -0.10743406     0.06039567
    175      1      O           0.02603378     0.08024880     0.11673052
    176      2      H           0.00870048    -0.00491260     0.03517752
    177      2      H          -0.04777439     0.00768985    -0.04367661
    178      1      O          -0.19543832    -0.05086077     0.24954052
    179      2      H           0.00863050    -0.00516793    -0.02365790
    180      2      H           0.18089675     0.03288979    -0.22287458
    181      1      O          -0.02046384     0.05238750     0.03806314
    182      2      H          -0.01142094     0.02957069    -0.06909526
    183      2      H          -0.01119658    -0.03647759    -0.03227699
    184      1      O          -0.00867924    -0.05877603     0.07588929
    185      2      H          -0.01321905     0.02310437    -0.00836166
    186      2      H           0.00246708    -0.00381120     0.03764810
    187      1      O          -0.01835920    -0.06229175    -0.06814890
    188      2      H           0.06046578     0.00488134    -0.00951463
    189      2      H          -0.06062807     0.04480844     0.07604772
    190      1      O           0.03649002    -0.07455486     0.09514796
    191      2      H           0.01520975    -0.00314631     0.00944782
    192      2      H          -0.00797780     0.01628876     0.04644312
 SUM OF ATOMIC FORCES          -0.09758845     0.23066087     0.91564798     0.94928350

 -------------------------------------------------------------------------------
 -                                                                             -
 -                                DBCSR STATISTICS                             -
 -                                                                             -
 -------------------------------------------------------------------------------
 COUNTER                                    TOTAL       BLAS       SMM       ACC
 flops     5 x     5 x   256           2157568000       0.0%    100.0%      0.0%
 flops     5 x    13 x   256           2243870720       0.0%    100.0%      0.0%
 flops    13 x     5 x   256           2594475520       0.0%    100.0%      0.0%
 flops    13 x    13 x   256           3724424704       0.0%    100.0%      0.0%
 flops inhomo. stacks                           0       0.0%      0.0%      0.0%
 flops total                        10.720339E+09       0.0%    100.0%      0.0%
 flops max/rank                     10.720339E+09       0.0%    100.0%      0.0%
 matmuls inhomo. stacks                         0       0.0%      0.0%      0.0%
 matmuls total                             356986       0.0%    100.0%      0.0%
 number of processed stacks                 42140       0.0%    100.0%      0.0%
 average stack size                                     0.0       8.5       0.0
 marketing flops                   333.927416E+09
 -------------------------------------------------------------------------------
 # multiplications                            301
 max memory usage/rank              30.559105E+09
 # max total images/rank                        1
 # max 3D layers                                1
 # MPI messages exchanged                       0
 MPI messages size (bytes):
  total size                         0.000000E+00
  min size                           0.000000E+00
  max size                           0.000000E+00
  average size                       0.000000E+00
 MPI breakdown and total messages size (bytes):
             size <=      128                   0                        0
       128 < size <=     8192                   0                        0
      8192 < size <=    32768                   0                        0
     32768 < size <=   131072                   0                        0
    131072 < size <=  4194304                   0                        0
   4194304 < size <= 16777216                   0                        0
  16777216 < size                               0                        0
 -------------------------------------------------------------------------------

 MEMORY| Estimated peak process memory [MiB]                               29141

 -------------------------------------------------------------------------------
 -                                                                             -
 -                           R E F E R E N C E S                               -
 -                                                                             -
 -------------------------------------------------------------------------------
 
 CP2K version 7.1, the CP2K developers group (2019).
 CP2K is freely available from https://www.cp2k.org/ .

 Schuett, Ole; Messmer, Peter; Hutter, Juerg; VandeVondele, Joost. 
 Electronic Structure Calculations on Graphics Processing Units, John
 Wiley & Sons, Ltd, 173-190 (2016). 
 GPU-Accelerated Sparse Matrix-Matrix Multiplication for
 Linear Scaling Density Functional Theory.
 https://dx.doi.org/10.1002/9781118670712.ch8

 Borstnik, U; VandeVondele, J; Weber, V; Hutter, J. 
 PARALLEL COMPUTING, 40 (5-6), 47-58 (2014). 
 Sparse matrix multiplication: The distributed block-compressed sparse
 row library.
 https://dx.doi.org/10.1016/j.parco.2014.03.012

 Hutter, J; Iannuzzi, M; Schiffmann, F; VandeVondele, J. 
 WIREs Comput Mol Sci., 4 (1), 15-25 (2014). 
 CP2K: atomistic simulations of condensed matter systems.
 https://dx.doi.org/10.1002/wcms.1159

 Krack, M. 
 THEORETICAL CHEMISTRY ACCOUNTS, 114 (1-3), 145-152 (2005). 
 Pseudopotentials for H to Kr optimized for gradient-corrected
 exchange-correlation functionals.
 https://dx.doi.org/10.1007/s00214-005-0655-y

 VandeVondele, J; Krack, M; Mohamed, F; Parrinello, M; Chassaing, T;
 Hutter, J. COMPUTER PHYSICS COMMUNICATIONS, 167 (2), 103-128 (2005). 
 QUICKSTEP: Fast and accurate density functional calculations using a
 mixed Gaussian and plane waves approach.
 https://dx.doi.org/10.1016/j.cpc.2004.12.014

 Frigo, M; Johnson, SG. 
 PROCEEDINGS OF THE IEEE, 93 (2), 216-231 (2005). 
 The design and implementation of FFTW3.
 https://dx.doi.org/10.1109/JPROC.2004.840301

 Hartwigsen, C; Goedecker, S; Hutter, J. 
 PHYSICAL REVIEW B, 58 (7), 3641-3662 (1998). 
 Relativistic separable dual-space Gaussian pseudopotentials from H to Rn.
 https://dx.doi.org/10.1103/PhysRevB.58.3641

 Lippert, G; Hutter, J; Parrinello, M. 
 MOLECULAR PHYSICS, 92 (3), 477-487 (1997). 
 A hybrid Gaussian and plane wave density functional scheme.
 https://dx.doi.org/10.1080/002689797170220

 Goedecker, S; Teter, M; Hutter, J. 
 PHYSICAL REVIEW B, 54 (3), 1703-1710 (1996). 
 Separable dual-space Gaussian pseudopotentials.
 https://dx.doi.org/10.1103/PhysRevB.54.1703


 -------------------------------------------------------------------------------
 -                                                                             -
 -                                T I M I N G                                  -
 -                                                                             -
 -------------------------------------------------------------------------------
 SUBROUTINE                       CALLS  ASD         SELF TIME        TOTAL TIME
                                MAXIMUM       AVERAGE  MAXIMUM  AVERAGE  MAXIMUM
 CP2K                                 1  1.0    1.057    1.057 6962.897 6962.897
 qs_forces                            1  2.0    0.000    0.000 6951.632 6951.632
 qs_energies                          1  3.0    0.000    0.000 6948.343 6948.343
 scf_env_do_scf                       1  4.0    0.001    0.001 6936.635 6936.635
 scf_env_do_scf_inner_loop          300  5.0    0.044    0.044 6936.634 6936.634
 gspace_mixing                      299  6.0   42.229   42.229 2962.100 2962.100
 broyden_mixing                     299  7.0 2678.076 2678.076 2678.079 2678.079
 qs_scf_new_mos                     300  6.0    0.009    0.009 1812.750 1812.750
 eigensolver                        300  7.0    0.032    0.032 1775.774 1775.774
 cp_fm_syevd                        300  8.0 1219.801 1219.801 1220.966 1220.966
 pw_transfer                       3912  9.9    0.378    0.378 1138.064 1138.064
 rebuild_ks_matrix                  301  7.0    0.001    0.001 1111.238 1111.238
 qs_ks_build_kohn_sham_matrix       301  8.0    0.086    0.086 1111.237 1111.237
 fft_wrap_pw1pw2                   3310 10.9    0.050    0.050 1110.036 1110.036
 qs_ks_update_qs_env                300  6.0    0.003    0.003 1108.156 1108.156
 qs_rho_update_rho                  301  6.0    0.003    0.003 1055.453 1055.453
 calculate_rho_elec                 301  7.0  529.323  529.323 1055.451 1055.451
 fft_wrap_pw1pw2_70                1504 11.2   87.855   87.855 1016.116 1016.116
 cp_fm_cholesky_restore             900  8.0  553.644  553.644  553.644  553.644
 fft3d_s                           3311 12.9  524.465  524.465  524.544  524.544
 density_rs2pw                      301  8.0    0.032    0.032  517.773  517.773
 pw_scatter_s                      1804 13.2  409.675  409.675  409.675  409.675
 pw_poisson_solve                   301  9.0  333.423  333.423  361.426  361.426
 sum_up_and_integrate               301  9.0   18.115   18.115  297.779  297.779
 integrate_v_rspace                 301 10.0    7.564    7.564  279.663  279.663
 potential_pw2rs                    301 11.0    2.540    2.540  265.153  265.153
 qs_vxc_create                      301  9.0    0.007    0.007  163.569  163.569
 xc_vxc_pw_create                   301 10.0   42.319   42.319  163.562  163.562
 -------------------------------------------------------------------------------

 The number of warnings for this run is : 1
 
 -------------------------------------------------------------------------------
  **** **** ******  **  PROGRAM ENDED AT                 2020-05-27 04:00:03.158
 ***** ** ***  *** **   PROGRAM RAN ON                                   gnode44
 **    ****   ******    PROGRAM RAN BY                               mayank.modi
 ***** **    ** ** **   PROGRAM PROCESS ID                                 28915
  **** **  *******  **  PROGRAM STOPPED IN /home/mayank.modi/ab-initio-thermodyn
                                           amics-of-water/mayank/cp2k_energy_cal
                                           culations
