 DBCSR| CPU Multiplication driver                                           XSMM
 DBCSR| Multrec recursion limit                                              512
 DBCSR| Multiplication stack size                                           1000
 DBCSR| Maximum elements for images                                    UNLIMITED
 DBCSR| Multiplicative factor virtual images                                   1
 DBCSR| Use multiplication densification                                       T
 DBCSR| Multiplication size stacks                                             3


  **** **** ******  **  PROGRAM STARTED AT               2020-05-28 15:19:12.143
 ***** ** ***  *** **   PROGRAM STARTED ON                               gnode44
 **    ****   ******    PROGRAM STARTED BY                           mayank.modi
 ***** **    ** ** **   PROGRAM PROCESS ID                                 16877
  **** **  *******  **  PROGRAM STARTED IN /home/mayank.modi/ab-initio-thermodyn
                                           amics-of-water/mayank/cp2k_energy_cal
                                           culations

 CP2K| version string:                                          CP2K version 7.1
 CP2K| source code revision number:                                  git:e635599
 CP2K| cp2kflags: omp libint fftw3 libxc xsmm spglib                            
 CP2K| is freely available from                            https://www.cp2k.org/
 CP2K| Program compiled at                          Mon Dec 23 19:23:12 CET 2019
 CP2K| Program compiled on                                                pc9404
 CP2K| Program compiled for                                Linux-x86-64-gfortran
 CP2K| Data directory path                                        /opt/cp2k/data
 CP2K| Input file name                                 input_training/input24.in

 GLOBAL| Force Environment number                                              1
 GLOBAL| Basis set file name                                           BASIS_SET
 GLOBAL| Potential file name                                      GTH_POTENTIALS
 GLOBAL| MM Potential file name                                     MM_POTENTIAL
 GLOBAL| Coordinate file name                                      __STD_INPUT__
 GLOBAL| Method name                                                        CP2K
 GLOBAL| Project name                                                   H2O_bulk
 GLOBAL| Preferred FFT library                                             FFTW3
 GLOBAL| Preferred diagonalization lib.                                       SL
 GLOBAL| Run type                                                   ENERGY_FORCE
 GLOBAL| All-to-all communication in single precision                          F
 GLOBAL| FFTs using library dependent lengths                                  F
 GLOBAL| Global print level                                                  LOW
 GLOBAL| MPI I/O enabled                                                       T
 GLOBAL| Total number of message passing processes                             1
 GLOBAL| Number of threads for this process                                   36
 GLOBAL| This output is from process                                           0
 GLOBAL| CPU model name                Intel(R) Xeon(R) CPU E5-2640 v4 @ 2.40GHz
 GLOBAL| CPUID                                                              1002
 GLOBAL| Compiled for CPUID                                                    0

 MEMORY| system memory details [Kb]
 MEMORY|                        rank 0           min           max       average
 MEMORY| MemTotal            131893056     131893056     131893056     131893056
 MEMORY| MemFree             121131236     121131236     121131236     121131236
 MEMORY| Buffers               2117504       2117504       2117504       2117504
 MEMORY| Cached                3079988       3079988       3079988       3079988
 MEMORY| Slab                  3301572       3301572       3301572       3301572
 MEMORY| SReclaimable          3100768       3100768       3100768       3100768
 MEMORY| MemLikelyFree       129429496     129429496     129429496     129429496


 GENERATE|  Preliminary Number of Bonds generated:                             0
 GENERATE|  Achieved consistency in connectivity generation.

 *******************************************************************************
 *******************************************************************************
 **                                                                           **
 **     #####                         ##              ##                      **
 **    ##   ##            ##          ##              ##                      **
 **   ##     ##                       ##            ######                    **
 **   ##     ##  ##   ##  ##   #####  ##  ##   ####   ##    #####    #####    **
 **   ##     ##  ##   ##  ##  ##      ## ##   ##      ##   ##   ##  ##   ##   **
 **   ##  ## ##  ##   ##  ##  ##      ####     ###    ##   ######   ######    **
 **    ##  ###   ##   ##  ##  ##      ## ##      ##   ##   ##       ##        **
 **     #######   #####   ##   #####  ##  ##  ####    ##    #####   ##        **
 **           ##                                                    ##        **
 **                                                                           **
 **                                                ... make the atoms dance   **
 **                                                                           **
 **            Copyright (C) by CP2K developers group (2000 - 2019)           **
 **                                                                           **
 *******************************************************************************


 TOTAL NUMBERS AND MAXIMUM NUMBERS

  Total number of            - Atomic kinds:                                   2
                             - Atoms:                                        192
                             - Shell sets:                                   384
                             - Shells:                                       704
                             - Primitive Cartesian functions:                960
                             - Cartesian basis functions:                   1536
                             - Spherical basis functions:                   1472

  Maximum angular momentum of- Orbital basis functions:                        2
                             - Local part of the GTH pseudopotential:          2
                             - Non-local part of the GTH pseudopotential:      0


 SCF PARAMETERS         Density guess:                                    ATOMIC
                        --------------------------------------------------------
                        max_scf:                                             300
                        max_scf_history:                                       0
                        max_diis:                                              4
                        --------------------------------------------------------
                        eps_scf:                                        1.00E-07
                        eps_scf_history:                                0.00E+00
                        eps_diis:                                       1.00E-01
                        eps_eigval:                                     1.00E-05
                        --------------------------------------------------------
                        level_shift [a.u.]:                                 0.00
                        --------------------------------------------------------
                        Mixing method:                            BROYDEN_MIXING
                                                charge density mixing in g-space
                        --------------------------------------------------------
                        No outer SCF

 Number of electrons:                                                        512
 Number of occupied orbitals:                                                256
 Number of molecular orbitals:                                               256

 Number of orbital functions:                                               1472
 Number of independent orbital functions:                                   1472

 Extrapolation method: initial_guess


 SCF WAVEFUNCTION OPTIMIZATION

  Step     Update method      Time    Convergence         Total energy    Change
  ------------------------------------------------------------------------------
     1 NoMix/Diag. 0.40E+00   10.3     0.58768539     -1064.3137447765 -1.06E+03
     2 Broy./Diag. 0.40E+00   15.3     1.21657555      -997.8505640372  6.65E+01
     3 Broy./Diag. 0.40E+00   17.3     0.63047587     -1256.9025003953 -2.59E+02
     4 Broy./Diag. 0.40E+00   17.6     0.14825126     -1099.6377483966  1.57E+02
     5 Broy./Diag. 0.40E+00   18.4     1.27925389     -1103.0011167557 -3.36E+00
     6 Broy./Diag. 0.40E+00   19.2     1.38676003     -1076.4663314066  2.65E+01
     7 Broy./Diag. 0.40E+00   19.6     0.18157798     -1073.5192078237  2.95E+00
     8 Broy./Diag. 0.40E+00   20.2     0.05904749     -1075.6175391189 -2.10E+00
     9 Broy./Diag. 0.40E+00   22.5     0.04103374     -1077.4653578945 -1.85E+00
    10 Broy./Diag. 0.40E+00   24.1     0.03293367     -1076.2326436146  1.23E+00
    11 Broy./Diag. 0.40E+00   24.0     0.01011735     -1076.1578834803  7.48E-02
    12 Broy./Diag. 0.40E+00   24.1     0.01321153     -1076.4872615542 -3.29E-01
    13 Broy./Diag. 0.40E+00   23.7     0.00965775     -1076.4197200581  6.75E-02
    14 Broy./Diag. 0.40E+00   23.5     0.00547982     -1076.3216418812  9.81E-02
    15 Broy./Diag. 0.40E+00   23.3     0.00321816     -1076.3761736150 -5.45E-02
    16 Broy./Diag. 0.40E+00   23.8     1.17209754     -1076.4040035806 -2.78E-02
    17 Broy./Diag. 0.40E+00   23.4     1.47155682     -1077.9108795750 -1.51E+00
    18 Broy./Diag. 0.40E+00   23.9     1.49197736     -1077.8590368885  5.18E-02
    19 Broy./Diag. 0.40E+00   22.8     0.06897147     -1076.3048696192  1.55E+00
    20 Broy./Diag. 0.40E+00   22.8     0.03288329     -1076.3394703417 -3.46E-02
    21 Broy./Diag. 0.40E+00   23.8     0.00528711     -1076.4441657703 -1.05E-01
    22 Broy./Diag. 0.40E+00   24.8     1.17114833     -1076.3936420114  5.05E-02
    23 Broy./Diag. 0.40E+00   24.3     1.17969939     -1077.8907495170 -1.50E+00
    24 Broy./Diag. 0.40E+00   24.5     0.03259938     -1076.3718745749  1.52E+00
    25 Broy./Diag. 0.40E+00   23.5     0.02210270     -1076.5039677713 -1.32E-01
    26 Broy./Diag. 0.40E+00   23.8     0.91254615     -1076.3997990784  1.04E-01
    27 Broy./Diag. 0.40E+00   24.2     0.92519668     -1077.9034292450 -1.50E+00
    28 Broy./Diag. 0.40E+00   24.0     0.91758413     -1077.9111980472 -7.77E-03
    29 Broy./Diag. 0.40E+00   23.8     0.05492684     -1076.4035002957  1.51E+00
    30 Broy./Diag. 0.40E+00   23.8     0.02748309     -1076.3645954114  3.89E-02
    31 Broy./Diag. 0.40E+00   23.7     0.00658614     -1076.4810566720 -1.16E-01
    32 Broy./Diag. 0.40E+00   23.7     1.17776199     -1076.3949797335  8.61E-02
    33 Broy./Diag. 0.40E+00   22.4     1.18824816     -1077.9779376630 -1.58E+00
    34 Broy./Diag. 0.40E+00   21.9     0.02585062     -1076.4053734978  1.57E+00
    35 Broy./Diag. 0.40E+00   21.5     1.47053170     -1076.4735871013 -6.82E-02
    36 Broy./Diag. 0.40E+00   23.6     1.48161946     -1077.9289485767 -1.46E+00
    37 Broy./Diag. 0.40E+00   23.8     0.01871533     -1076.4101161945  1.52E+00
    38 Broy./Diag. 0.40E+00   24.9     0.00841156     -1076.2389198515  1.71E-01
    39 Broy./Diag. 0.40E+00   24.4     0.00734457     -1076.4469597068 -2.08E-01
    40 Broy./Diag. 0.40E+00   24.0     0.00540961     -1076.3705695211  7.64E-02
    41 Broy./Diag. 0.40E+00   24.2     0.00176480     -1076.3943071497 -2.37E-02
    42 Broy./Diag. 0.40E+00   23.8     0.99903227     -1076.4184457923 -2.41E-02
    43 Broy./Diag. 0.40E+00   22.8     1.16455892     -1077.9347378460 -1.52E+00
    44 Broy./Diag. 0.40E+00   22.7     1.19896857     -1077.9481832170 -1.34E-02
    45 Broy./Diag. 0.40E+00   24.2     1.47320308     -1076.3148647840  1.63E+00
    46 Broy./Diag. 0.40E+00   24.9     1.48103203     -1077.9870856545 -1.67E+00
    47 Broy./Diag. 0.40E+00   24.0     0.04630206     -1076.3848683960  1.60E+00
    48 Broy./Diag. 0.40E+00   23.5     0.01891315     -1076.3303504110  5.45E-02
    49 Broy./Diag. 0.40E+00   24.0     0.00318813     -1076.4022023343 -7.19E-02
    50 Broy./Diag. 0.40E+00   23.5     0.00176286     -1076.3712153268  3.10E-02
    51 Broy./Diag. 0.40E+00   24.1     0.00083227     -1076.3855265012 -1.43E-02
    52 Broy./Diag. 0.40E+00   23.8     0.00183380     -1076.3804721325  5.05E-03
    53 Broy./Diag. 0.40E+00   24.2     0.80004309     -1076.3904075234 -9.94E-03
    54 Broy./Diag. 0.40E+00   24.0     0.81915054     -1077.9322729086 -1.54E+00
    55 Broy./Diag. 0.40E+00   24.0     1.00888310     -1076.3913231838  1.54E+00
    56 Broy./Diag. 0.40E+00   24.0     1.01438450     -1077.9847871145 -1.59E+00
    57 Broy./Diag. 0.40E+00   24.0     0.02432639     -1076.4490718816  1.54E+00
    58 Broy./Diag. 0.40E+00   24.0     0.01189386     -1076.2841002052  1.65E-01
    59 Broy./Diag. 0.40E+00   21.5     0.00471886     -1076.4308038012 -1.47E-01
    60 Broy./Diag. 0.40E+00   22.0     0.00232334     -1076.3897665758  4.10E-02
    61 Broy./Diag. 0.40E+00   22.3     0.00196548     -1076.3797451984  1.00E-02
    62 Broy./Diag. 0.40E+00   22.8     0.00184302     -1076.3863391968 -6.59E-03
    63 Broy./Diag. 0.40E+00   22.0     1.47208893     -1076.3876989049 -1.36E-03
    64 Broy./Diag. 0.40E+00   22.4     1.48299072     -1077.9530243514 -1.57E+00
    65 Broy./Diag. 0.40E+00   23.3     0.85520897     -1076.3753473206  1.58E+00
    66 Broy./Diag. 0.40E+00   23.6     0.97016768     -1077.8325840653 -1.46E+00
    67 Broy./Diag. 0.40E+00   23.6     1.04516382     -1077.7961193233  3.65E-02
    68 Broy./Diag. 0.40E+00   22.8     1.46539181     -1076.3475161018  1.45E+00
    69 Broy./Diag. 0.40E+00   24.2     1.19421738     -1079.2986403439 -2.95E+00
    70 Broy./Diag. 0.40E+00   23.9     1.47451824     -1077.7763313624  1.52E+00
    71 Broy./Diag. 0.40E+00   23.7     0.05791571     -1076.4642365469  1.31E+00
    72 Broy./Diag. 0.40E+00   23.5     0.03430132     -1076.2179095879  2.46E-01
    73 Broy./Diag. 0.40E+00   24.2     0.00559631     -1076.3385465845 -1.21E-01
    74 Broy./Diag. 0.40E+00   24.0     0.00249950     -1076.3608606490 -2.23E-02
    75 Broy./Diag. 0.40E+00   23.9     0.01902423     -1076.3473714889  1.35E-02
    76 Broy./Diag. 0.40E+00   25.1     0.04535736     -1076.4301938111 -8.28E-02
    77 Broy./Diag. 0.40E+00   21.4     0.02641234     -1076.5258061931 -9.56E-02
    78 Broy./Diag. 0.40E+00   22.4     0.01381719     -1076.4341207149  9.17E-02
    79 Broy./Diag. 0.40E+00   20.6     0.77666886     -1076.4473565107 -1.32E-02
    80 Broy./Diag. 0.40E+00   23.4     0.79558402     -1078.0498267270 -1.60E+00
    81 Broy./Diag. 0.40E+00   23.6     1.17565570     -1076.4396581392  1.61E+00
    82 Broy./Diag. 0.40E+00   24.1     1.18451886     -1077.8596786561 -1.42E+00
    83 Broy./Diag. 0.40E+00   23.8     1.48532048     -1076.3468200354  1.51E+00
    84 Broy./Diag. 0.40E+00   21.9     1.48521205     -1078.0628211455 -1.72E+00
    85 Broy./Diag. 0.40E+00   22.8     0.84313782     -1076.4542175021  1.61E+00
    86 Broy./Diag. 0.40E+00   23.2     0.84457613     -1077.7989579965 -1.34E+00
    87 Broy./Diag. 0.40E+00   23.8     0.03137756     -1076.3082820701  1.49E+00
    88 Broy./Diag. 0.40E+00   23.6     0.02122110     -1076.5314072868 -2.23E-01
    89 Broy./Diag. 0.40E+00   22.3     0.00878276     -1076.4028915787  1.29E-01
    90 Broy./Diag. 0.40E+00   24.9     0.00560898     -1076.4099499231 -7.06E-03
    91 Broy./Diag. 0.40E+00   24.9     1.17490269     -1076.4021949533  7.75E-03
    92 Broy./Diag. 0.40E+00   23.1     1.18311057     -1077.9284351319 -1.53E+00
    93 Broy./Diag. 0.40E+00   24.6     0.02278465     -1076.3884451586  1.54E+00
    94 Broy./Diag. 0.40E+00   23.5     0.01531054     -1076.4301323458 -4.17E-02
    95 Broy./Diag. 0.40E+00   24.2     0.99784731     -1076.4149923526  1.51E-02
    96 Broy./Diag. 0.40E+00   24.7     1.46935073     -1077.9461439398 -1.53E+00
    97 Broy./Diag. 0.40E+00   24.0     1.49986999     -1077.9070285786  3.91E-02
    98 Broy./Diag. 0.40E+00   24.3     0.03779836     -1076.3163774027  1.59E+00
    99 Broy./Diag. 0.40E+00   24.3     0.02977536     -1076.4554904203 -1.39E-01
   100 Broy./Diag. 0.40E+00   24.2     0.01134611     -1076.3571325942  9.84E-02
   101 Broy./Diag. 0.40E+00   22.9     0.01616294     -1076.3729946688 -1.59E-02
   102 Broy./Diag. 0.40E+00   23.9     0.00584878     -1076.4035000404 -3.05E-02
   103 Broy./Diag. 0.40E+00   23.7     0.00749648     -1076.3786109477  2.49E-02
   104 Broy./Diag. 0.40E+00   23.9     0.00329342     -1076.3972933099 -1.87E-02
   105 Broy./Diag. 0.40E+00   23.2     0.01128916     -1076.3953643448  1.93E-03
   106 Broy./Diag. 0.40E+00   24.4     1.16911325     -1076.4208409992 -2.55E-02
   107 Broy./Diag. 0.40E+00   23.1     1.19108287     -1077.9743168816 -1.55E+00
   108 Broy./Diag. 0.40E+00   22.7     0.86922096     -1076.3882005642  1.59E+00
   109 Broy./Diag. 0.40E+00   24.0     0.87934354     -1077.7973670711 -1.41E+00
   110 Broy./Diag. 0.40E+00   23.6     0.01980084     -1076.3120914157  1.49E+00
   111 Broy./Diag. 0.40E+00   22.5     0.01436417     -1076.5182912091 -2.06E-01
   112 Broy./Diag. 0.40E+00   23.9     1.00026468     -1076.3911654945  1.27E-01
   113 Broy./Diag. 0.40E+00   23.7     1.00803387     -1077.8632353275 -1.47E+00
   114 Broy./Diag. 0.40E+00   23.7     0.01384492     -1076.3696576845  1.49E+00
   115 Broy./Diag. 0.40E+00   23.7     0.00643532     -1076.4094806356 -3.98E-02
   116 Broy./Diag. 0.40E+00   23.9     1.47304274     -1076.3971426152  1.23E-02
   117 Broy./Diag. 0.40E+00   24.1     1.48229485     -1077.9653548646 -1.57E+00
   118 Broy./Diag. 0.40E+00   24.3     0.90217978     -1076.4181890938  1.55E+00
   119 Broy./Diag. 0.40E+00   23.7     0.91837830     -1077.8669877902 -1.45E+00
   120 Broy./Diag. 0.40E+00   24.2     1.20591593     -1076.3418873019  1.53E+00
   121 Broy./Diag. 0.40E+00   24.2     1.19825505     -1077.9518804191 -1.61E+00
   122 Broy./Diag. 0.40E+00   24.2     0.03860728     -1076.3632618770  1.59E+00
   123 Broy./Diag. 0.40E+00   24.6     0.02437024     -1076.4628984323 -9.96E-02
   124 Broy./Diag. 0.40E+00   23.1     0.00622258     -1076.3607105751  1.02E-01
   125 Broy./Diag. 0.40E+00   23.9     0.00372843     -1076.3969577012 -3.62E-02
   126 Broy./Diag. 0.40E+00   23.9     0.01571404     -1076.3968977875  5.99E-05
   127 Broy./Diag. 0.40E+00   24.1     0.00849041     -1076.4158480477 -1.90E-02
   128 Broy./Diag. 0.40E+00   24.7     1.47252886     -1076.4047016021  1.11E-02
   129 Broy./Diag. 0.40E+00   22.6     1.49615805     -1077.9548065322 -1.55E+00
   130 Broy./Diag. 0.40E+00   21.9     0.03882722     -1076.3673457817  1.59E+00
   131 Broy./Diag. 0.40E+00   22.5     0.01992658     -1076.3676272846 -2.82E-04
   132 Broy./Diag. 0.40E+00   23.7     0.00713463     -1076.4062737073 -3.86E-02
   133 Broy./Diag. 0.40E+00   23.4     0.00688801     -1076.4153340176 -9.06E-03
   134 Broy./Diag. 0.40E+00   22.4     1.15868112     -1076.3681983191  4.71E-02
   135 Broy./Diag. 0.40E+00   21.9     1.17145201     -1077.9157743552 -1.55E+00
   136 Broy./Diag. 0.40E+00   24.2     0.01114297     -1076.3490402843  1.57E+00
   137 Broy./Diag. 0.40E+00   22.0     0.00641326     -1076.3936899285 -4.46E-02
   138 Broy./Diag. 0.40E+00   22.6     0.89281034     -1076.3700343558  2.37E-02
   139 Broy./Diag. 0.40E+00   20.8     0.90296058     -1077.9401407038 -1.57E+00
   140 Broy./Diag. 0.40E+00   22.3     1.15759095     -1077.9253969323  1.47E-02
   141 Broy./Diag. 0.40E+00   20.2     1.18488999     -1077.9352677371 -9.87E-03
   142 Broy./Diag. 0.40E+00   22.5     0.03264011     -1076.3912725123  1.54E+00
   143 Broy./Diag. 0.40E+00   22.7     0.02141605     -1076.4402798070 -4.90E-02
   144 Broy./Diag. 0.40E+00   22.4     0.00656028     -1076.3845306942  5.57E-02
   145 Broy./Diag. 0.40E+00   23.9     0.00448715     -1076.4191874680 -3.47E-02
   146 Broy./Diag. 0.40E+00   23.6     0.00179631     -1076.4014836930  1.77E-02
   147 Broy./Diag. 0.40E+00   22.6     0.00184459     -1076.4061374732 -4.65E-03
   148 Broy./Diag. 0.40E+00   23.3     1.47161093     -1076.4101623452 -4.02E-03
   149 Broy./Diag. 0.40E+00   23.4     1.48566094     -1077.9220795168 -1.51E+00
   150 Broy./Diag. 0.40E+00   23.4     1.18185217     -1077.8457157377  7.64E-02
   151 Broy./Diag. 0.40E+00   23.5     1.22736102     -1077.8136078211  3.21E-02
   152 Broy./Diag. 0.40E+00   24.0     0.09759437     -1076.1378723981  1.68E+00
   153 Broy./Diag. 0.40E+00   23.7     0.03488421     -1076.5748068729 -4.37E-01
   154 Broy./Diag. 0.40E+00   23.3     0.01440609     -1076.3370570598  2.38E-01
   155 Broy./Diag. 0.40E+00   24.1     0.00888277     -1076.3149342593  2.21E-02
   156 Broy./Diag. 0.40E+00   25.1     0.00520984     -1076.3714395782 -5.65E-02
   157 Broy./Diag. 0.40E+00   22.2     0.00410567     -1076.3584115908  1.30E-02
   158 Broy./Diag. 0.40E+00   21.9     0.00234847     -1076.3778495264 -1.94E-02
   159 Broy./Diag. 0.40E+00   21.1     1.47319895     -1076.3743352160  3.51E-03
   160 Broy./Diag. 0.40E+00   23.2     0.02470947     -1077.9626714572 -1.59E+00
   161 Broy./Diag. 0.40E+00   23.4     0.00790512     -1077.9333555724  2.93E-02
   162 Broy./Diag. 0.40E+00   23.9     0.01297269     -1077.9615393133 -2.82E-02
   163 Broy./Diag. 0.40E+00   25.0     0.03422403     -1077.9585092117  3.03E-03
   164 Broy./Diag. 0.40E+00   22.9     0.01209015     -1077.9350446619  2.35E-02
   165 Broy./Diag. 0.40E+00   24.2     0.02291947     -1077.9003880346  3.47E-02
   166 Broy./Diag. 0.40E+00   23.6     1.49926792     -1077.9936493860 -9.33E-02
   167 Broy./Diag. 0.40E+00   23.3     0.02837442     -1076.3667106746  1.63E+00
   168 Broy./Diag. 0.40E+00   24.0     0.01928170     -1076.4381941065 -7.15E-02
   169 Broy./Diag. 0.40E+00   24.2     0.00443938     -1076.4221034523  1.61E-02
   170 Broy./Diag. 0.40E+00   24.1     0.87265506     -1076.4157777783  6.33E-03
   171 Broy./Diag. 0.40E+00   24.8     1.15843499     -1077.8877283231 -1.47E+00
   172 Broy./Diag. 0.40E+00   22.3     1.20171033     -1077.8605825991  2.71E-02
   173 Broy./Diag. 0.40E+00   23.4     0.05875049     -1076.3041012854  1.56E+00
   174 Broy./Diag. 0.40E+00   22.8     0.02106584     -1076.4888594039 -1.85E-01
   175 Broy./Diag. 0.40E+00   23.9     0.01525340     -1076.3422284091  1.47E-01
   176 Broy./Diag. 0.40E+00   24.3     0.00865238     -1076.4352772027 -9.30E-02
   177 Broy./Diag. 0.40E+00   22.8     0.00564978     -1076.3959534153  3.93E-02
   178 Broy./Diag. 0.40E+00   22.1     1.47261773     -1076.3929821168  2.97E-03
   179 Broy./Diag. 0.40E+00   23.5     1.50117400     -1077.9293686077 -1.54E+00
   180 Broy./Diag. 0.40E+00   24.3     0.03396660     -1076.3393711939  1.59E+00
   181 Broy./Diag. 0.40E+00   24.5     0.02794062     -1076.3371081015  2.26E-03
   182 Broy./Diag. 0.40E+00   24.7     0.01350959     -1076.4185877821 -8.15E-02
   183 Broy./Diag. 0.40E+00   22.1     0.01228052     -1076.4262340983 -7.65E-03
   184 Broy./Diag. 0.40E+00   21.8     0.00640366     -1076.3568265127  6.94E-02
   185 Broy./Diag. 0.40E+00   21.4     0.00329337     -1076.4160813046 -5.93E-02
   186 Broy./Diag. 0.40E+00   21.5     1.16295122     -1076.4152901214  7.91E-04
   187 Broy./Diag. 0.40E+00   21.5     1.18358194     -1077.9336129736 -1.52E+00
   188 Broy./Diag. 0.40E+00   24.1     1.00492912     -1076.3106389427  1.62E+00
   189 Broy./Diag. 0.40E+00   22.2     1.17221416     -1077.8484973810 -1.54E+00
   190 Broy./Diag. 0.40E+00   22.9     1.18053096     -1077.8534914006 -4.99E-03
   191 Broy./Diag. 0.40E+00   23.5     0.88396448     -1076.4940368503  1.36E+00
   192 Broy./Diag. 0.40E+00   23.6     0.90155447     -1077.6907842463 -1.20E+00
   193 Broy./Diag. 0.40E+00   22.6     0.04531352     -1076.2423069068  1.45E+00
   194 Broy./Diag. 0.40E+00   24.0     0.03134348     -1076.6859591169 -4.44E-01
   195 Broy./Diag. 0.40E+00   23.0     0.00570982     -1076.3953766576  2.91E-01
   196 Broy./Diag. 0.40E+00   23.4     0.00243519     -1076.3954303953 -5.37E-05
   197 Broy./Diag. 0.40E+00   24.6     1.47216318     -1076.4100421580 -1.46E-02
   198 Broy./Diag. 0.40E+00   22.9     1.48243085     -1077.9062853404 -1.50E+00
   199 Broy./Diag. 0.40E+00   22.9     1.18199481     -1077.8432126898  6.31E-02
   200 Broy./Diag. 0.40E+00   24.4     1.22127163     -1077.7815379347  6.17E-02
   201 Broy./Diag. 0.40E+00   23.3     0.09365331     -1076.1722853517  1.61E+00
   202 Broy./Diag. 0.40E+00   23.9     0.03602685     -1076.4339284701 -2.62E-01
   203 Broy./Diag. 0.40E+00   23.8     0.00526484     -1076.3755502101  5.84E-02
   204 Broy./Diag. 0.40E+00   23.8     0.00396803     -1076.3637915562  1.18E-02
   205 Broy./Diag. 0.40E+00   22.9     0.00223690     -1076.3707622846 -6.97E-03
   206 Broy./Diag. 0.40E+00   20.9     0.00234664     -1076.3860115446 -1.52E-02
   207 Broy./Diag. 0.40E+00   23.5     0.00226724     -1076.3913300689 -5.32E-03
   208 Broy./Diag. 0.40E+00   23.8     1.47058044     -1076.3822415112  9.09E-03
   209 Broy./Diag. 0.40E+00   22.7     1.48325348     -1077.9343623035 -1.55E+00
   210 Broy./Diag. 0.40E+00   22.8     1.48691603     -1076.4088448340  1.53E+00
   211 Broy./Diag. 0.40E+00   20.9     1.47942086     -1078.0466878074 -1.64E+00
   212 Broy./Diag. 0.40E+00   22.3     0.89236920     -1076.4154971443  1.63E+00
   213 Broy./Diag. 0.40E+00   23.7     1.17224060     -1078.0530603767 -1.64E+00
   214 Broy./Diag. 0.40E+00   23.4     1.22781000     -1077.9735968603  7.95E-02
   215 Broy./Diag. 0.40E+00   21.9     0.07482457     -1076.1056323722  1.87E+00
   216 Broy./Diag. 0.40E+00   21.8     0.04216686     -1076.5953098019 -4.90E-01
   217 Broy./Diag. 0.40E+00   24.1     0.00968719     -1076.3033168313  2.92E-01
   218 Broy./Diag. 0.40E+00   24.2     0.00540734     -1076.2977164250  5.60E-03
   219 Broy./Diag. 0.40E+00   23.0     0.00546019     -1076.3446165313 -4.69E-02
   220 Broy./Diag. 0.40E+00   24.0     0.02300750     -1076.3279347047  1.67E-02
   221 Broy./Diag. 0.40E+00   23.6     0.01019864     -1076.4096911240 -8.18E-02
   222 Broy./Diag. 0.40E+00   24.0     0.01036145     -1076.3827142153  2.70E-02
   223 Broy./Diag. 0.40E+00   24.0     0.03610764     -1076.4178516284 -3.51E-02
   224 Broy./Diag. 0.40E+00   23.9     1.47356095     -1076.4732228407 -5.54E-02
   225 Broy./Diag. 0.40E+00   24.6     1.48378835     -1077.9647540521 -1.49E+00
   226 Broy./Diag. 0.40E+00   22.0     0.01690572     -1076.3909543522  1.57E+00
   227 Broy./Diag. 0.40E+00   23.0     0.00775058     -1076.4444476516 -5.35E-02
   228 Broy./Diag. 0.40E+00   21.1     1.00333290     -1076.4474253550 -2.98E-03
   229 Broy./Diag. 0.40E+00   22.0     1.47535872     -1077.9160843949 -1.47E+00
   230 Broy./Diag. 0.40E+00   21.5     1.47846129     -1077.9105982279  5.49E-03
   231 Broy./Diag. 0.40E+00   23.6     0.02540885     -1076.5010324618  1.41E+00
   232 Broy./Diag. 0.40E+00   23.3     1.17650565     -1076.2032494663  2.98E-01
   233 Broy./Diag. 0.40E+00   23.4     1.18422374     -1077.9086600570 -1.71E+00
   234 Broy./Diag. 0.40E+00   22.5     0.02347029     -1076.3897459931  1.52E+00
   235 Broy./Diag. 0.40E+00   21.3     0.01028603     -1076.4336911948 -4.39E-02
   236 Broy./Diag. 0.40E+00   23.4     0.00518679     -1076.3584652468  7.52E-02
   237 Broy./Diag. 0.40E+00   25.1     0.00133358     -1076.4015253340 -4.31E-02
   238 Broy./Diag. 0.40E+00   24.0     0.01380592     -1076.4030710398 -1.55E-03
   239 Broy./Diag. 0.40E+00   23.9     0.88152463     -1076.4261764412 -2.31E-02
   240 Broy./Diag. 0.40E+00   22.9     0.89955439     -1077.9283743666 -1.50E+00
   241 Broy./Diag. 0.40E+00   22.7     0.02278477     -1076.4018832228  1.53E+00
   242 Broy./Diag. 0.40E+00   23.5     1.47248930     -1076.5477783500 -1.46E-01
   243 Broy./Diag. 0.40E+00   24.2     1.48356839     -1077.9695608496 -1.42E+00
   244 Broy./Diag. 0.40E+00   23.8     0.02739442     -1076.4079604677  1.56E+00
   245 Broy./Diag. 0.40E+00   24.8     0.02369817     -1076.3193316671  8.86E-02
   246 Broy./Diag. 0.40E+00   23.8     0.99812399     -1076.4907946087 -1.71E-01
   247 Broy./Diag. 0.40E+00   23.9     1.01189970     -1077.8799203248 -1.39E+00
   248 Broy./Diag. 0.40E+00   24.1     0.02680493     -1076.3807591611  1.50E+00
   249 Broy./Diag. 0.40E+00   22.9     1.17394474     -1076.4552796292 -7.45E-02
   250 Broy./Diag. 0.40E+00   24.8     1.18364546     -1077.9460400299 -1.49E+00
   251 Broy./Diag. 0.40E+00   23.9     0.02433508     -1076.4299459335  1.52E+00
   252 Broy./Diag. 0.40E+00   24.9     1.47893295     -1076.2778094756  1.52E-01
   253 Broy./Diag. 0.40E+00   21.4     1.48771999     -1077.9367957989 -1.66E+00
   254 Broy./Diag. 0.40E+00   22.3     0.03042993     -1076.3661459851  1.57E+00
   255 Broy./Diag. 0.40E+00   22.6     0.01445220     -1076.4739779557 -1.08E-01
   256 Broy./Diag. 0.40E+00   21.6     0.00984709     -1076.3851651527  8.88E-02
   257 Broy./Diag. 0.40E+00   22.4     0.00445802     -1076.4240465250 -3.89E-02
   258 Broy./Diag. 0.40E+00   22.4     0.63312848     -1076.4165131371  7.53E-03
   259 Broy./Diag. 0.40E+00   24.0     0.64913568     -1077.8810024020 -1.46E+00
   260 Broy./Diag. 0.40E+00   22.6     0.01618171     -1076.3888888351  1.49E+00
   261 Broy./Diag. 0.40E+00   23.7     0.01108826     -1076.4324053998 -4.35E-02
   262 Broy./Diag. 0.40E+00   22.7     1.17021234     -1076.4118904492  2.05E-02
   263 Broy./Diag. 0.40E+00   22.3     1.18507187     -1077.9339885912 -1.52E+00
   264 Broy./Diag. 0.40E+00   22.5     0.03797624     -1076.3735670124  1.56E+00
   265 Broy./Diag. 0.40E+00   22.7     0.02854955     -1076.4348620305 -6.13E-02
   266 Broy./Diag. 0.40E+00   23.4     1.47093045     -1076.4353357267 -4.74E-04
   267 Broy./Diag. 0.40E+00   22.8     1.48316390     -1077.8846413510 -1.45E+00
   268 Broy./Diag. 0.40E+00   21.0     0.01873653     -1076.3909968005  1.49E+00
   269 Broy./Diag. 0.40E+00   22.0     1.00346744     -1076.4458920880 -5.49E-02
   270 Broy./Diag. 0.40E+00   21.8     1.01441671     -1077.8977825439 -1.45E+00
   271 Broy./Diag. 0.40E+00   23.5     0.02660646     -1076.3795540685  1.52E+00
   272 Broy./Diag. 0.40E+00   22.8     1.17913498     -1076.4380097216 -5.85E-02
   273 Broy./Diag. 0.40E+00   21.5     1.18949785     -1077.9164405982 -1.48E+00
   274 Broy./Diag. 0.40E+00   21.6     0.02782014     -1076.3721269161  1.54E+00
   275 Broy./Diag. 0.40E+00   22.6     0.01394765     -1076.4156701862 -4.35E-02
   276 Broy./Diag. 0.40E+00   24.7     0.02146864     -1076.4027156152  1.30E-02
   277 Broy./Diag. 0.40E+00   24.8     0.00986086     -1076.4325341708 -2.98E-02
   278 Broy./Diag. 0.40E+00   23.7     1.47175688     -1076.4044324280  2.81E-02
   279 Broy./Diag. 0.40E+00   22.4     1.49193893     -1077.9299157072 -1.53E+00
   280 Broy./Diag. 0.40E+00   23.6     0.01843232     -1076.3128708595  1.62E+00
   281 Broy./Diag. 0.40E+00   24.5     0.00821810     -1076.3692959400 -5.64E-02
   282 Broy./Diag. 0.40E+00   24.5     0.01804196     -1076.3857574512 -1.65E-02
   283 Broy./Diag. 0.40E+00   21.7     0.00752178     -1076.4028800215 -1.71E-02
   284 Broy./Diag. 0.40E+00   22.8     0.00960705     -1076.4009000783  1.98E-03
   285 Broy./Diag. 0.40E+00   24.0     0.00416641     -1076.3882928314  1.26E-02
   286 Broy./Diag. 0.40E+00   22.6     1.16853919     -1076.3940928883 -5.80E-03
   287 Broy./Diag. 0.40E+00   24.9     1.21144623     -1077.9072015179 -1.51E+00
   288 Broy./Diag. 0.40E+00   24.8     0.02911310     -1076.2127066090  1.69E+00
   289 Broy./Diag. 0.40E+00   21.7     0.01213895     -1076.4207071354 -2.08E-01
   290 Broy./Diag. 0.40E+00   22.9     0.00961622     -1076.3428585004  7.78E-02
   291 Broy./Diag. 0.40E+00   23.9     0.00800864     -1076.3842869177 -4.14E-02
   292 Broy./Diag. 0.40E+00   25.2     0.00347411     -1076.3972226500 -1.29E-02
   293 Broy./Diag. 0.40E+00   23.9     0.00234758     -1076.3936276774  3.59E-03
   294 Broy./Diag. 0.40E+00   24.0     0.00189441     -1076.3828265469  1.08E-02
   295 Broy./Diag. 0.40E+00   23.9     0.00239626     -1076.3887675866 -5.94E-03
   296 Broy./Diag. 0.40E+00   24.7     1.47174169     -1076.3830276079  5.74E-03
   297 Broy./Diag. 0.40E+00   23.6     1.49674979     -1077.9360171815 -1.55E+00
   298 Broy./Diag. 0.40E+00   23.8     1.27622301     -1077.9426618797 -6.64E-03
   299 Broy./Diag. 0.40E+00   24.4     1.20647673     -1077.5935316338  3.49E-01
   300 Broy./Diag. 0.40E+00   23.7     1.20711067     -1075.8639199687  1.73E+00

  Leaving inner SCF loop after reaching   300 steps.


  Electronic density on regular grids:       -512.0004897600       -0.0004897600
  Core density on regular grids:              512.0001352332        0.0001352332
  Total charge density on r-space grids:       -0.0003545268
  Total charge density g-space grids:          -0.0003545268

  Overlap energy of the core charge distribution:               0.00000000000000
  Self energy of the core charge distribution:              -2838.21791979120962
  Core Hamiltonian energy:                                    760.38261138913322
  Hartree energy:                                            1240.75445211497822
  Exchange-correlation energy:                               -238.78306368161620

  Total energy:                                             -1075.86391996871430

 *** WARNING in qs_scf.F:542 :: SCF run NOT converged ***


 ENERGY| Total FORCE_EVAL ( QS ) energy (a.u.):            -1074.035865045383161


 ATOMIC FORCES in [a.u.]

 # Atom   Kind   Element          X              Y              Z
      1      1      O          -0.10651455    -0.11546500     0.02568889
      2      2      H           0.08302876     0.00224936     0.10136164
      3      2      H           0.03137604     0.00736129    -0.10201022
      4      1      O          -0.02459829     0.04265373     0.08323480
      5      2      H          -0.02342387    -0.01152044    -0.11117320
      6      2      H           0.06572022     0.01038132     0.02724528
      7      1      O           0.00133755    -0.01905942     0.02933476
      8      2      H          -0.06524925     0.01500315    -0.05423495
      9      2      H           0.08303310     0.01156434    -0.08888401
     10      1      O          -0.01132256    -0.02773254     0.02248144
     11      2      H           0.03871956    -0.04041798    -0.06088277
     12      2      H          -0.03403657     0.02543939    -0.03599036
     13      1      O           0.01043195     0.04046044     0.15529775
     14      2      H          -0.06040333    -0.00956125    -0.03061273
     15      2      H           0.02731467     0.01190289    -0.04148372
     16      1      O           0.02304477     0.12725724     0.15294222
     17      2      H           0.05847690    -0.03197668    -0.01152327
     18      2      H          -0.07815351    -0.03098952    -0.05446249
     19      1      O           0.03669253     0.14644792     0.05749563
     20      2      H          -0.03453537    -0.01282513    -0.04867390
     21      2      H          -0.01268982    -0.06155013     0.03829494
     22      1      O           0.02367961    -0.04781029    -0.10013163
     23      2      H          -0.05460300     0.01003422    -0.03322678
     24      2      H          -0.00766429     0.00508516     0.05082593
     25      1      O          -0.05014452     0.07710756    -0.06898370
     26      2      H           0.04244440     0.03052652    -0.09114660
     27      2      H           0.04592472    -0.00068033     0.07875429
     28      1      O           0.00967861     0.01869612     0.05010756
     29      2      H          -0.03753975     0.03440811    -0.03039103
     30      2      H           0.01942498    -0.10343748     0.04894576
     31      1      O           0.02607264     0.05128079     0.05938596
     32      2      H          -0.07221758    -0.02826682    -0.03292028
     33      2      H           0.04762945     0.01103362    -0.03836625
     34      1      O          -0.00938448    -0.03804861    -0.02021264
     35      2      H          -0.05777398    -0.05894690    -0.01023403
     36      2      H           0.03605054     0.09232544    -0.00230857
     37      1      O           0.08255646     0.07833474     0.12487344
     38      2      H          -0.05442847     0.07712042    -0.03758279
     39      2      H          -0.05057123    -0.10636766     0.00924912
     40      1      O          -0.03373333    -0.07189128     0.06567664
     41      2      H          -0.03831807     0.07457589     0.02312580
     42      2      H           0.05027143     0.03876933     0.01440615
     43      1      O          -0.06923585    -0.07504929    -0.09621335
     44      2      H           0.01265037     0.06810863     0.08281164
     45      2      H           0.05074714    -0.02471846    -0.02737418
     46      1      O           0.05351275     0.02918503    -0.16068639
     47      2      H          -0.00910289     0.02854226     0.02481136
     48      2      H          -0.02928021    -0.02999572     0.04253432
     49      1      O           0.08265879     0.09982538     0.15974848
     50      2      H           0.01684363    -0.07703369    -0.05467370
     51      2      H          -0.08939433     0.00744336    -0.01812588
     52      1      O          -0.09938608     0.11522269    -0.02730306
     53      2      H           0.05292410    -0.01819127    -0.07859526
     54      2      H           0.01010733    -0.05352223     0.09895534
     55      1      O          -0.05273012     0.02173840     0.06941358
     56      2      H          -0.03324792    -0.00145680    -0.09357796
     57      2      H           0.04108081     0.03897082     0.05159737
     58      1      O           0.00027922    -0.12961811     0.07622420
     59      2      H          -0.03652503     0.05119840    -0.05403268
     60      2      H           0.04161145    -0.00011789     0.04471893
     61      1      O          -0.08560004     0.00402894     0.08467280
     62      2      H           0.00541189     0.03433249     0.01949956
     63      2      H           0.08142080    -0.02011358    -0.01580275
     64      1      O           0.05361152    -0.04376665     0.05509179
     65      2      H           0.00048755     0.01361766    -0.09880960
     66      2      H          -0.04723691     0.01903276     0.02863763
     67      1      O          -0.07343368    -0.09665559     0.07222650
     68      2      H          -0.01786661     0.05218068    -0.03769861
     69      2      H           0.08597782    -0.03234262     0.01313357
     70      1      O          -0.03977046     0.12681328    -0.02484705
     71      2      H          -0.04953388    -0.05329144    -0.03078791
     72      2      H           0.06309516    -0.00527864    -0.04619465
     73      1      O           0.09352477     0.02558757     0.08784728
     74      2      H          -0.02092225    -0.08910554     0.00334347
     75      2      H          -0.06856473     0.04315740     0.02782666
     76      1      O          -0.01891788    -0.02390618    -0.00008760
     77      2      H           0.07888827     0.00877446    -0.00957025
     78      2      H          -0.04690426    -0.00038804    -0.04908880
     79      1      O           0.05254274     0.05675345    -0.05448983
     80      2      H          -0.05848056     0.02691652     0.05069414
     81      2      H          -0.02098629    -0.08243830    -0.03661827
     82      1      O           0.07270435    -0.11908837    -0.12107086
     83      2      H           0.03920538     0.09359010    -0.01827784
     84      2      H          -0.07244247    -0.01561736    -0.01819032
     85      1      O          -0.03903137     0.04898528     0.20296795
     86      2      H           0.13264871     0.12851916    -0.10343192
     87      2      H          -0.09024073    -0.14365297    -0.11707896
     88      1      O          -0.09539878     0.03811848     0.12474280
     89      2      H           0.08672853    -0.03659978     0.05882357
     90      2      H           0.00456284     0.04848898    -0.04440888
     91      1      O          -0.05104029    -0.04153488     0.14356419
     92      2      H          -0.02891172     0.05672877    -0.03900951
     93      2      H           0.04620354    -0.03667853    -0.01223647
     94      1      O           0.01586203    -0.03041755    -0.02762749
     95      2      H           0.05172811    -0.00977326     0.03495375
     96      2      H          -0.08293441     0.05952138    -0.02203085
     97      1      O           0.01748049     0.01269838     0.00573172
     98      2      H          -0.00451020     0.01441710    -0.05079503
     99      2      H          -0.05818910     0.00445492    -0.02603643
    100      1      O          -0.11587362     0.07130153    -0.06174501
    101      2      H           0.06852867    -0.05252164    -0.10544739
    102      2      H           0.06473152     0.02378818     0.10169044
    103      1      O           0.09142207     0.02819807    -0.04210478
    104      2      H           0.01761393     0.06167149     0.02257312
    105      2      H          -0.08959517    -0.00501160    -0.03790894
    106      1      O           0.05003740     0.03917227    -0.07950268
    107      2      H          -0.02458230    -0.03174952    -0.04246291
    108      2      H          -0.03689339     0.07759172    -0.03104397
    109      1      O          -0.04758223     0.06356946     0.13971340
    110      2      H           0.04358384     0.05899874     0.00522702
    111      2      H           0.00632074    -0.04561111    -0.04367230
    112      1      O           0.01518215    -0.01095939    -0.00373607
    113      2      H           0.02652152    -0.00176965    -0.08175853
    114      2      H          -0.01855807     0.07888099    -0.00562350
    115      1      O          -0.03319037     0.01981574     0.02949020
    116      2      H           0.01442639    -0.00453898     0.03490555
    117      2      H           0.00906777     0.00021492    -0.02376358
    118      1      O           0.01915320    -0.00231705     0.01459680
    119      2      H           0.02999316    -0.05282209    -0.10219522
    120      2      H          -0.06373070     0.03386327    -0.00065936
    121      1      O           0.07477947    -0.01593538     0.01821955
    122      2      H          -0.03085488    -0.01085778    -0.11325074
    123      2      H          -0.00519041     0.06087670     0.05780044
    124      1      O          -0.06424128     0.05043833    -0.05700350
    125      2      H           0.02768241    -0.02825775     0.10312454
    126      2      H           0.01460379    -0.01422243    -0.07852909
    127      1      O           0.07779482    -0.02687862     0.03910583
    128      2      H           0.01794427     0.08705364    -0.05437783
    129      2      H          -0.06526807    -0.04638841     0.01176289
    130      1      O          -0.00949132     0.12997943     0.12847979
    131      2      H           0.06791822    -0.05806187    -0.04406494
    132      2      H          -0.07387081    -0.04634080    -0.00017273
    133      1      O          -0.05446327     0.06573084     0.19565542
    134      2      H           0.08786173     0.01702225    -0.03705843
    135      2      H          -0.03012680    -0.14096118    -0.02681459
    136      1      O           0.05887375     0.08955417    -0.04550404
    137      2      H          -0.06053629    -0.06000397     0.02490301
    138      2      H           0.01054590    -0.01767731    -0.09822022
    139      1      O          -0.04542481     0.11457067     0.14164731
    140      2      H           0.02223341    -0.12430734    -0.00748896
    141      2      H           0.03812215     0.01868124    -0.11407342
    142      1      O           0.05576584    -0.03105703    -0.03076554
    143      2      H          -0.04510924    -0.00633691     0.07243743
    144      2      H          -0.01937544     0.01956342    -0.05459482
    145      1      O          -0.00663714    -0.04930208    -0.03747727
    146      2      H           0.04562052     0.05056169    -0.03837830
    147      2      H          -0.05450643     0.05079460     0.03140257
    148      1      O           0.08946796    -0.05819845    -0.00714501
    149      2      H          -0.04493900     0.02555176    -0.02176351
    150      2      H          -0.01970319    -0.06820358    -0.04560729
    151      1      O          -0.08443186    -0.03120815    -0.04138762
    152      2      H           0.00301480    -0.00733866     0.08796804
    153      2      H           0.04267469    -0.03703949    -0.03310393
    154      1      O          -0.08050534    -0.05676431    -0.01935422
    155      2      H          -0.00150773    -0.01908499    -0.11213423
    156      2      H           0.04617796     0.06863501    -0.00376965
    157      1      O          -0.01359462     0.02449234     0.10957895
    158      2      H           0.06129533    -0.05211225    -0.03289344
    159      2      H          -0.08018264    -0.02464390    -0.07060904
    160      1      O          -0.05568179     0.09965735     0.14864675
    161      2      H           0.06768352    -0.02332128    -0.02072775
    162      2      H          -0.02306995    -0.03950318    -0.01858980
    163      1      O           0.02316218     0.15644575     0.07968555
    164      2      H          -0.06096140    -0.03321120     0.02104457
    165      2      H           0.00292634    -0.04588201    -0.06995771
    166      1      O          -0.05737844    -0.13595577     0.08125299
    167      2      H          -0.02129897     0.08401255    -0.00559804
    168      2      H           0.07178570     0.00306904    -0.07451613
    169      1      O          -0.07585605    -0.08301449     0.00927792
    170      2      H          -0.00832166    -0.07644415    -0.11521961
    171      2      H           0.06427703     0.08664637     0.00462730
    172      1      O           0.00567247     0.13956220    -0.10320168
    173      2      H           0.07936594    -0.07012704    -0.04519229
    174      2      H          -0.03628478    -0.04671686     0.01867258
    175      1      O          -0.03002940    -0.06870577     0.09580559
    176      2      H           0.03465690     0.06850120    -0.01287844
    177      2      H           0.03071162    -0.02317822    -0.07625497
    178      1      O           0.06646220    -0.01018191    -0.03351708
    179      2      H          -0.03423442    -0.08193828     0.05879362
    180      2      H          -0.04404748     0.04999477    -0.04439269
    181      1      O           0.01433471    -0.08259349     0.08734492
    182      2      H          -0.03383776     0.03154363    -0.02628271
    183      2      H           0.02603164     0.02653799    -0.04160788
    184      1      O           0.01058977    -0.13617143     0.02823273
    185      2      H          -0.07408481    -0.00492303    -0.06913588
    186      2      H           0.05122245     0.04223316    -0.03276114
    187      1      O          -0.08435239    -0.09954633    -0.14779534
    188      2      H          -0.02132129     0.06138844     0.01728042
    189      2      H           0.06236443    -0.03642733     0.02813779
    190      1      O          -0.10048512    -0.00198236    -0.05694998
    191      2      H          -0.01297819    -0.04882554    -0.07725495
    192      2      H           0.09081005     0.00539905    -0.00861994
 SUM OF ATOMIC FORCES          -0.31288990     0.20850212    -0.75544323     0.84384104

 -------------------------------------------------------------------------------
 -                                                                             -
 -                                DBCSR STATISTICS                             -
 -                                                                             -
 -------------------------------------------------------------------------------
 COUNTER                                    TOTAL       BLAS       SMM       ACC
 flops     5 x     5 x   256           3586956800       0.0%    100.0%      0.0%
 flops     5 x    13 x   256           4307430400       0.0%    100.0%      0.0%
 flops    13 x     5 x   256           4417620480       0.0%    100.0%      0.0%
 flops    13 x    13 x   256           6250782720       0.0%    100.0%      0.0%
 flops inhomo. stacks                           0       0.0%      0.0%      0.0%
 flops total                        18.562790E+09       0.0%    100.0%      0.0%
 flops max/rank                     18.562790E+09       0.0%    100.0%      0.0%
 matmuls inhomo. stacks                         0       0.0%      0.0%      0.0%
 matmuls total                             614642       0.0%    100.0%      0.0%
 number of processed stacks                 42140       0.0%    100.0%      0.0%
 average stack size                                     0.0      14.6       0.0
 marketing flops                   333.927416E+09
 -------------------------------------------------------------------------------
 # multiplications                            301
 max memory usage/rank              30.520025E+09
 # max total images/rank                        1
 # max 3D layers                                1
 # MPI messages exchanged                       0
 MPI messages size (bytes):
  total size                         0.000000E+00
  min size                           0.000000E+00
  max size                           0.000000E+00
  average size                       0.000000E+00
 MPI breakdown and total messages size (bytes):
             size <=      128                   0                        0
       128 < size <=     8192                   0                        0
      8192 < size <=    32768                   0                        0
     32768 < size <=   131072                   0                        0
    131072 < size <=  4194304                   0                        0
   4194304 < size <= 16777216                   0                        0
  16777216 < size                               0                        0
 -------------------------------------------------------------------------------

 MEMORY| Estimated peak process memory [MiB]                               29101

 -------------------------------------------------------------------------------
 -                                                                             -
 -                           R E F E R E N C E S                               -
 -                                                                             -
 -------------------------------------------------------------------------------
 
 CP2K version 7.1, the CP2K developers group (2019).
 CP2K is freely available from https://www.cp2k.org/ .

 Schuett, Ole; Messmer, Peter; Hutter, Juerg; VandeVondele, Joost. 
 Electronic Structure Calculations on Graphics Processing Units, John
 Wiley & Sons, Ltd, 173-190 (2016). 
 GPU-Accelerated Sparse Matrix-Matrix Multiplication for
 Linear Scaling Density Functional Theory.
 https://dx.doi.org/10.1002/9781118670712.ch8

 Borstnik, U; VandeVondele, J; Weber, V; Hutter, J. 
 PARALLEL COMPUTING, 40 (5-6), 47-58 (2014). 
 Sparse matrix multiplication: The distributed block-compressed sparse
 row library.
 https://dx.doi.org/10.1016/j.parco.2014.03.012

 Hutter, J; Iannuzzi, M; Schiffmann, F; VandeVondele, J. 
 WIREs Comput Mol Sci., 4 (1), 15-25 (2014). 
 CP2K: atomistic simulations of condensed matter systems.
 https://dx.doi.org/10.1002/wcms.1159

 Krack, M. 
 THEORETICAL CHEMISTRY ACCOUNTS, 114 (1-3), 145-152 (2005). 
 Pseudopotentials for H to Kr optimized for gradient-corrected
 exchange-correlation functionals.
 https://dx.doi.org/10.1007/s00214-005-0655-y

 VandeVondele, J; Krack, M; Mohamed, F; Parrinello, M; Chassaing, T;
 Hutter, J. COMPUTER PHYSICS COMMUNICATIONS, 167 (2), 103-128 (2005). 
 QUICKSTEP: Fast and accurate density functional calculations using a
 mixed Gaussian and plane waves approach.
 https://dx.doi.org/10.1016/j.cpc.2004.12.014

 Frigo, M; Johnson, SG. 
 PROCEEDINGS OF THE IEEE, 93 (2), 216-231 (2005). 
 The design and implementation of FFTW3.
 https://dx.doi.org/10.1109/JPROC.2004.840301

 Hartwigsen, C; Goedecker, S; Hutter, J. 
 PHYSICAL REVIEW B, 58 (7), 3641-3662 (1998). 
 Relativistic separable dual-space Gaussian pseudopotentials from H to Rn.
 https://dx.doi.org/10.1103/PhysRevB.58.3641

 Lippert, G; Hutter, J; Parrinello, M. 
 MOLECULAR PHYSICS, 92 (3), 477-487 (1997). 
 A hybrid Gaussian and plane wave density functional scheme.
 https://dx.doi.org/10.1080/002689797170220

 Goedecker, S; Teter, M; Hutter, J. 
 PHYSICAL REVIEW B, 54 (3), 1703-1710 (1996). 
 Separable dual-space Gaussian pseudopotentials.
 https://dx.doi.org/10.1103/PhysRevB.54.1703


 -------------------------------------------------------------------------------
 -                                                                             -
 -                                T I M I N G                                  -
 -                                                                             -
 -------------------------------------------------------------------------------
 SUBROUTINE                       CALLS  ASD         SELF TIME        TOTAL TIME
                                MAXIMUM       AVERAGE  MAXIMUM  AVERAGE  MAXIMUM
 CP2K                                 1  1.0    1.060    1.060 6988.885 6988.885
 qs_forces                            1  2.0    0.000    0.000 6977.570 6977.570
 qs_energies                          1  3.0    0.000    0.000 6973.948 6973.948
 scf_env_do_scf                       1  4.0    0.001    0.001 6962.519 6962.519
 scf_env_do_scf_inner_loop          300  5.0    0.049    0.049 6962.518 6962.518
 gspace_mixing                      299  6.0   42.142   42.142 2913.128 2913.128
 broyden_mixing                     299  7.0 2630.842 2630.842 2630.846 2630.846
 qs_scf_new_mos                     300  6.0    0.008    0.008 1948.874 1948.874
 eigensolver                        300  7.0    0.041    0.041 1917.357 1917.357
 cp_fm_syevd                        300  8.0 1276.258 1276.258 1277.407 1277.407
 pw_transfer                       3912  9.9    0.378    0.378 1122.302 1122.302
 fft_wrap_pw1pw2                   3310 10.9    0.053    0.053 1095.948 1095.948
 rebuild_ks_matrix                  301  7.0    0.001    0.001 1087.569 1087.569
 qs_ks_build_kohn_sham_matrix       301  8.0    0.089    0.089 1087.568 1087.568
 qs_ks_update_qs_env                300  6.0    0.003    0.003 1084.296 1084.296
 qs_rho_update_rho                  301  6.0    0.003    0.003 1018.276 1018.276
 calculate_rho_elec                 301  7.0  497.324  497.324 1018.273 1018.273
 fft_wrap_pw1pw2_70                1504 11.2   87.653   87.653 1007.722 1007.722
 cp_fm_cholesky_restore             900  8.0  638.818  638.818  638.818  638.818
 fft3d_s                           3311 12.9  514.697  514.697  514.727  514.727
 density_rs2pw                      301  8.0    0.034    0.034  513.386  513.386
 pw_scatter_s                      1804 13.2  409.602  409.602  409.602  409.602
 pw_poisson_solve                   301  9.0  333.735  333.735  360.059  360.059
 sum_up_and_integrate               301  9.0   18.504   18.504  285.225  285.225
 integrate_v_rspace                 301 10.0    7.611    7.611  266.720  266.720
 potential_pw2rs                    301 11.0    2.497    2.497  257.995  257.995
 qs_vxc_create                      301  9.0    0.009    0.009  158.201  158.201
 xc_vxc_pw_create                   301 10.0   42.364   42.364  158.192  158.192
 -------------------------------------------------------------------------------

 The number of warnings for this run is : 1
 
 -------------------------------------------------------------------------------
  **** **** ******  **  PROGRAM ENDED AT                 2020-05-28 17:15:41.486
 ***** ** ***  *** **   PROGRAM RAN ON                                   gnode44
 **    ****   ******    PROGRAM RAN BY                               mayank.modi
 ***** **    ** ** **   PROGRAM PROCESS ID                                 16877
  **** **  *******  **  PROGRAM STOPPED IN /home/mayank.modi/ab-initio-thermodyn
                                           amics-of-water/mayank/cp2k_energy_cal
                                           culations
