 DBCSR| CPU Multiplication driver                                           XSMM
 DBCSR| Multrec recursion limit                                              512
 DBCSR| Multiplication stack size                                           1000
 DBCSR| Maximum elements for images                                    UNLIMITED
 DBCSR| Multiplicative factor virtual images                                   1
 DBCSR| Use multiplication densification                                       T
 DBCSR| Multiplication size stacks                                             3


  **** **** ******  **  PROGRAM STARTED AT               2020-05-28 19:13:02.017
 ***** ** ***  *** **   PROGRAM STARTED ON                               gnode44
 **    ****   ******    PROGRAM STARTED BY                           mayank.modi
 ***** **    ** ** **   PROGRAM PROCESS ID                                 19585
  **** **  *******  **  PROGRAM STARTED IN /home/mayank.modi/ab-initio-thermodyn
                                           amics-of-water/mayank/cp2k_energy_cal
                                           culations

 CP2K| version string:                                          CP2K version 7.1
 CP2K| source code revision number:                                  git:e635599
 CP2K| cp2kflags: omp libint fftw3 libxc xsmm spglib                            
 CP2K| is freely available from                            https://www.cp2k.org/
 CP2K| Program compiled at                          Mon Dec 23 19:23:12 CET 2019
 CP2K| Program compiled on                                                pc9404
 CP2K| Program compiled for                                Linux-x86-64-gfortran
 CP2K| Data directory path                                        /opt/cp2k/data
 CP2K| Input file name                                 input_training/input26.in

 GLOBAL| Force Environment number                                              1
 GLOBAL| Basis set file name                                           BASIS_SET
 GLOBAL| Potential file name                                      GTH_POTENTIALS
 GLOBAL| MM Potential file name                                     MM_POTENTIAL
 GLOBAL| Coordinate file name                                      __STD_INPUT__
 GLOBAL| Method name                                                        CP2K
 GLOBAL| Project name                                                   H2O_bulk
 GLOBAL| Preferred FFT library                                             FFTW3
 GLOBAL| Preferred diagonalization lib.                                       SL
 GLOBAL| Run type                                                   ENERGY_FORCE
 GLOBAL| All-to-all communication in single precision                          F
 GLOBAL| FFTs using library dependent lengths                                  F
 GLOBAL| Global print level                                                  LOW
 GLOBAL| MPI I/O enabled                                                       T
 GLOBAL| Total number of message passing processes                             1
 GLOBAL| Number of threads for this process                                   36
 GLOBAL| This output is from process                                           0
 GLOBAL| CPU model name                Intel(R) Xeon(R) CPU E5-2640 v4 @ 2.40GHz
 GLOBAL| CPUID                                                              1002
 GLOBAL| Compiled for CPUID                                                    0

 MEMORY| system memory details [Kb]
 MEMORY|                        rank 0           min           max       average
 MEMORY| MemTotal            131893056     131893056     131893056     131893056
 MEMORY| MemFree             121133384     121133384     121133384     121133384
 MEMORY| Buffers               2119064       2119064       2119064       2119064
 MEMORY| Cached                3080176       3080176       3080176       3080176
 MEMORY| Slab                  3302440       3302440       3302440       3302440
 MEMORY| SReclaimable          3100672       3100672       3100672       3100672
 MEMORY| MemLikelyFree       129433296     129433296     129433296     129433296


 GENERATE|  Preliminary Number of Bonds generated:                             0
 GENERATE|  Achieved consistency in connectivity generation.

 *******************************************************************************
 *******************************************************************************
 **                                                                           **
 **     #####                         ##              ##                      **
 **    ##   ##            ##          ##              ##                      **
 **   ##     ##                       ##            ######                    **
 **   ##     ##  ##   ##  ##   #####  ##  ##   ####   ##    #####    #####    **
 **   ##     ##  ##   ##  ##  ##      ## ##   ##      ##   ##   ##  ##   ##   **
 **   ##  ## ##  ##   ##  ##  ##      ####     ###    ##   ######   ######    **
 **    ##  ###   ##   ##  ##  ##      ## ##      ##   ##   ##       ##        **
 **     #######   #####   ##   #####  ##  ##  ####    ##    #####   ##        **
 **           ##                                                    ##        **
 **                                                                           **
 **                                                ... make the atoms dance   **
 **                                                                           **
 **            Copyright (C) by CP2K developers group (2000 - 2019)           **
 **                                                                           **
 *******************************************************************************


 TOTAL NUMBERS AND MAXIMUM NUMBERS

  Total number of            - Atomic kinds:                                   2
                             - Atoms:                                        192
                             - Shell sets:                                   384
                             - Shells:                                       704
                             - Primitive Cartesian functions:                960
                             - Cartesian basis functions:                   1536
                             - Spherical basis functions:                   1472

  Maximum angular momentum of- Orbital basis functions:                        2
                             - Local part of the GTH pseudopotential:          2
                             - Non-local part of the GTH pseudopotential:      0


 SCF PARAMETERS         Density guess:                                    ATOMIC
                        --------------------------------------------------------
                        max_scf:                                             300
                        max_scf_history:                                       0
                        max_diis:                                              4
                        --------------------------------------------------------
                        eps_scf:                                        1.00E-07
                        eps_scf_history:                                0.00E+00
                        eps_diis:                                       1.00E-01
                        eps_eigval:                                     1.00E-05
                        --------------------------------------------------------
                        level_shift [a.u.]:                                 0.00
                        --------------------------------------------------------
                        Mixing method:                            BROYDEN_MIXING
                                                charge density mixing in g-space
                        --------------------------------------------------------
                        No outer SCF

 Number of electrons:                                                        512
 Number of occupied orbitals:                                                256
 Number of molecular orbitals:                                               256

 Number of orbital functions:                                               1472
 Number of independent orbital functions:                                   1472

 Extrapolation method: initial_guess


 SCF WAVEFUNCTION OPTIMIZATION

  Step     Update method      Time    Convergence         Total energy    Change
  ------------------------------------------------------------------------------
     1 NoMix/Diag. 0.40E+00   10.1     0.66230910     -1064.2904193299 -1.06E+03
     2 Broy./Diag. 0.40E+00   16.0     1.88634957      -995.6306841292  6.87E+01
     3 Broy./Diag. 0.40E+00   16.3     1.90911092     -1264.7340754000 -2.69E+02
     4 Broy./Diag. 0.40E+00   17.2     1.85147074     -1125.0889654413  1.40E+02
     5 Broy./Diag. 0.40E+00   18.1     1.69172773     -1097.6186704478  2.75E+01
     6 Broy./Diag. 0.40E+00   18.9     1.79555889     -1103.0580336879 -5.44E+00
     7 Broy./Diag. 0.40E+00   19.7     1.83695805     -1102.5735439300  4.84E-01
     8 Broy./Diag. 0.40E+00   20.6     1.52882284     -1085.5729737493  1.70E+01
     9 Broy./Diag. 0.40E+00   20.2     1.41898802     -1078.1796871790  7.39E+00
    10 Broy./Diag. 0.40E+00   23.4     0.63255944     -1071.8332520593  6.35E+00
    11 Broy./Diag. 0.40E+00   23.4     0.46228015     -1073.3945666417 -1.56E+00
    12 Broy./Diag. 0.40E+00   23.3     1.23339653     -1073.4215866469 -2.70E-02
    13 Broy./Diag. 0.40E+00   23.5     1.58278815     -1072.0001800086  1.42E+00
    14 Broy./Diag. 0.40E+00   23.2     1.69087168     -1074.4059004140 -2.41E+00
    15 Broy./Diag. 0.40E+00   23.7     1.62434677     -1075.8743563903 -1.47E+00
    16 Broy./Diag. 0.40E+00   24.2     1.22694827     -1077.2898794558 -1.42E+00
    17 Broy./Diag. 0.40E+00   22.5     0.39022067     -1077.4019929079 -1.12E-01
    18 Broy./Diag. 0.40E+00   22.3     0.26205255     -1074.6230111688  2.78E+00
    19 Broy./Diag. 0.40E+00   23.0     1.56319806     -1075.4008235499 -7.78E-01
    20 Broy./Diag. 0.40E+00   24.5     1.57660969     -1079.1464452707 -3.75E+00
    21 Broy./Diag. 0.40E+00   23.7     1.16365948     -1074.8276598923  4.32E+00
    22 Broy./Diag. 0.40E+00   23.5     0.99253846     -1078.6918075225 -3.86E+00
    23 Broy./Diag. 0.40E+00   23.2     1.13956566     -1076.8341232074  1.86E+00
    24 Broy./Diag. 0.40E+00   22.6     0.16240604     -1075.0353003407  1.80E+00
    25 Broy./Diag. 0.40E+00   23.3     1.02453649     -1075.6464660478 -6.11E-01
    26 Broy./Diag. 0.40E+00   24.6     1.03729832     -1077.7444149853 -2.10E+00
    27 Broy./Diag. 0.40E+00   24.1     0.20554822     -1074.7408265692  3.00E+00
    28 Broy./Diag. 0.40E+00   23.3     1.12641429     -1075.5544669000 -8.14E-01
    29 Broy./Diag. 0.40E+00   23.3     1.62666997     -1077.0363412344 -1.48E+00
    30 Broy./Diag. 0.40E+00   24.2     1.67391581     -1079.0058338122 -1.97E+00
    31 Broy./Diag. 0.40E+00   22.5     1.78612034     -1076.8102814324  2.20E+00
    32 Broy./Diag. 0.40E+00   22.5     1.77296124     -1076.4706858730  3.40E-01
    33 Broy./Diag. 0.40E+00   23.2     1.61515142     -1076.5689182308 -9.82E-02
    34 Broy./Diag. 0.40E+00   23.4     1.53739490     -1075.1460852568  1.42E+00
    35 Broy./Diag. 0.40E+00   23.0     1.09894913     -1077.8604689349 -2.71E+00
    36 Broy./Diag. 0.40E+00   23.5     1.41452454     -1080.8901328479 -3.03E+00
    37 Broy./Diag. 0.40E+00   24.7     1.51662801     -1076.9131889729  3.98E+00
    38 Broy./Diag. 0.40E+00   24.0     0.49886305     -1071.3994318650  5.51E+00
    39 Broy./Diag. 0.40E+00   23.2     1.66223346     -1075.0271234872 -3.63E+00
    40 Broy./Diag. 0.40E+00   22.9     1.60986596     -1080.6710766804 -5.64E+00
    41 Broy./Diag. 0.40E+00   23.3     1.01381636     -1077.4141571660  3.26E+00
    42 Broy./Diag. 0.40E+00   23.5     0.21288599     -1075.1724311327  2.24E+00
    43 Broy./Diag. 0.40E+00   23.7     0.17690482     -1075.4445686007 -2.72E-01
    44 Broy./Diag. 0.40E+00   23.8     0.47418021     -1075.3721819760  7.24E-02
    45 Broy./Diag. 0.40E+00   23.5     0.95940089     -1076.4220139752 -1.05E+00
    46 Broy./Diag. 0.40E+00   23.4     1.07256862     -1077.4487152416 -1.03E+00
    47 Broy./Diag. 0.40E+00   23.7     0.37576992     -1075.0531163500  2.40E+00
    48 Broy./Diag. 0.40E+00   23.0     1.55730503     -1074.9128265867  1.40E-01
    49 Broy./Diag. 0.40E+00   23.9     1.51469990     -1077.7681984470 -2.86E+00
    50 Broy./Diag. 0.40E+00   23.7     1.15229703     -1078.7466451974 -9.78E-01
    51 Broy./Diag. 0.40E+00   23.4     1.57535626     -1078.3530295290  3.94E-01
    52 Broy./Diag. 0.40E+00   24.7     1.59032591     -1076.7043918349  1.65E+00
    53 Broy./Diag. 0.40E+00   22.9     1.53093819     -1076.5251422205  1.79E-01
    54 Broy./Diag. 0.40E+00   22.6     0.44521549     -1074.3974713378  2.13E+00
    55 Broy./Diag. 0.40E+00   23.8     0.96708531     -1076.1982039654 -1.80E+00
    56 Broy./Diag. 0.40E+00   23.9     1.08194238     -1077.1994888435 -1.00E+00
    57 Broy./Diag. 0.40E+00   23.7     1.55955115     -1075.0986177487  2.10E+00
    58 Broy./Diag. 0.40E+00   24.6     1.57199959     -1079.2766152183 -4.18E+00
    59 Broy./Diag. 0.40E+00   23.6     0.80171518     -1077.4206654710  1.86E+00
    60 Broy./Diag. 0.40E+00   23.5     1.00939546     -1075.4631226384  1.96E+00
    61 Broy./Diag. 0.40E+00   23.3     1.04547799     -1077.2384938514 -1.78E+00
    62 Broy./Diag. 0.40E+00   23.8     0.31775912     -1075.2516908648  1.99E+00
    63 Broy./Diag. 0.40E+00   23.9     0.27239367     -1075.8506979842 -5.99E-01
    64 Broy./Diag. 0.40E+00   23.5     0.30712039     -1075.6459227701  2.05E-01
    65 Broy./Diag. 0.40E+00   23.5     1.16111116     -1074.9440794935  7.02E-01
    66 Broy./Diag. 0.40E+00   22.0     1.63308646     -1077.5399822043 -2.60E+00
    67 Broy./Diag. 0.40E+00   22.3     1.56605992     -1077.4013855739  1.39E-01
    68 Broy./Diag. 0.40E+00   24.2     1.56892750     -1075.6797663524  1.72E+00
    69 Broy./Diag. 0.40E+00   23.6     1.57746794     -1079.2302534018 -3.55E+00
    70 Broy./Diag. 0.40E+00   22.4     1.00127053     -1075.7421847081  3.49E+00
    71 Broy./Diag. 0.40E+00   25.3     1.07111161     -1077.7409829420 -2.00E+00
    72 Broy./Diag. 0.40E+00   24.3     0.36820501     -1074.7736139643  2.97E+00
    73 Broy./Diag. 0.40E+00   21.9     0.23162907     -1076.2717589880 -1.50E+00
    74 Broy./Diag. 0.40E+00   23.2     0.19508262     -1076.1667410060  1.05E-01
    75 Broy./Diag. 0.40E+00   22.6     1.13749282     -1075.1780000511  9.89E-01
    76 Broy./Diag. 0.40E+00   21.6     1.63977698     -1078.0792183928 -2.90E+00
    77 Broy./Diag. 0.40E+00   21.1     1.58503470     -1077.5160729558  5.63E-01
    78 Broy./Diag. 0.40E+00   22.2     1.13524314     -1076.7738141746  7.42E-01
    79 Broy./Diag. 0.40E+00   23.4     1.12002572     -1075.2063701794  1.57E+00
    80 Broy./Diag. 0.40E+00   23.6     1.14977019     -1076.8558183383 -1.65E+00
    81 Broy./Diag. 0.40E+00   22.7     1.26891635     -1077.0875986619 -2.32E-01
    82 Broy./Diag. 0.40E+00   24.0     1.13640610     -1076.5554560510  5.32E-01
    83 Broy./Diag. 0.40E+00   23.6     1.15133540     -1075.2131086211  1.34E+00
    84 Broy./Diag. 0.40E+00   23.6     1.15219362     -1078.0939904944 -2.88E+00
    85 Broy./Diag. 0.40E+00   23.4     1.13573220     -1075.5787956603  2.52E+00
    86 Broy./Diag. 0.40E+00   23.3     1.69806500     -1077.4334832030 -1.85E+00
    87 Broy./Diag. 0.40E+00   23.5     1.67952322     -1078.3063173917 -8.73E-01
    88 Broy./Diag. 0.40E+00   22.8     0.35013578     -1074.7577082136  3.55E+00
    89 Broy./Diag. 0.40E+00   23.6     0.17859759     -1076.2380467251 -1.48E+00
    90 Broy./Diag. 0.40E+00   23.8     1.00562627     -1075.6186900132  6.19E-01
    91 Broy./Diag. 0.40E+00   23.7     1.03367333     -1077.7466006530 -2.13E+00
    92 Broy./Diag. 0.40E+00   24.0     1.12152953     -1075.2439173520  2.50E+00
    93 Broy./Diag. 0.40E+00   22.3     0.72011674     -1077.7461173648 -2.50E+00
    94 Broy./Diag. 0.40E+00   23.0     1.10809677     -1077.9482018829 -2.02E-01
    95 Broy./Diag. 0.40E+00   23.4     1.12787294     -1076.0182189715  1.93E+00
    96 Broy./Diag. 0.40E+00   24.1     1.59558142     -1077.5322359186 -1.51E+00
    97 Broy./Diag. 0.40E+00   23.5     1.64695378     -1077.8368022148 -3.05E-01
    98 Broy./Diag. 0.40E+00   23.7     1.23892028     -1074.8321691154  3.00E+00
    99 Broy./Diag. 0.40E+00   24.8     1.18490011     -1078.7159671509 -3.88E+00
   100 Broy./Diag. 0.40E+00   23.3     1.04139199     -1075.2064247949  3.51E+00
   101 Broy./Diag. 0.40E+00   24.3     1.29764522     -1078.6479542566 -3.44E+00
   102 Broy./Diag. 0.40E+00   24.6     1.13632763     -1077.8186906537  8.29E-01
   103 Broy./Diag. 0.40E+00   22.1     1.16744000     -1077.2948253320  5.24E-01
   104 Broy./Diag. 0.40E+00   21.5     1.12011775     -1075.0528678523  2.24E+00
   105 Broy./Diag. 0.40E+00   21.6     1.12160964     -1076.7359201081 -1.68E+00
   106 Broy./Diag. 0.40E+00   21.7     1.61345490     -1075.4597489044  1.28E+00
   107 Broy./Diag. 0.40E+00   23.4     1.63500829     -1078.0160142758 -2.56E+00
   108 Broy./Diag. 0.40E+00   23.3     1.16201878     -1074.9819182858  3.03E+00
   109 Broy./Diag. 0.40E+00   23.4     1.29527312     -1080.4075511101 -5.43E+00
   110 Broy./Diag. 0.40E+00   23.6     1.31683213     -1077.8104147749  2.60E+00
   111 Broy./Diag. 0.40E+00   23.3     1.12651006     -1075.3197609741  2.49E+00
   112 Broy./Diag. 0.40E+00   23.3     1.13042523     -1077.1606012429 -1.84E+00
   113 Broy./Diag. 0.40E+00   21.8     1.13191808     -1075.5628083421  1.60E+00
   114 Broy./Diag. 0.40E+00   21.1     1.13637439     -1077.5413984219 -1.98E+00
   115 Broy./Diag. 0.40E+00   20.7     0.22950514     -1075.5155807413  2.03E+00
   116 Broy./Diag. 0.40E+00   21.8     1.59666029     -1074.8842863414  6.31E-01
   117 Broy./Diag. 0.40E+00   21.7     1.61179489     -1078.5151451337 -3.63E+00
   118 Broy./Diag. 0.40E+00   24.1     1.00218746     -1076.0470224674  2.47E+00
   119 Broy./Diag. 0.40E+00   24.6     1.05522153     -1077.1765664755 -1.13E+00
   120 Broy./Diag. 0.40E+00   21.5     1.17215562     -1074.9394444146  2.24E+00
   121 Broy./Diag. 0.40E+00   22.7     1.45284988     -1078.0665779457 -3.13E+00
   122 Broy./Diag. 0.40E+00   23.5     1.50602242     -1077.1297700301  9.37E-01
   123 Broy./Diag. 0.40E+00   24.0     1.57893327     -1077.0615898362  6.82E-02
   124 Broy./Diag. 0.40E+00   24.0     1.62453758     -1076.6494395962  4.12E-01
   125 Broy./Diag. 0.40E+00   22.3     1.62184125     -1078.8138515263 -2.16E+00
   126 Broy./Diag. 0.40E+00   22.8     1.65560996     -1077.8284624433  9.85E-01
   127 Broy./Diag. 0.40E+00   23.4     0.57759657     -1072.6473013748  5.18E+00
   128 Broy./Diag. 0.40E+00   24.0     0.29517156     -1076.3101547614 -3.66E+00
   129 Broy./Diag. 0.40E+00   23.0     0.91660347     -1075.4530802443  8.57E-01
   130 Broy./Diag. 0.40E+00   23.8     0.95036991     -1077.1420516369 -1.69E+00
   131 Broy./Diag. 0.40E+00   23.6     0.39006192     -1075.7461821387  1.40E+00
   132 Broy./Diag. 0.40E+00   23.6     1.14733172     -1075.8539282371 -1.08E-01
   133 Broy./Diag. 0.40E+00   23.6     1.09689064     -1077.4114204351 -1.56E+00
   134 Broy./Diag. 0.40E+00   22.7     1.05637683     -1075.5027594497  1.91E+00
   135 Broy./Diag. 0.40E+00   23.7     1.68715391     -1078.0487618044 -2.55E+00
   136 Broy./Diag. 0.40E+00   24.2     1.65317807     -1078.2812221170 -2.32E-01
   137 Broy./Diag. 0.40E+00   24.3     1.13397607     -1074.5638714843  3.72E+00
   138 Broy./Diag. 0.40E+00   24.5     1.10467963     -1078.8164520536 -4.25E+00
   139 Broy./Diag. 0.40E+00   23.4     0.91668890     -1076.7329535745  2.08E+00
   140 Broy./Diag. 0.40E+00   23.1     0.99324276     -1076.9404216944 -2.07E-01
   141 Broy./Diag. 0.40E+00   21.4     1.15127758     -1074.5490506195  2.39E+00
   142 Broy./Diag. 0.40E+00   22.5     1.07864507     -1077.8014217298 -3.25E+00
   143 Broy./Diag. 0.40E+00   24.2     0.29097477     -1076.1387268027  1.66E+00
   144 Broy./Diag. 0.40E+00   22.3     1.16175838     -1075.5445608373  5.94E-01
   145 Broy./Diag. 0.40E+00   23.1     1.58680155     -1078.1294431540 -2.58E+00
   146 Broy./Diag. 0.40E+00   23.6     1.69314829     -1077.8928721946  2.37E-01
   147 Broy./Diag. 0.40E+00   24.3     1.16029622     -1077.4615436949  4.31E-01
   148 Broy./Diag. 0.40E+00   24.6     1.19514412     -1076.6545796989  8.07E-01
   149 Broy./Diag. 0.40E+00   24.7     1.59456192     -1074.7972615028  1.86E+00
   150 Broy./Diag. 0.40E+00   23.9     0.83017079     -1076.4830453058 -1.69E+00
   151 Broy./Diag. 0.40E+00   23.1     1.56227758     -1078.1896709874 -1.71E+00
   152 Broy./Diag. 0.40E+00   23.8     1.03080561     -1074.5884932725  3.60E+00
   153 Broy./Diag. 0.40E+00   23.9     1.11042620     -1078.1819807503 -3.59E+00
   154 Broy./Diag. 0.40E+00   23.8     1.12978140     -1078.0755462867  1.06E-01
   155 Broy./Diag. 0.40E+00   23.8     0.17519626     -1075.6946852160  2.38E+00
   156 Broy./Diag. 0.40E+00   24.1     1.15064249     -1074.5520661019  1.14E+00
   157 Broy./Diag. 0.40E+00   22.1     1.15858488     -1077.9939558951 -3.44E+00
   158 Broy./Diag. 0.40E+00   22.4     1.58551269     -1075.2504101961  2.74E+00
   159 Broy./Diag. 0.40E+00   20.8     1.57832812     -1077.6343689654 -2.38E+00
   160 Broy./Diag. 0.40E+00   22.6     1.13082111     -1077.7558674099 -1.21E-01
   161 Broy./Diag. 0.40E+00   22.0     0.47485833     -1075.7442033729  2.01E+00
   162 Broy./Diag. 0.40E+00   21.3     0.97729958     -1074.6601112392  1.08E+00
   163 Broy./Diag. 0.40E+00   22.8     0.98500632     -1077.7324971520 -3.07E+00
   164 Broy./Diag. 0.40E+00   21.8     0.72254836     -1076.7056145814  1.03E+00
   165 Broy./Diag. 0.40E+00   22.7     0.27813205     -1075.1440430889  1.56E+00
   166 Broy./Diag. 0.40E+00   24.5     1.07432181     -1076.0795023869 -9.35E-01
   167 Broy./Diag. 0.40E+00   24.1     1.10078806     -1077.1149549705 -1.04E+00
   168 Broy./Diag. 0.40E+00   25.1     1.61978257     -1075.5039994788  1.61E+00
   169 Broy./Diag. 0.40E+00   23.3     1.62880372     -1079.1358235508 -3.63E+00
   170 Broy./Diag. 0.40E+00   23.9     1.24145763     -1075.4379444120  3.70E+00
   171 Broy./Diag. 0.40E+00   24.7     1.27213927     -1077.9317834205 -2.49E+00
   172 Broy./Diag. 0.40E+00   22.5     0.98568513     -1075.3404664199  2.59E+00
   173 Broy./Diag. 0.40E+00   22.6     1.55465910     -1077.6517045850 -2.31E+00
   174 Broy./Diag. 0.40E+00   23.3     1.57229151     -1078.7704785303 -1.12E+00
   175 Broy./Diag. 0.40E+00   22.5     1.24697777     -1077.4048911526  1.37E+00
   176 Broy./Diag. 0.40E+00   21.5     1.62770911     -1077.5515620217 -1.47E-01
   177 Broy./Diag. 0.40E+00   23.5     1.23005201     -1077.2385722283  3.13E-01
   178 Broy./Diag. 0.40E+00   24.7     1.79502143     -1079.8495654750 -2.61E+00
   179 Broy./Diag. 0.40E+00   23.6     1.80187644     -1076.0135818482  3.84E+00
   180 Broy./Diag. 0.40E+00   23.8     0.43824883     -1074.3642285332  1.65E+00
   181 Broy./Diag. 0.40E+00   24.8     0.45193979     -1077.1426408282 -2.78E+00
   182 Broy./Diag. 0.40E+00   21.8     0.36141445     -1075.2407356238  1.90E+00
   183 Broy./Diag. 0.40E+00   22.8     0.34128891     -1076.4769519012 -1.24E+00
   184 Broy./Diag. 0.40E+00   23.7     1.16682138     -1075.8553746491  6.22E-01
   185 Broy./Diag. 0.40E+00   22.5     1.40962045     -1079.0960585724 -3.24E+00
   186 Broy./Diag. 0.40E+00   23.5     1.58142725     -1077.6948043606  1.40E+00
   187 Broy./Diag. 0.40E+00   23.6     1.61693405     -1077.2937508086  4.01E-01
   188 Broy./Diag. 0.40E+00   23.7     1.79159809     -1076.2838340603  1.01E+00
   189 Broy./Diag. 0.40E+00   23.1     1.78192128     -1076.2811614335  2.67E-03
   190 Broy./Diag. 0.40E+00   23.9     0.52251355     -1075.0805012571  1.20E+00
   191 Broy./Diag. 0.40E+00   22.2     0.42032730     -1075.5898884617 -5.09E-01
   192 Broy./Diag. 0.40E+00   23.2     0.23652326     -1076.3395214804 -7.50E-01
   193 Broy./Diag. 0.40E+00   23.1     1.09042099     -1075.9488940038  3.91E-01
   194 Broy./Diag. 0.40E+00   23.4     1.12544099     -1077.6127633778 -1.66E+00
   195 Broy./Diag. 0.40E+00   24.8     1.13925158     -1075.2847718326  2.33E+00
   196 Broy./Diag. 0.40E+00   23.0     1.59256450     -1078.5325759480 -3.25E+00
   197 Broy./Diag. 0.40E+00   23.9     1.65304365     -1078.4234787443  1.09E-01
   198 Broy./Diag. 0.40E+00   23.8     1.79835300     -1076.9979446813  1.43E+00
   199 Broy./Diag. 0.40E+00   24.6     1.75169673     -1079.3172507631 -2.32E+00
   200 Broy./Diag. 0.40E+00   23.5     1.54350946     -1076.0538804384  3.26E+00
   201 Broy./Diag. 0.40E+00   22.7     0.38772652     -1074.4600045339  1.59E+00
   202 Broy./Diag. 0.40E+00   21.7     0.59405792     -1075.7128130944 -1.25E+00
   203 Broy./Diag. 0.40E+00   23.4     0.89729930     -1075.8994880443 -1.87E-01
   204 Broy./Diag. 0.40E+00   23.4     1.14319143     -1077.0513932587 -1.15E+00
   205 Broy./Diag. 0.40E+00   23.7     1.15026283     -1077.1368141682 -8.54E-02
   206 Broy./Diag. 0.40E+00   23.6     1.63679824     -1074.9978052840  2.14E+00
   207 Broy./Diag. 0.40E+00   24.3     1.70268987     -1080.3754612807 -5.38E+00
   208 Broy./Diag. 0.40E+00   22.5     1.23709457     -1077.4739942609  2.90E+00
   209 Broy./Diag. 0.40E+00   24.0     1.54824223     -1077.1850162497  2.89E-01
   210 Broy./Diag. 0.40E+00   23.7     1.57723006     -1076.7217585263  4.63E-01
   211 Broy./Diag. 0.40E+00   23.6     1.64111898     -1078.4264239778 -1.70E+00
   212 Broy./Diag. 0.40E+00   22.5     1.66813377     -1077.8617585083  5.65E-01
   213 Broy./Diag. 0.40E+00   23.3     0.24146637     -1073.5005496778  4.36E+00
   214 Broy./Diag. 0.40E+00   23.6     1.13909016     -1074.8323046188 -1.33E+00
   215 Broy./Diag. 0.40E+00   23.1     1.14627979     -1076.8064716633 -1.97E+00
   216 Broy./Diag. 0.40E+00   21.4     1.11481273     -1074.7466085237  2.06E+00
   217 Broy./Diag. 0.40E+00   23.1     1.15327866     -1077.7792203852 -3.03E+00
   218 Broy./Diag. 0.40E+00   23.5     1.58211648     -1078.5899063525 -8.11E-01
   219 Broy./Diag. 0.40E+00   22.8     1.62167043     -1078.0279354226  5.62E-01
   220 Broy./Diag. 0.40E+00   23.4     0.71150637     -1076.1060385568  1.92E+00
   221 Broy./Diag. 0.40E+00   23.7     1.61307281     -1074.5377924239  1.57E+00
   222 Broy./Diag. 0.40E+00   24.6     1.65970166     -1078.4908240254 -3.95E+00
   223 Broy./Diag. 0.40E+00   23.9     0.93671356     -1074.8887321671  3.60E+00
   224 Broy./Diag. 0.40E+00   23.7     1.14248653     -1077.8636808495 -2.97E+00
   225 Broy./Diag. 0.40E+00   24.0     1.15662541     -1077.7723749815  9.13E-02
   226 Broy./Diag. 0.40E+00   24.2     0.97361336     -1075.3028900106  2.47E+00
   227 Broy./Diag. 0.40E+00   24.2     1.55997047     -1077.6386857648 -2.34E+00
   228 Broy./Diag. 0.40E+00   23.7     0.96734757     -1079.0518202450 -1.41E+00
   229 Broy./Diag. 0.40E+00   22.7     1.54048139     -1077.8664984087  1.19E+00
   230 Broy./Diag. 0.40E+00   22.1     1.20540990     -1078.6819511185 -8.15E-01
   231 Broy./Diag. 0.40E+00   23.8     1.26871084     -1074.9689203697  3.71E+00
   232 Broy./Diag. 0.40E+00   23.6     1.31022647     -1077.0470738179 -2.08E+00
   233 Broy./Diag. 0.40E+00   23.7     0.95426725     -1075.5962542967  1.45E+00
   234 Broy./Diag. 0.40E+00   24.0     1.16727480     -1074.5753013337  1.02E+00
   235 Broy./Diag. 0.40E+00   23.1     1.14329554     -1077.7198696134 -3.14E+00
   236 Broy./Diag. 0.40E+00   23.7     0.87786547     -1075.9553562013  1.76E+00
   237 Broy./Diag. 0.40E+00   23.5     0.96901411     -1077.1062495651 -1.15E+00
   238 Broy./Diag. 0.40E+00   23.8     1.63281248     -1074.9669752820  2.14E+00
   239 Broy./Diag. 0.40E+00   24.6     1.63224841     -1078.6568062329 -3.69E+00
   240 Broy./Diag. 0.40E+00   21.9     1.14589682     -1077.5177460651  1.14E+00
   241 Broy./Diag. 0.40E+00   24.1     1.10567449     -1075.4951083513  2.02E+00
   242 Broy./Diag. 0.40E+00   23.4     1.13609854     -1077.0951967717 -1.60E+00
   243 Broy./Diag. 0.40E+00   23.0     0.70251785     -1075.5855627809  1.51E+00
   244 Broy./Diag. 0.40E+00   22.3     1.21780800     -1074.6091893059  9.76E-01
   245 Broy./Diag. 0.40E+00   23.2     1.36261858     -1080.8117272094 -6.20E+00
   246 Broy./Diag. 0.40E+00   22.8     1.12373385     -1077.6912317073  3.12E+00
   247 Broy./Diag. 0.40E+00   21.3     1.27661969     -1078.5981197770 -9.07E-01
   248 Broy./Diag. 0.40E+00   23.2     1.62331145     -1076.9770379143  1.62E+00
   249 Broy./Diag. 0.40E+00   23.7     1.75653343     -1078.1352888876 -1.16E+00
   250 Broy./Diag. 0.40E+00   23.3     1.52334366     -1078.2843502371 -1.49E-01
   251 Broy./Diag. 0.40E+00   23.7     1.18840594     -1073.8265457792  4.46E+00
   252 Broy./Diag. 0.40E+00   23.8     1.11033902     -1077.4599149616 -3.63E+00
   253 Broy./Diag. 0.40E+00   23.3     1.13618862     -1077.0219925064  4.38E-01
   254 Broy./Diag. 0.40E+00   23.7     0.61743245     -1074.5756975900  2.45E+00
   255 Broy./Diag. 0.40E+00   23.5     1.53959695     -1075.7355596188 -1.16E+00
   256 Broy./Diag. 0.40E+00   23.4     1.53207026     -1077.5277564295 -1.79E+00
   257 Broy./Diag. 0.40E+00   23.8     0.99124584     -1077.4148837902  1.13E-01
   258 Broy./Diag. 0.40E+00   22.1     1.15017811     -1075.3651439608  2.05E+00
   259 Broy./Diag. 0.40E+00   24.0     1.15924354     -1077.5091311513 -2.14E+00
   260 Broy./Diag. 0.40E+00   22.4     1.13401535     -1077.5856383695 -7.65E-02
   261 Broy./Diag. 0.40E+00   22.8     1.14402795     -1076.8873812101  6.98E-01
   262 Broy./Diag. 0.40E+00   23.6     1.17070090     -1075.1730906238  1.71E+00
   263 Broy./Diag. 0.40E+00   22.3     1.63094272     -1078.0584913440 -2.89E+00
   264 Broy./Diag. 0.40E+00   22.6     1.63424061     -1077.6002573229  4.58E-01
   265 Broy./Diag. 0.40E+00   23.6     1.14474424     -1074.8359549552  2.76E+00
   266 Broy./Diag. 0.40E+00   24.0     1.14389921     -1078.3014448239 -3.47E+00
   267 Broy./Diag. 0.40E+00   24.4     0.31345671     -1075.8986839113  2.40E+00
   268 Broy./Diag. 0.40E+00   23.7     0.28088412     -1075.1228754310  7.76E-01
   269 Broy./Diag. 0.40E+00   23.8     0.98783812     -1075.0205740187  1.02E-01
   270 Broy./Diag. 0.40E+00   23.7     1.23335386     -1077.9835639738 -2.96E+00
   271 Broy./Diag. 0.40E+00   23.1     1.14414884     -1077.7843400615  1.99E-01
   272 Broy./Diag. 0.40E+00   23.7     1.14673138     -1075.3077676688  2.48E+00
   273 Broy./Diag. 0.40E+00   23.4     1.68464753     -1079.9086400005 -4.60E+00
   274 Broy./Diag. 0.40E+00   23.5     1.71481694     -1078.1799777586  1.73E+00
   275 Broy./Diag. 0.40E+00   23.7     1.18264597     -1077.4689322744  7.11E-01
   276 Broy./Diag. 0.40E+00   23.7     1.15378494     -1076.1365933209  1.33E+00
   277 Broy./Diag. 0.40E+00   24.8     0.83532753     -1076.6755558102 -5.39E-01
   278 Broy./Diag. 0.40E+00   21.6     0.35878373     -1074.6638345166  2.01E+00
   279 Broy./Diag. 0.40E+00   23.5     0.98291925     -1075.3822429289 -7.18E-01
   280 Broy./Diag. 0.40E+00   23.0     1.14631001     -1077.8678957866 -2.49E+00
   281 Broy./Diag. 0.40E+00   22.9     1.15141391     -1077.3612996053  5.07E-01
   282 Broy./Diag. 0.40E+00   21.3     1.14235355     -1075.3680602915  1.99E+00
   283 Broy./Diag. 0.40E+00   23.4     1.62461533     -1077.4731065431 -2.11E+00
   284 Broy./Diag. 0.40E+00   24.5     1.71215464     -1078.5396666449 -1.07E+00
   285 Broy./Diag. 0.40E+00   24.1     1.23980708     -1077.0302031833  1.51E+00
   286 Broy./Diag. 0.40E+00   23.8     1.32128473     -1076.5496958292  4.81E-01
   287 Broy./Diag. 0.40E+00   24.3     1.15013938     -1074.4182571044  2.13E+00
   288 Broy./Diag. 0.40E+00   22.7     1.17212410     -1079.1150910273 -4.70E+00
   289 Broy./Diag. 0.40E+00   24.4     0.98961859     -1075.5638140915  3.55E+00
   290 Broy./Diag. 0.40E+00   22.9     1.14360379     -1077.5294384181 -1.97E+00
   291 Broy./Diag. 0.40E+00   22.4     1.07193748     -1077.0508287809  4.79E-01
   292 Broy./Diag. 0.40E+00   21.5     1.14772495     -1078.0736441195 -1.02E+00
   293 Broy./Diag. 0.40E+00   23.9     1.59290574     -1075.8086239638  2.27E+00
   294 Broy./Diag. 0.40E+00   23.8     1.64390369     -1076.8097942682 -1.00E+00
   295 Broy./Diag. 0.40E+00   23.4     1.12769418     -1075.3629649670  1.45E+00
   296 Broy./Diag. 0.40E+00   23.8     1.62557577     -1077.7388093736 -2.38E+00
   297 Broy./Diag. 0.40E+00   23.8     1.58736602     -1077.5802914446  1.59E-01
   298 Broy./Diag. 0.40E+00   24.4     1.15777818     -1074.7130037600  2.87E+00
   299 Broy./Diag. 0.40E+00   24.2     1.14417743     -1079.4987667644 -4.79E+00
   300 Broy./Diag. 0.40E+00   22.7     1.05379734     -1078.2030565421  1.30E+00

  Leaving inner SCF loop after reaching   300 steps.


  Electronic density on regular grids:       -512.0001712997       -0.0001712997
  Core density on regular grids:              512.0000687087        0.0000687087
  Total charge density on r-space grids:       -0.0001025911
  Total charge density g-space grids:          -0.0001025911

  Overlap energy of the core charge distribution:               0.00000000000000
  Self energy of the core charge distribution:              -2838.21791979120962
  Core Hamiltonian energy:                                    758.12961946210578
  Hartree energy:                                            1240.57584576235604
  Exchange-correlation energy:                               -238.69060197531451

  Total energy:                                             -1078.20305654206231

 *** WARNING in qs_scf.F:542 :: SCF run NOT converged ***


 ENERGY| Total FORCE_EVAL ( QS ) energy (a.u.):            -1076.038133355426226


 ATOMIC FORCES in [a.u.]

 # Atom   Kind   Element          X              Y              Z
      1      1      O           0.03014784    -0.03415525     0.09765542
      2      2      H          -0.00714914     0.05014445     0.07019550
      3      2      H          -0.00321266    -0.03068507    -0.09504816
      4      1      O           0.05316155     0.00394685    -0.00830250
      5      2      H          -0.08325194    -0.05090273    -0.00808363
      6      2      H           0.00766497     0.03366882     0.01053525
      7      1      O           0.01922124    -0.06287131    -0.02471903
      8      2      H           0.03235800     0.06267243     0.02652730
      9      2      H          -0.06382576    -0.04548128     0.02613944
     10      1      O           0.08663968    -0.04406984     0.14774396
     11      2      H          -0.01213920     0.02597648    -0.06060729
     12      2      H          -0.04544319    -0.08290540    -0.04285092
     13      1      O           0.06254412    -0.03626971     0.10305748
     14      2      H           0.01343039     0.07833921    -0.09962181
     15      2      H          -0.08373022     0.03069769     0.01372911
     16      1      O          -0.10050800     0.05564693     0.03180731
     17      2      H           0.04215147     0.05569632    -0.06099374
     18      2      H           0.03269536    -0.02593680     0.05716945
     19      1      O          -0.07586423     0.08979995     0.16762262
     20      2      H           0.06947633    -0.06176617     0.01010499
     21      2      H          -0.02800383     0.04991464    -0.04128876
     22      1      O           0.04285760     0.04988346     0.00334836
     23      2      H           0.05419134     0.01058491     0.06769195
     24      2      H          -0.07411072    -0.04112366    -0.06026044
     25      1      O           0.01841248    -0.05731486     0.10694543
     26      2      H           0.04775729     0.07380065     0.04820645
     27      2      H          -0.07730091     0.00600310    -0.01479180
     28      1      O           0.04984205    -0.01698444     0.03411001
     29      2      H          -0.00114441    -0.02264175    -0.09783361
     30      2      H          -0.05080621    -0.00018038     0.07853197
     31      1      O           0.00714919    -0.13748607     0.05045416
     32      2      H          -0.06328581     0.03786086     0.03903101
     33      2      H           0.04582865     0.06686450    -0.04300483
     34      1      O           0.10941723     0.09188477    -0.05093145
     35      2      H          -0.04094947     0.00540868    -0.07856919
     36      2      H          -0.06558579    -0.05230228     0.00422617
     37      1      O           0.04228739     0.06601969     0.00810814
     38      2      H           0.04059223    -0.03996451    -0.08717050
     39      2      H          -0.06411333    -0.00376413     0.00955680
     40      1      O           0.06347595     0.06400613    -0.12722015
     41      2      H          -0.09801231     0.00287687     0.03645705
     42      2      H           0.01231089    -0.07448611    -0.04586668
     43      1      O          -0.10286350    -0.03693448    -0.10887176
     44      2      H           0.07056772     0.02987424    -0.01478902
     45      2      H           0.02432307    -0.05327091     0.01539069
     46      1      O          -0.03781285    -0.02819951     0.12325232
     47      2      H          -0.03673800     0.00875590    -0.10353948
     48      2      H           0.02775229    -0.02990061     0.03532158
     49      1      O           0.00944763    -0.00342435     0.11708392
     50      2      H           0.03581728    -0.02450624    -0.04587270
     51      2      H          -0.02685902     0.05208920    -0.00216752
     52      1      O          -0.06740988     0.09050817    -0.07916117
     53      2      H           0.07735093     0.00370349     0.02039780
     54      2      H           0.00733705     0.03315713     0.09893608
     55      1      O           0.06119156    -0.00132999    -0.02425115
     56      2      H          -0.08110415    -0.02827213     0.07075239
     57      2      H           0.04631477     0.01770838     0.08142895
     58      1      O          -0.01385835     0.10510318    -0.05537276
     59      2      H          -0.05629848    -0.09389022    -0.04119094
     60      2      H           0.06728994     0.02035168     0.00878499
     61      1      O          -0.09568114    -0.09112844     0.05691920
     62      2      H           0.02873911     0.08544999    -0.04176214
     63      2      H           0.04927887    -0.02490726    -0.01947372
     64      1      O           0.05152433    -0.01811244    -0.11883443
     65      2      H          -0.04476124    -0.02106072     0.09629164
     66      2      H          -0.01587231    -0.04623102    -0.01994100
     67      1      O          -0.05610470     0.06131384     0.02383443
     68      2      H          -0.01558125     0.00588508    -0.06290291
     69      2      H           0.08634909     0.01154827    -0.00388626
     70      1      O           0.08588131    -0.08588057     0.11426808
     71      2      H           0.00002045     0.02109667    -0.06913544
     72      2      H          -0.09938447     0.05098110     0.06011631
     73      1      O           0.05209467    -0.11556615    -0.09303630
     74      2      H          -0.09022461    -0.01063166     0.02288286
     75      2      H           0.00944922     0.08313584    -0.00400482
     76      1      O           0.02271952    -0.12454436    -0.01653803
     77      2      H           0.02163468     0.11982862     0.01720648
     78      2      H          -0.06926981     0.01004171     0.05722297
     79      1      O          -0.02217153    -0.01092527    -0.00184458
     80      2      H           0.07923556     0.04893430    -0.07926025
     81      2      H          -0.02999507    -0.08942363    -0.01313780
     82      1      O          -0.04272464    -0.02216227    -0.01810565
     83      2      H           0.05986397     0.01265143     0.02743880
     84      2      H          -0.01532022    -0.00644622    -0.07213455
     85      1      O          -0.09120763     0.10563605     0.08687257
     86      2      H           0.04049092    -0.00123227     0.04081538
     87      2      H           0.03048699     0.01254481    -0.04143579
     88      1      O           0.03377026     0.02193924     0.00164538
     89      2      H          -0.03312828    -0.10323750    -0.01816200
     90      2      H          -0.03378607     0.01615877     0.05288268
     91      1      O           0.00777945     0.03151001    -0.06580543
     92      2      H           0.01307541    -0.02407444     0.08887607
     93      2      H          -0.00848392    -0.04192284    -0.08762970
     94      1      O          -0.06803462    -0.02472338     0.10059659
     95      2      H           0.07054906     0.01915393     0.06690325
     96      2      H           0.01261609     0.00240229    -0.10148268
     97      1      O           0.04109433    -0.05390654    -0.08820474
     98      2      H           0.02930254     0.07376999    -0.03994707
     99      2      H          -0.07110522     0.00093992     0.07405536
    100      1      O           0.01663012     0.00738453    -0.00007665
    101      2      H          -0.06726547     0.04600570     0.01734903
    102      2      H           0.02024148    -0.03868075    -0.04103218
    103      1      O           0.04720101    -0.13188293    -0.02572992
    104      2      H          -0.04266882     0.08259710     0.01563467
    105      2      H           0.02400177    -0.01615135     0.09812821
    106      1      O           0.03203662    -0.06357209     0.03365367
    107      2      H          -0.06179867     0.01469804    -0.03468157
    108      2      H           0.05313232     0.04857176    -0.00744238
    109      1      O           0.05320591    -0.02242671     0.00126909
    110      2      H          -0.02368098    -0.04877103    -0.07035933
    111      2      H          -0.06782065     0.08909666    -0.00055451
    112      1      O          -0.04748931     0.08479524    -0.00950963
    113      2      H           0.00450363    -0.05773975    -0.09649239
    114      2      H           0.03351450     0.04154657     0.01874078
    115      1      O           0.03088011    -0.02337068    -0.05094946
    116      2      H           0.04311268     0.01743110    -0.03569848
    117      2      H          -0.05612040     0.05880542     0.03370119
    118      1      O           0.01964176     0.08318890    -0.10696798
    119      2      H          -0.02932999     0.02162826     0.09456581
    120      2      H          -0.01662462    -0.10599951     0.03336020
    121      1      O          -0.05098215    -0.03222517     0.17057715
    122      2      H          -0.02148450     0.05276847    -0.06228358
    123      2      H           0.04000537    -0.01948494    -0.04718246
    124      1      O          -0.06575977     0.06685825     0.09187935
    125      2      H           0.06320620     0.03817489    -0.06051019
    126      2      H           0.02426018    -0.02703749     0.04436202
    127      1      O           0.00390911    -0.03408284     0.10322134
    128      2      H           0.03909798     0.07297651    -0.01834851
    129      2      H          -0.06442561     0.02682348     0.05040679
    130      1      O           0.03450461    -0.03036291     0.02451255
    131      2      H          -0.01567907    -0.00457920    -0.01835296
    132      2      H          -0.04321101    -0.02797909     0.02054349
    133      1      O          -0.09550666    -0.04517095    -0.05454730
    134      2      H           0.00394190     0.08749667     0.00427835
    135      2      H           0.04428481    -0.02776901     0.07526720
    136      1      O           0.09056475     0.03479168    -0.06656988
    137      2      H          -0.04064328    -0.05132657     0.13029960
    138      2      H          -0.04474727    -0.02762039    -0.06358034
    139      1      O           0.00427745    -0.07071985     0.08013456
    140      2      H           0.03781115     0.05009234     0.07579588
    141      2      H          -0.09485119     0.02924837    -0.00847312
    142      1      O           0.03054784     0.04759302     0.01391489
    143      2      H          -0.01382843    -0.06838026    -0.02382286
    144      2      H          -0.00827305     0.01319153     0.08796257
    145      1      O          -0.00263358    -0.05211167    -0.05981763
    146      2      H          -0.05505962     0.02357643     0.01035623
    147      2      H           0.06015563     0.05262645    -0.00218940
    148      1      O           0.10293360     0.07372162     0.10723475
    149      2      H          -0.05345244     0.02941692    -0.02810006
    150      2      H          -0.03896194    -0.08311878     0.01062657
    151      1      O          -0.02289367    -0.04770824    -0.00023278
    152      2      H          -0.01706425     0.01413350     0.09962709
    153      2      H           0.07673004    -0.04585679    -0.05905502
    154      1      O          -0.06111204    -0.02019073     0.04022975
    155      2      H           0.06667209    -0.03146109     0.09925308
    156      2      H           0.00451466     0.06196861    -0.05183791
    157      1      O           0.06749180    -0.04850793     0.07908993
    158      2      H          -0.02326498     0.06169803     0.05250763
    159      2      H          -0.05553133    -0.04742051    -0.02241424
    160      1      O           0.05063531    -0.02179185    -0.01142976
    161      2      H           0.00594247     0.02045832    -0.05029153
    162      2      H          -0.04580311    -0.05275740     0.01188250
    163      1      O          -0.04311041    -0.04837338    -0.16463183
    164      2      H           0.05716522     0.00011246     0.00512450
    165      2      H          -0.01580539    -0.04422803     0.03546439
    166      1      O          -0.00247505     0.01779916     0.04874291
    167      2      H          -0.02580765     0.06631370    -0.02444480
    168      2      H          -0.00860183    -0.06347803    -0.08884028
    169      1      O          -0.00299168    -0.00580561    -0.01438015
    170      2      H          -0.02629915    -0.04934072     0.04326368
    171      2      H           0.01888921     0.06457519    -0.00462596
    172      1      O           0.07018520    -0.11147003    -0.01782783
    173      2      H          -0.07799059    -0.02354120    -0.01202200
    174      2      H           0.03416289     0.04821062    -0.00700162
    175      1      O          -0.00694304     0.06807531    -0.07627225
    176      2      H          -0.00020663    -0.02233076     0.02021086
    177      2      H          -0.03024664     0.00484001     0.08332718
    178      1      O           0.00043049    -0.09891838    -0.03393966
    179      2      H           0.02423399     0.01167137     0.01244568
    180      2      H          -0.04683419     0.04403005     0.04605678
    181      1      O          -0.06014600    -0.05760303    -0.05113945
    182      2      H          -0.01081699     0.02664679     0.00112838
    183      2      H           0.08844288    -0.02802678     0.00013798
    184      1      O           0.03336441    -0.03408119    -0.00923820
    185      2      H           0.04304180     0.04469862    -0.00527384
    186      2      H          -0.07305236     0.04076055     0.01929830
    187      1      O          -0.02580774    -0.08695289    -0.11393005
    188      2      H           0.04807029    -0.01817596     0.06357414
    189      2      H          -0.04139360     0.08686633    -0.00026969
    190      1      O           0.06956394     0.09740884    -0.08532506
    191      2      H           0.01364094    -0.08127339    -0.09758671
    192      2      H          -0.06904999     0.02215981     0.07705483
 SUM OF ATOMIC FORCES          -0.31202346    -0.07159116     0.50099795     0.59454426

 -------------------------------------------------------------------------------
 -                                                                             -
 -                                DBCSR STATISTICS                             -
 -                                                                             -
 -------------------------------------------------------------------------------
 COUNTER                                    TOTAL       BLAS       SMM       ACC
 flops     5 x     5 x   256           3744921600       0.0%    100.0%      0.0%
 flops    13 x     5 x   256           4357516800       0.0%    100.0%      0.0%
 flops     5 x    13 x   256           4457689600       0.0%    100.0%      0.0%
 flops    13 x    13 x   256           6459142144       0.0%    100.0%      0.0%
 flops inhomo. stacks                           0       0.0%      0.0%      0.0%
 flops total                        19.019270E+09       0.0%    100.0%      0.0%
 flops max/rank                     19.019270E+09       0.0%    100.0%      0.0%
 matmuls inhomo. stacks                         0       0.0%      0.0%      0.0%
 matmuls total                             632100       0.0%    100.0%      0.0%
 number of processed stacks                 42140       0.0%    100.0%      0.0%
 average stack size                                     0.0      15.0       0.0
 marketing flops                   333.927416E+09
 -------------------------------------------------------------------------------
 # multiplications                            301
 max memory usage/rank              30.518878E+09
 # max total images/rank                        1
 # max 3D layers                                1
 # MPI messages exchanged                       0
 MPI messages size (bytes):
  total size                         0.000000E+00
  min size                           0.000000E+00
  max size                           0.000000E+00
  average size                       0.000000E+00
 MPI breakdown and total messages size (bytes):
             size <=      128                   0                        0
       128 < size <=     8192                   0                        0
      8192 < size <=    32768                   0                        0
     32768 < size <=   131072                   0                        0
    131072 < size <=  4194304                   0                        0
   4194304 < size <= 16777216                   0                        0
  16777216 < size                               0                        0
 -------------------------------------------------------------------------------

 MEMORY| Estimated peak process memory [MiB]                               29103

 -------------------------------------------------------------------------------
 -                                                                             -
 -                           R E F E R E N C E S                               -
 -                                                                             -
 -------------------------------------------------------------------------------
 
 CP2K version 7.1, the CP2K developers group (2019).
 CP2K is freely available from https://www.cp2k.org/ .

 Schuett, Ole; Messmer, Peter; Hutter, Juerg; VandeVondele, Joost. 
 Electronic Structure Calculations on Graphics Processing Units, John
 Wiley & Sons, Ltd, 173-190 (2016). 
 GPU-Accelerated Sparse Matrix-Matrix Multiplication for
 Linear Scaling Density Functional Theory.
 https://dx.doi.org/10.1002/9781118670712.ch8

 Borstnik, U; VandeVondele, J; Weber, V; Hutter, J. 
 PARALLEL COMPUTING, 40 (5-6), 47-58 (2014). 
 Sparse matrix multiplication: The distributed block-compressed sparse
 row library.
 https://dx.doi.org/10.1016/j.parco.2014.03.012

 Hutter, J; Iannuzzi, M; Schiffmann, F; VandeVondele, J. 
 WIREs Comput Mol Sci., 4 (1), 15-25 (2014). 
 CP2K: atomistic simulations of condensed matter systems.
 https://dx.doi.org/10.1002/wcms.1159

 Krack, M. 
 THEORETICAL CHEMISTRY ACCOUNTS, 114 (1-3), 145-152 (2005). 
 Pseudopotentials for H to Kr optimized for gradient-corrected
 exchange-correlation functionals.
 https://dx.doi.org/10.1007/s00214-005-0655-y

 VandeVondele, J; Krack, M; Mohamed, F; Parrinello, M; Chassaing, T;
 Hutter, J. COMPUTER PHYSICS COMMUNICATIONS, 167 (2), 103-128 (2005). 
 QUICKSTEP: Fast and accurate density functional calculations using a
 mixed Gaussian and plane waves approach.
 https://dx.doi.org/10.1016/j.cpc.2004.12.014

 Frigo, M; Johnson, SG. 
 PROCEEDINGS OF THE IEEE, 93 (2), 216-231 (2005). 
 The design and implementation of FFTW3.
 https://dx.doi.org/10.1109/JPROC.2004.840301

 Hartwigsen, C; Goedecker, S; Hutter, J. 
 PHYSICAL REVIEW B, 58 (7), 3641-3662 (1998). 
 Relativistic separable dual-space Gaussian pseudopotentials from H to Rn.
 https://dx.doi.org/10.1103/PhysRevB.58.3641

 Lippert, G; Hutter, J; Parrinello, M. 
 MOLECULAR PHYSICS, 92 (3), 477-487 (1997). 
 A hybrid Gaussian and plane wave density functional scheme.
 https://dx.doi.org/10.1080/002689797170220

 Goedecker, S; Teter, M; Hutter, J. 
 PHYSICAL REVIEW B, 54 (3), 1703-1710 (1996). 
 Separable dual-space Gaussian pseudopotentials.
 https://dx.doi.org/10.1103/PhysRevB.54.1703


 -------------------------------------------------------------------------------
 -                                                                             -
 -                                T I M I N G                                  -
 -                                                                             -
 -------------------------------------------------------------------------------
 SUBROUTINE                       CALLS  ASD         SELF TIME        TOTAL TIME
                                MAXIMUM       AVERAGE  MAXIMUM  AVERAGE  MAXIMUM
 CP2K                                 1  1.0    1.004    1.004 6974.447 6974.447
 qs_forces                            1  2.0    0.000    0.000 6963.406 6963.406
 qs_energies                          1  3.0    0.000    0.000 6959.844 6959.844
 scf_env_do_scf                       1  4.0    0.001    0.001 6948.635 6948.635
 scf_env_do_scf_inner_loop          300  5.0    0.048    0.048 6948.634 6948.634
 gspace_mixing                      299  6.0   42.168   42.168 2920.166 2920.166
 broyden_mixing                     299  7.0 2638.057 2638.057 2638.061 2638.061
 qs_scf_new_mos                     300  6.0    0.008    0.008 1937.853 1937.853
 eigensolver                        300  7.0    0.041    0.041 1905.756 1905.756
 cp_fm_syevd                        300  8.0 1272.812 1272.812 1273.896 1273.896
 pw_transfer                       3912  9.9    0.372    0.372 1117.892 1117.892
 fft_wrap_pw1pw2                   3310 10.9    0.052    0.052 1093.124 1093.124
 rebuild_ks_matrix                  301  7.0    0.001    0.001 1091.046 1091.046
 qs_ks_build_kohn_sham_matrix       301  8.0    0.095    0.095 1091.045 1091.045
 qs_ks_update_qs_env                300  6.0    0.004    0.004 1087.845 1087.845
 fft_wrap_pw1pw2_70                1504 11.2   85.664   85.664 1004.869 1004.869
 qs_rho_update_rho                  301  6.0    0.003    0.003 1004.746 1004.746
 calculate_rho_elec                 301  7.0  491.790  491.790 1004.743 1004.743
 cp_fm_cholesky_restore             900  8.0  630.750  630.750  630.750  630.750
 fft3d_s                           3311 12.9  515.142  515.142  515.168  515.168
 density_rs2pw                      301  8.0    0.030    0.030  505.602  505.602
 pw_scatter_s                      1804 13.2  409.746  409.746  409.746  409.746
 pw_poisson_solve                   301  9.0  334.608  334.608  359.355  359.355
 sum_up_and_integrate               301  9.0   18.122   18.122  287.004  287.004
 integrate_v_rspace                 301 10.0    7.842    7.842  268.882  268.882
 potential_pw2rs                    301 11.0    2.512    2.512  259.958  259.958
 qs_vxc_create                      301  9.0    0.007    0.007  161.595  161.595
 xc_vxc_pw_create                   301 10.0   42.288   42.288  161.588  161.588
 -------------------------------------------------------------------------------

 The number of warnings for this run is : 1
 
 -------------------------------------------------------------------------------
  **** **** ******  **  PROGRAM ENDED AT                 2020-05-28 21:09:17.830
 ***** ** ***  *** **   PROGRAM RAN ON                                   gnode44
 **    ****   ******    PROGRAM RAN BY                               mayank.modi
 ***** **    ** ** **   PROGRAM PROCESS ID                                 19585
  **** **  *******  **  PROGRAM STOPPED IN /home/mayank.modi/ab-initio-thermodyn
                                           amics-of-water/mayank/cp2k_energy_cal
                                           culations
