 DBCSR| CPU Multiplication driver                                           XSMM
 DBCSR| Multrec recursion limit                                              512
 DBCSR| Multiplication stack size                                           1000
 DBCSR| Maximum elements for images                                    UNLIMITED
 DBCSR| Multiplicative factor virtual images                                   1
 DBCSR| Use multiplication densification                                       T
 DBCSR| Multiplication size stacks                                             3


  **** **** ******  **  PROGRAM STARTED AT               2020-05-28 21:09:17.877
 ***** ** ***  *** **   PROGRAM STARTED ON                               gnode44
 **    ****   ******    PROGRAM STARTED BY                           mayank.modi
 ***** **    ** ** **   PROGRAM PROCESS ID                                 20882
  **** **  *******  **  PROGRAM STARTED IN /home/mayank.modi/ab-initio-thermodyn
                                           amics-of-water/mayank/cp2k_energy_cal
                                           culations

 CP2K| version string:                                          CP2K version 7.1
 CP2K| source code revision number:                                  git:e635599
 CP2K| cp2kflags: omp libint fftw3 libxc xsmm spglib                            
 CP2K| is freely available from                            https://www.cp2k.org/
 CP2K| Program compiled at                          Mon Dec 23 19:23:12 CET 2019
 CP2K| Program compiled on                                                pc9404
 CP2K| Program compiled for                                Linux-x86-64-gfortran
 CP2K| Data directory path                                        /opt/cp2k/data
 CP2K| Input file name                                 input_training/input27.in

 GLOBAL| Force Environment number                                              1
 GLOBAL| Basis set file name                                           BASIS_SET
 GLOBAL| Potential file name                                      GTH_POTENTIALS
 GLOBAL| MM Potential file name                                     MM_POTENTIAL
 GLOBAL| Coordinate file name                                      __STD_INPUT__
 GLOBAL| Method name                                                        CP2K
 GLOBAL| Project name                                                   H2O_bulk
 GLOBAL| Preferred FFT library                                             FFTW3
 GLOBAL| Preferred diagonalization lib.                                       SL
 GLOBAL| Run type                                                   ENERGY_FORCE
 GLOBAL| All-to-all communication in single precision                          F
 GLOBAL| FFTs using library dependent lengths                                  F
 GLOBAL| Global print level                                                  LOW
 GLOBAL| MPI I/O enabled                                                       T
 GLOBAL| Total number of message passing processes                             1
 GLOBAL| Number of threads for this process                                   36
 GLOBAL| This output is from process                                           0
 GLOBAL| CPU model name                Intel(R) Xeon(R) CPU E5-2640 v4 @ 2.40GHz
 GLOBAL| CPUID                                                              1002
 GLOBAL| Compiled for CPUID                                                    0

 MEMORY| system memory details [Kb]
 MEMORY|                        rank 0           min           max       average
 MEMORY| MemTotal            131893056     131893056     131893056     131893056
 MEMORY| MemFree             121132208     121132208     121132208     121132208
 MEMORY| Buffers               2119828       2119828       2119828       2119828
 MEMORY| Cached                3080272       3080272       3080272       3080272
 MEMORY| Slab                  3302728       3302728       3302728       3302728
 MEMORY| SReclaimable          3100760       3100760       3100760       3100760
 MEMORY| MemLikelyFree       129433068     129433068     129433068     129433068


 GENERATE|  Preliminary Number of Bonds generated:                             0
 GENERATE|  Achieved consistency in connectivity generation.

 *******************************************************************************
 *******************************************************************************
 **                                                                           **
 **     #####                         ##              ##                      **
 **    ##   ##            ##          ##              ##                      **
 **   ##     ##                       ##            ######                    **
 **   ##     ##  ##   ##  ##   #####  ##  ##   ####   ##    #####    #####    **
 **   ##     ##  ##   ##  ##  ##      ## ##   ##      ##   ##   ##  ##   ##   **
 **   ##  ## ##  ##   ##  ##  ##      ####     ###    ##   ######   ######    **
 **    ##  ###   ##   ##  ##  ##      ## ##      ##   ##   ##       ##        **
 **     #######   #####   ##   #####  ##  ##  ####    ##    #####   ##        **
 **           ##                                                    ##        **
 **                                                                           **
 **                                                ... make the atoms dance   **
 **                                                                           **
 **            Copyright (C) by CP2K developers group (2000 - 2019)           **
 **                                                                           **
 *******************************************************************************


 TOTAL NUMBERS AND MAXIMUM NUMBERS

  Total number of            - Atomic kinds:                                   2
                             - Atoms:                                        192
                             - Shell sets:                                   384
                             - Shells:                                       704
                             - Primitive Cartesian functions:                960
                             - Cartesian basis functions:                   1536
                             - Spherical basis functions:                   1472

  Maximum angular momentum of- Orbital basis functions:                        2
                             - Local part of the GTH pseudopotential:          2
                             - Non-local part of the GTH pseudopotential:      0


 SCF PARAMETERS         Density guess:                                    ATOMIC
                        --------------------------------------------------------
                        max_scf:                                             300
                        max_scf_history:                                       0
                        max_diis:                                              4
                        --------------------------------------------------------
                        eps_scf:                                        1.00E-07
                        eps_scf_history:                                0.00E+00
                        eps_diis:                                       1.00E-01
                        eps_eigval:                                     1.00E-05
                        --------------------------------------------------------
                        level_shift [a.u.]:                                 0.00
                        --------------------------------------------------------
                        Mixing method:                            BROYDEN_MIXING
                                                charge density mixing in g-space
                        --------------------------------------------------------
                        No outer SCF

 Number of electrons:                                                        512
 Number of occupied orbitals:                                                256
 Number of molecular orbitals:                                               256

 Number of orbital functions:                                               1472
 Number of independent orbital functions:                                   1472

 Extrapolation method: initial_guess


 SCF WAVEFUNCTION OPTIMIZATION

  Step     Update method      Time    Convergence         Total energy    Change
  ------------------------------------------------------------------------------
     1 NoMix/Diag. 0.40E+00   10.1     0.68612095     -1063.9028802190 -1.06E+03
     2 Broy./Diag. 0.40E+00   15.1     1.90127414      -992.6567669774  7.12E+01
     3 Broy./Diag. 0.40E+00   17.0     1.90206654     -1274.4639564462 -2.82E+02
     4 Broy./Diag. 0.40E+00   17.8     1.80592444     -1126.9843910055  1.47E+02
     5 Broy./Diag. 0.40E+00   18.8     1.91181530     -1100.2704539710  2.67E+01
     6 Broy./Diag. 0.40E+00   18.8     1.80138769     -1106.8383892511 -6.57E+00
     7 Broy./Diag. 0.40E+00   19.8     1.81926264     -1101.4347039634  5.40E+00
     8 Broy./Diag. 0.40E+00   21.1     1.83267628     -1087.9803908944  1.35E+01
     9 Broy./Diag. 0.40E+00   23.0     1.77540843     -1090.2251788574 -2.24E+00
    10 Broy./Diag. 0.40E+00   23.5     1.66964133     -1076.6032924316  1.36E+01
    11 Broy./Diag. 0.40E+00   22.1     1.77634838     -1074.1187599233  2.48E+00
    12 Broy./Diag. 0.40E+00   23.3     1.87430244     -1079.9934747802 -5.87E+00
    13 Broy./Diag. 0.40E+00   22.7     1.63630473     -1067.2890140483  1.27E+01
    14 Broy./Diag. 0.40E+00   23.3     1.63652276     -1079.6900493161 -1.24E+01
    15 Broy./Diag. 0.40E+00   23.5     1.71201090     -1072.7268113119  6.96E+00
    16 Broy./Diag. 0.40E+00   23.5     1.76712298     -1082.4485975227 -9.72E+00
    17 Broy./Diag. 0.40E+00   24.0     1.78102476     -1070.7990141131  1.16E+01
    18 Broy./Diag. 0.40E+00   23.2     1.74871508     -1070.9043146690 -1.05E-01
    19 Broy./Diag. 0.40E+00   23.3     1.78993310     -1084.0914260900 -1.32E+01
    20 Broy./Diag. 0.40E+00   23.7     1.75894019     -1078.1725950936  5.92E+00
    21 Broy./Diag. 0.40E+00   23.6     1.84714527     -1076.6795886090  1.49E+00
    22 Broy./Diag. 0.40E+00   23.2     1.45308707     -1070.7165501536  5.96E+00
    23 Broy./Diag. 0.40E+00   23.5     1.56835027     -1070.4444837174  2.72E-01
    24 Broy./Diag. 0.40E+00   22.8     1.57697334     -1078.8151904810 -8.37E+00
    25 Broy./Diag. 0.40E+00   23.4     1.70335546     -1074.5849836288  4.23E+00
    26 Broy./Diag. 0.40E+00   22.9     1.79757014     -1073.0995788067  1.49E+00
    27 Broy./Diag. 0.40E+00   22.0     1.80819382     -1075.1326526321 -2.03E+00
    28 Broy./Diag. 0.40E+00   24.2     1.71677583     -1074.9286861422  2.04E-01
    29 Broy./Diag. 0.40E+00   24.0     1.76201407     -1080.1233794767 -5.19E+00
    30 Broy./Diag. 0.40E+00   22.8     1.76260501     -1074.8612647260  5.26E+00
    31 Broy./Diag. 0.40E+00   23.3     1.84254445     -1076.3481647173 -1.49E+00
    32 Broy./Diag. 0.40E+00   23.5     1.81638127     -1078.3694680651 -2.02E+00
    33 Broy./Diag. 0.40E+00   24.1     1.53753590     -1072.8179404199  5.55E+00
    34 Broy./Diag. 0.40E+00   23.7     1.73203608     -1074.7446122164 -1.93E+00
    35 Broy./Diag. 0.40E+00   22.3     1.75220446     -1076.4022145564 -1.66E+00
    36 Broy./Diag. 0.40E+00   23.9     1.57158820     -1075.8062456553  5.96E-01
    37 Broy./Diag. 0.40E+00   22.2     1.76015941     -1073.5206902943  2.29E+00
    38 Broy./Diag. 0.40E+00   23.2     1.80961105     -1078.5830242289 -5.06E+00
    39 Broy./Diag. 0.40E+00   23.5     1.82648585     -1070.6705865040  7.91E+00
    40 Broy./Diag. 0.40E+00   22.9     1.85768958     -1078.9637770990 -8.29E+00
    41 Broy./Diag. 0.40E+00   23.5     1.73977234     -1075.8873208987  3.08E+00
    42 Broy./Diag. 0.40E+00   24.4     1.71445373     -1077.2516603210 -1.36E+00
    43 Broy./Diag. 0.40E+00   24.7     1.60249548     -1076.0656494471  1.19E+00
    44 Broy./Diag. 0.40E+00   23.7     1.77739343     -1075.4095124682  6.56E-01
    45 Broy./Diag. 0.40E+00   23.6     1.76809729     -1075.5452099237 -1.36E-01
    46 Broy./Diag. 0.40E+00   23.6     1.71150937     -1075.1310816470  4.14E-01
    47 Broy./Diag. 0.40E+00   23.5     1.80097311     -1076.6086406186 -1.48E+00
    48 Broy./Diag. 0.40E+00   23.6     1.78632807     -1077.1416757679 -5.33E-01
    49 Broy./Diag. 0.40E+00   22.5     1.81146266     -1073.5043113224  3.64E+00
    50 Broy./Diag. 0.40E+00   21.9     1.79159033     -1075.2013774226 -1.70E+00
    51 Broy./Diag. 0.40E+00   21.1     1.70035533     -1071.9744165204  3.23E+00
    52 Broy./Diag. 0.40E+00   21.4     1.64271177     -1080.7814517932 -8.81E+00
    53 Broy./Diag. 0.40E+00   23.1     1.70630356     -1072.7057855623  8.08E+00
    54 Broy./Diag. 0.40E+00   23.6     1.72070327     -1080.8533646270 -8.15E+00
    55 Broy./Diag. 0.40E+00   23.5     1.78192811     -1075.0391018232  5.81E+00
    56 Broy./Diag. 0.40E+00   23.1     1.84766358     -1073.3069426762  1.73E+00
    57 Broy./Diag. 0.40E+00   24.2     1.60489985     -1074.1983910549 -8.91E-01
    58 Broy./Diag. 0.40E+00   24.0     1.74391447     -1074.9938283713 -7.95E-01
    59 Broy./Diag. 0.40E+00   24.4     1.83130144     -1080.4748574121 -5.48E+00
    60 Broy./Diag. 0.40E+00   21.9     1.71087093     -1077.7483406821  2.73E+00
    61 Broy./Diag. 0.40E+00   22.6     1.70420903     -1073.6503860159  4.10E+00
    62 Broy./Diag. 0.40E+00   22.6     1.73393230     -1079.1722938526 -5.52E+00
    63 Broy./Diag. 0.40E+00   23.5     1.77539445     -1076.0369143779  3.14E+00
    64 Broy./Diag. 0.40E+00   23.7     1.64921456     -1075.9987393127  3.82E-02
    65 Broy./Diag. 0.40E+00   24.1     1.77703766     -1076.1763023444 -1.78E-01
    66 Broy./Diag. 0.40E+00   22.1     1.85444393     -1073.3426956939  2.83E+00
    67 Broy./Diag. 0.40E+00   23.4     1.71621880     -1074.6158610577 -1.27E+00
    68 Broy./Diag. 0.40E+00   24.1     1.72098435     -1079.8764879694 -5.26E+00
    69 Broy./Diag. 0.40E+00   22.6     1.74334217     -1073.8394016008  6.04E+00
    70 Broy./Diag. 0.40E+00   21.9     1.80028682     -1074.6742780583 -8.35E-01
    71 Broy./Diag. 0.40E+00   22.5     1.79102179     -1074.2814756292  3.93E-01
    72 Broy./Diag. 0.40E+00   23.4     1.69314797     -1074.6937234779 -4.12E-01
    73 Broy./Diag. 0.40E+00   23.6     1.72107693     -1078.8917827875 -4.20E+00
    74 Broy./Diag. 0.40E+00   23.4     1.71462540     -1073.3090502197  5.58E+00
    75 Broy./Diag. 0.40E+00   22.5     1.77335179     -1074.8472925045 -1.54E+00
    76 Broy./Diag. 0.40E+00   21.5     1.77917777     -1079.3935606869 -4.55E+00
    77 Broy./Diag. 0.40E+00   22.6     1.77522088     -1078.8151597010  5.78E-01
    78 Broy./Diag. 0.40E+00   23.4     1.81959750     -1072.8964270489  5.92E+00
    79 Broy./Diag. 0.40E+00   23.1     1.80529139     -1078.6815893234 -5.79E+00
    80 Broy./Diag. 0.40E+00   23.6     1.69005214     -1080.0468390838 -1.37E+00
    81 Broy./Diag. 0.40E+00   23.6     1.31161076     -1069.2188903426  1.08E+01
    82 Broy./Diag. 0.40E+00   22.9     1.72977160     -1070.4138919757 -1.20E+00
    83 Broy./Diag. 0.40E+00   23.3     1.77610907     -1081.0237489045 -1.06E+01
    84 Broy./Diag. 0.40E+00   22.8     1.77161481     -1074.3188025610  6.70E+00
    85 Broy./Diag. 0.40E+00   21.4     1.79639517     -1079.9918175505 -5.67E+00
    86 Broy./Diag. 0.40E+00   22.7     1.79727287     -1081.4453730360 -1.45E+00
    87 Broy./Diag. 0.40E+00   24.5     1.82106458     -1077.1857887986  4.26E+00
    88 Broy./Diag. 0.40E+00   23.7     1.83262944     -1077.6496153589 -4.64E-01
    89 Broy./Diag. 0.40E+00   23.9     1.63160843     -1073.4387784360  4.21E+00
    90 Broy./Diag. 0.40E+00   23.7     1.64413762     -1072.8034379512  6.35E-01
    91 Broy./Diag. 0.40E+00   22.0     1.59718295     -1072.3461522420  4.57E-01
    92 Broy./Diag. 0.40E+00   21.7     1.78453888     -1078.2027203890 -5.86E+00
    93 Broy./Diag. 0.40E+00   24.1     1.82111868     -1073.0841128280  5.12E+00
    94 Broy./Diag. 0.40E+00   23.1     1.70704328     -1074.5641219655 -1.48E+00
    95 Broy./Diag. 0.40E+00   22.5     1.59285657     -1077.3498015469 -2.79E+00
    96 Broy./Diag. 0.40E+00   23.2     1.76141205     -1075.7248421139  1.62E+00
    97 Broy./Diag. 0.40E+00   25.0     1.84185675     -1077.1293041102 -1.40E+00
    98 Broy./Diag. 0.40E+00   23.8     1.76710611     -1073.9152667586  3.21E+00
    99 Broy./Diag. 0.40E+00   24.2     1.57091033     -1073.5337174991  3.82E-01
   100 Broy./Diag. 0.40E+00   24.5     1.75549810     -1074.1409900055 -6.07E-01
   101 Broy./Diag. 0.40E+00   21.9     1.81051914     -1078.9009239674 -4.76E+00
   102 Broy./Diag. 0.40E+00   22.2     1.58013593     -1073.7484785756  5.15E+00
   103 Broy./Diag. 0.40E+00   21.6     1.75457114     -1074.9093143308 -1.16E+00
   104 Broy./Diag. 0.40E+00   21.3     1.80242916     -1072.2318913318  2.68E+00
   105 Broy./Diag. 0.40E+00   23.7     1.79193165     -1082.6889615340 -1.05E+01
   106 Broy./Diag. 0.40E+00   25.0     1.83937539     -1077.2709947219  5.42E+00
   107 Broy./Diag. 0.40E+00   23.7     1.65833204     -1070.2774709829  6.99E+00
   108 Broy./Diag. 0.40E+00   23.9     1.43232920     -1076.8521285459 -6.57E+00
   109 Broy./Diag. 0.40E+00   23.9     1.51800092     -1071.3860252722  5.47E+00
   110 Broy./Diag. 0.40E+00   25.0     1.62410040     -1078.2771030708 -6.89E+00
   111 Broy./Diag. 0.40E+00   23.4     1.54236129     -1075.5721504013  2.70E+00
   112 Broy./Diag. 0.40E+00   23.8     1.64058887     -1073.5950255735  1.98E+00
   113 Broy./Diag. 0.40E+00   24.9     1.75696573     -1074.4567145707 -8.62E-01
   114 Broy./Diag. 0.40E+00   22.9     1.82444017     -1073.6834772277  7.73E-01
   115 Broy./Diag. 0.40E+00   24.3     1.83385101     -1080.4967947530 -6.81E+00
   116 Broy./Diag. 0.40E+00   23.7     1.87528354     -1076.8127828577  3.68E+00
   117 Broy./Diag. 0.40E+00   24.3     1.76796357     -1073.9237808938  2.89E+00
   118 Broy./Diag. 0.40E+00   23.7     1.76757755     -1070.8698844605  3.05E+00
   119 Broy./Diag. 0.40E+00   24.4     1.71153838     -1072.2962727361 -1.43E+00
   120 Broy./Diag. 0.40E+00   23.1     1.75077027     -1080.9104832309 -8.61E+00
   121 Broy./Diag. 0.40E+00   21.9     1.75545047     -1078.8987468752  2.01E+00
   122 Broy./Diag. 0.40E+00   23.5     1.77428443     -1076.4474938237  2.45E+00
   123 Broy./Diag. 0.40E+00   23.7     1.69070996     -1074.0806486272  2.37E+00
   124 Broy./Diag. 0.40E+00   23.6     1.71742042     -1073.3371077726  7.44E-01
   125 Broy./Diag. 0.40E+00   23.7     1.76207918     -1077.1068820919 -3.77E+00
   126 Broy./Diag. 0.40E+00   23.2     1.76635859     -1075.4219688800  1.68E+00
   127 Broy./Diag. 0.40E+00   22.3     1.77836012     -1075.2908366709  1.31E-01
   128 Broy./Diag. 0.40E+00   23.8     1.79803411     -1076.0927328695 -8.02E-01
   129 Broy./Diag. 0.40E+00   23.6     1.76441580     -1076.5735926704 -4.81E-01
   130 Broy./Diag. 0.40E+00   22.8     1.80854947     -1073.6124757162  2.96E+00
   131 Broy./Diag. 0.40E+00   23.7     1.55728944     -1075.9404427586 -2.33E+00
   132 Broy./Diag. 0.40E+00   23.7     1.78687430     -1073.8670629134  2.07E+00
   133 Broy./Diag. 0.40E+00   22.3     1.83959475     -1073.8190554804  4.80E-02
   134 Broy./Diag. 0.40E+00   24.2     1.76865905     -1077.0761369352 -3.26E+00
   135 Broy./Diag. 0.40E+00   22.0     1.78207065     -1076.4602633498  6.16E-01
   136 Broy./Diag. 0.40E+00   23.2     1.62850947     -1072.5271718037  3.93E+00
   137 Broy./Diag. 0.40E+00   22.8     1.73786675     -1074.6320812625 -2.10E+00
   138 Broy./Diag. 0.40E+00   22.2     1.80618761     -1077.3912183698 -2.76E+00
   139 Broy./Diag. 0.40E+00   22.3     1.78003354     -1077.2262728997  1.65E-01
   140 Broy./Diag. 0.40E+00   23.2     1.81582584     -1071.6781385916  5.55E+00
   141 Broy./Diag. 0.40E+00   23.8     1.64121673     -1079.2809827225 -7.60E+00
   142 Broy./Diag. 0.40E+00   24.1     1.80382298     -1073.3346949181  5.95E+00
   143 Broy./Diag. 0.40E+00   24.2     1.85466454     -1072.3674830872  9.67E-01
   144 Broy./Diag. 0.40E+00   24.3     1.76954507     -1074.3969512610 -2.03E+00
   145 Broy./Diag. 0.40E+00   24.6     1.77557928     -1079.4246295213 -5.03E+00
   146 Broy./Diag. 0.40E+00   23.4     1.76782597     -1075.0997490891  4.32E+00
   147 Broy./Diag. 0.40E+00   23.4     1.83161371     -1076.5357355045 -1.44E+00
   148 Broy./Diag. 0.40E+00   23.4     1.76098555     -1073.8678243698  2.67E+00
   149 Broy./Diag. 0.40E+00   24.3     1.76109561     -1077.5178425060 -3.65E+00
   150 Broy./Diag. 0.40E+00   24.0     1.72893971     -1074.7565869038  2.76E+00
   151 Broy./Diag. 0.40E+00   24.8     1.81441441     -1073.1484230145  1.61E+00
   152 Broy./Diag. 0.40E+00   23.9     1.49381729     -1073.7506155936 -6.02E-01
   153 Broy./Diag. 0.40E+00   24.1     1.67047193     -1075.5167433758 -1.77E+00
   154 Broy./Diag. 0.40E+00   23.7     1.77831225     -1076.9238939061 -1.41E+00
   155 Broy./Diag. 0.40E+00   23.1     1.78859819     -1079.5226602594 -2.60E+00
   156 Broy./Diag. 0.40E+00   23.7     1.63475664     -1073.8814956399  5.64E+00
   157 Broy./Diag. 0.40E+00   24.1     1.61082779     -1077.6786436125 -3.80E+00
   158 Broy./Diag. 0.40E+00   23.8     1.62266228     -1074.8981489352  2.78E+00
   159 Broy./Diag. 0.40E+00   23.6     1.59267602     -1076.1794275856 -1.28E+00
   160 Broy./Diag. 0.40E+00   23.5     1.80677303     -1072.0928053846  4.09E+00
   161 Broy./Diag. 0.40E+00   23.4     1.81312012     -1075.6493224809 -3.56E+00
   162 Broy./Diag. 0.40E+00   24.0     1.78726758     -1074.5291522749  1.12E+00
   163 Broy./Diag. 0.40E+00   23.6     1.80898949     -1078.3457376307 -3.82E+00
   164 Broy./Diag. 0.40E+00   23.5     1.82186986     -1080.2764904271 -1.93E+00
   165 Broy./Diag. 0.40E+00   23.5     1.42233965     -1070.1954028376  1.01E+01
   166 Broy./Diag. 0.40E+00   22.8     1.76969505     -1075.1782069878 -4.98E+00
   167 Broy./Diag. 0.40E+00   23.7     1.76466085     -1074.2936653582  8.85E-01
   168 Broy./Diag. 0.40E+00   23.9     1.76506970     -1072.2119837458  2.08E+00
   169 Broy./Diag. 0.40E+00   23.5     1.78094677     -1079.5451695756 -7.33E+00
   170 Broy./Diag. 0.40E+00   23.4     1.50473216     -1075.9576409317  3.59E+00
   171 Broy./Diag. 0.40E+00   23.9     1.59072692     -1074.3402611960  1.62E+00
   172 Broy./Diag. 0.40E+00   21.9     1.69002686     -1075.5403831792 -1.20E+00
   173 Broy./Diag. 0.40E+00   22.9     1.79128493     -1073.9000645635  1.64E+00
   174 Broy./Diag. 0.40E+00   23.6     1.83435720     -1072.8405448234  1.06E+00
   175 Broy./Diag. 0.40E+00   22.1     1.67906260     -1072.5724587326  2.68E-01
   176 Broy./Diag. 0.40E+00   21.8     1.74417256     -1075.7428902340 -3.17E+00
   177 Broy./Diag. 0.40E+00   24.2     1.34977129     -1076.3685226053 -6.26E-01
   178 Broy./Diag. 0.40E+00   24.5     1.75216245     -1077.3627233738 -9.94E-01
   179 Broy./Diag. 0.40E+00   23.6     1.77841418     -1078.3188017378 -9.56E-01
   180 Broy./Diag. 0.40E+00   23.3     1.54690653     -1074.7472239128  3.57E+00
   181 Broy./Diag. 0.40E+00   23.9     1.58706332     -1073.2693259283  1.48E+00
   182 Broy./Diag. 0.40E+00   24.7     1.76205440     -1073.4880910230 -2.19E-01
   183 Broy./Diag. 0.40E+00   23.4     1.79046420     -1081.4082901911 -7.92E+00
   184 Broy./Diag. 0.40E+00   24.2     1.60784034     -1075.1043394049  6.30E+00
   185 Broy./Diag. 0.40E+00   24.2     1.26500481     -1073.5407952331  1.56E+00
   186 Broy./Diag. 0.40E+00   24.7     1.72209802     -1077.6676979166 -4.13E+00
   187 Broy./Diag. 0.40E+00   24.4     1.77164355     -1074.3541374881  3.31E+00
   188 Broy./Diag. 0.40E+00   24.5     1.81484709     -1077.2119475691 -2.86E+00
   189 Broy./Diag. 0.40E+00   24.8     1.79213887     -1078.7243866994 -1.51E+00
   190 Broy./Diag. 0.40E+00   24.3     1.77511252     -1074.6482691620  4.08E+00
   191 Broy./Diag. 0.40E+00   24.4     1.74851018     -1071.7512915395  2.90E+00
   192 Broy./Diag. 0.40E+00   24.5     1.78990004     -1082.7789280950 -1.10E+01
   193 Broy./Diag. 0.40E+00   24.4     1.81413150     -1079.1916150784  3.59E+00
   194 Broy./Diag. 0.40E+00   24.5     1.78822593     -1071.1433192960  8.05E+00
   195 Broy./Diag. 0.40E+00   24.4     1.81768331     -1072.7027854495 -1.56E+00
   196 Broy./Diag. 0.40E+00   24.4     1.72335744     -1079.0261012431 -6.32E+00
   197 Broy./Diag. 0.40E+00   22.6     1.77201790     -1076.4477714371  2.58E+00
   198 Broy./Diag. 0.40E+00   24.0     1.77161156     -1073.5716614347  2.88E+00
   199 Broy./Diag. 0.40E+00   24.0     1.78014380     -1078.8472657305 -5.28E+00
   200 Broy./Diag. 0.40E+00   23.9     1.81979754     -1082.6457474303 -3.80E+00
   201 Broy./Diag. 0.40E+00   24.6     1.84194436     -1073.3145941886  9.33E+00
   202 Broy./Diag. 0.40E+00   24.8     1.84358515     -1071.3301661108  1.98E+00
   203 Broy./Diag. 0.40E+00   25.0     1.77594229     -1077.2026860663 -5.87E+00
   204 Broy./Diag. 0.40E+00   24.3     1.61874584     -1073.5248885638  3.68E+00
   205 Broy./Diag. 0.40E+00   23.5     1.77533844     -1073.3578241392  1.67E-01
   206 Broy./Diag. 0.40E+00   24.1     1.85355052     -1075.5574934324 -2.20E+00
   207 Broy./Diag. 0.40E+00   23.9     1.78228893     -1076.7261532044 -1.17E+00
   208 Broy./Diag. 0.40E+00   24.2     1.78157519     -1078.0888198112 -1.36E+00
   209 Broy./Diag. 0.40E+00   24.7     1.72609451     -1077.8078275025  2.81E-01
   210 Broy./Diag. 0.40E+00   24.4     1.31307716     -1075.1858498383  2.62E+00
   211 Broy./Diag. 0.40E+00   24.4     1.67956141     -1071.1524682675  4.03E+00
   212 Broy./Diag. 0.40E+00   24.3     1.70993927     -1081.1336137540 -9.98E+00
   213 Broy./Diag. 0.40E+00   24.7     1.55263108     -1071.9368748008  9.20E+00
   214 Broy./Diag. 0.40E+00   24.5     1.70497117     -1072.0939756973 -1.57E-01
   215 Broy./Diag. 0.40E+00   23.9     1.75429272     -1077.6144835571 -5.52E+00
   216 Broy./Diag. 0.40E+00   24.5     1.83998649     -1072.4868477345  5.13E+00
   217 Broy./Diag. 0.40E+00   22.5     1.74163746     -1072.5518584510 -6.50E-02
   218 Broy./Diag. 0.40E+00   22.9     1.75891634     -1076.9833604438 -4.43E+00
   219 Broy./Diag. 0.40E+00   21.2     1.71953064     -1077.7551583343 -7.72E-01
   220 Broy./Diag. 0.40E+00   24.7     1.77240000     -1075.2046379560  2.55E+00
   221 Broy./Diag. 0.40E+00   24.1     1.79915234     -1075.8453071973 -6.41E-01
   222 Broy./Diag. 0.40E+00   24.0     1.72332937     -1078.0121810395 -2.17E+00
   223 Broy./Diag. 0.40E+00   24.2     1.64524710     -1071.6612183019  6.35E+00
   224 Broy./Diag. 0.40E+00   23.8     1.63668602     -1074.7963192894 -3.14E+00
   225 Broy./Diag. 0.40E+00   23.9     1.74806080     -1075.3110482517 -5.15E-01
   226 Broy./Diag. 0.40E+00   24.7     1.80785198     -1075.4896118704 -1.79E-01
   227 Broy./Diag. 0.40E+00   23.7     1.79703486     -1078.4404662602 -2.95E+00
   228 Broy./Diag. 0.40E+00   23.9     1.82360692     -1072.6738661969  5.77E+00
   229 Broy./Diag. 0.40E+00   22.5     1.74293608     -1078.0218482744 -5.35E+00
   230 Broy./Diag. 0.40E+00   23.8     1.80658359     -1073.1730178079  4.85E+00
   231 Broy./Diag. 0.40E+00   22.9     1.78931988     -1079.6009451187 -6.43E+00
   232 Broy./Diag. 0.40E+00   23.8     1.81292016     -1075.6021230431  4.00E+00
   233 Broy./Diag. 0.40E+00   23.7     1.59225898     -1074.8951842513  7.07E-01
   234 Broy./Diag. 0.40E+00   24.0     1.71055891     -1075.5173588479 -6.22E-01
   235 Broy./Diag. 0.40E+00   24.4     1.77201235     -1076.9378118126 -1.42E+00
   236 Broy./Diag. 0.40E+00   24.7     1.77276794     -1075.7265309665  1.21E+00
   237 Broy./Diag. 0.40E+00   23.8     1.76468047     -1077.4366557647 -1.71E+00
   238 Broy./Diag. 0.40E+00   23.8     1.80274049     -1074.4693725294  2.97E+00
   239 Broy./Diag. 0.40E+00   24.4     1.74336305     -1076.3668440877 -1.90E+00
   240 Broy./Diag. 0.40E+00   24.8     1.78179237     -1074.7779611461  1.59E+00
   241 Broy./Diag. 0.40E+00   25.0     1.85164684     -1073.7725701353  1.01E+00
   242 Broy./Diag. 0.40E+00   24.8     1.66220257     -1078.4213172614 -4.65E+00
   243 Broy./Diag. 0.40E+00   24.9     1.65586001     -1073.1216072778  5.30E+00
   244 Broy./Diag. 0.40E+00   24.5     1.68336641     -1073.9227061962 -8.01E-01
   245 Broy./Diag. 0.40E+00   24.4     1.67908615     -1077.4873642730 -3.56E+00
   246 Broy./Diag. 0.40E+00   24.5     1.71599205     -1073.5398224976  3.95E+00
   247 Broy./Diag. 0.40E+00   24.3     1.74648106     -1076.7421877336 -3.20E+00
   248 Broy./Diag. 0.40E+00   24.9     1.58545237     -1075.6691234415  1.07E+00
   249 Broy./Diag. 0.40E+00   24.8     1.74286209     -1074.8642422478  8.05E-01
   250 Broy./Diag. 0.40E+00   24.6     1.79111263     -1075.3123823534 -4.48E-01
   251 Broy./Diag. 0.40E+00   24.6     1.75494244     -1072.1298277113  3.18E+00
   252 Broy./Diag. 0.40E+00   24.8     1.80285885     -1080.4647642817 -8.33E+00
   253 Broy./Diag. 0.40E+00   25.2     1.78953642     -1073.4053688282  7.06E+00
   254 Broy./Diag. 0.40E+00   24.3     1.74563175     -1074.1568182134 -7.51E-01
   255 Broy./Diag. 0.40E+00   24.3     1.78956012     -1079.9789672227 -5.82E+00
   256 Broy./Diag. 0.40E+00   24.2     1.84126819     -1075.3443547274  4.63E+00
   257 Broy./Diag. 0.40E+00   24.1     1.77884957     -1072.8155588717  2.53E+00
   258 Broy./Diag. 0.40E+00   25.1     1.79415651     -1073.8420547239 -1.03E+00
   259 Broy./Diag. 0.40E+00   25.4     1.84218841     -1079.5255972383 -5.68E+00
   260 Broy./Diag. 0.40E+00   24.3     1.74074741     -1080.8114523234 -1.29E+00
   261 Broy./Diag. 0.40E+00   25.0     1.62247791     -1074.5998599229  6.21E+00
   262 Broy./Diag. 0.40E+00   24.8     1.61922865     -1070.7059513312  3.89E+00
   263 Broy./Diag. 0.40E+00   24.4     1.56524736     -1075.9919349774 -5.29E+00
   264 Broy./Diag. 0.40E+00   25.0     1.70937816     -1073.8527595238  2.14E+00
   265 Broy./Diag. 0.40E+00   24.5     1.78288052     -1073.1896855432  6.63E-01
   266 Broy./Diag. 0.40E+00   24.8     1.78314767     -1073.3355051557 -1.46E-01
   267 Broy./Diag. 0.40E+00   24.3     1.84783746     -1081.4903076125 -8.15E+00
   268 Broy./Diag. 0.40E+00   24.7     1.78754926     -1077.7435609499  3.75E+00
   269 Broy./Diag. 0.40E+00   24.5     1.66248558     -1073.7685362828  3.98E+00
   270 Broy./Diag. 0.40E+00   24.4     1.64433963     -1073.1661312696  6.02E-01
   271 Broy./Diag. 0.40E+00   24.5     1.71661983     -1074.4812698442 -1.32E+00
   272 Broy./Diag. 0.40E+00   24.4     1.76392399     -1077.0985580001 -2.62E+00
   273 Broy./Diag. 0.40E+00   25.2     1.83211620     -1072.3870838806  4.71E+00
   274 Broy./Diag. 0.40E+00   22.1     1.79607902     -1077.9102715670 -5.52E+00
   275 Broy./Diag. 0.40E+00   23.4     1.78824019     -1073.8570327649  4.05E+00
   276 Broy./Diag. 0.40E+00   23.8     1.74238137     -1083.4059958160 -9.55E+00
   277 Broy./Diag. 0.40E+00   24.6     1.81036208     -1074.4338488564  8.97E+00
   278 Broy./Diag. 0.40E+00   24.9     1.74342888     -1073.2138373792  1.22E+00
   279 Broy./Diag. 0.40E+00   22.3     1.75882052     -1073.8360823692 -6.22E-01
   280 Broy./Diag. 0.40E+00   23.1     1.78436078     -1077.3947255671 -3.56E+00
   281 Broy./Diag. 0.40E+00   22.8     1.76553477     -1077.1947739986  2.00E-01
   282 Broy./Diag. 0.40E+00   22.6     1.72020984     -1074.6861496088  2.51E+00
   283 Broy./Diag. 0.40E+00   23.0     1.74097915     -1080.2449304281 -5.56E+00
   284 Broy./Diag. 0.40E+00   23.6     1.76468896     -1073.3088757478  6.94E+00
   285 Broy./Diag. 0.40E+00   23.7     1.82372804     -1070.7509678838  2.56E+00
   286 Broy./Diag. 0.40E+00   25.0     1.75377957     -1080.0272672701 -9.28E+00
   287 Broy./Diag. 0.40E+00   24.9     1.88147559     -1073.4006908817  6.63E+00
   288 Broy./Diag. 0.40E+00   24.7     1.74796100     -1078.0446052323 -4.64E+00
   289 Broy./Diag. 0.40E+00   24.4     1.77069785     -1074.7315107160  3.31E+00
   290 Broy./Diag. 0.40E+00   24.0     1.69714490     -1079.0592325829 -4.33E+00
   291 Broy./Diag. 0.40E+00   24.6     1.59954604     -1076.0029101485  3.06E+00
   292 Broy./Diag. 0.40E+00   24.6     1.67494493     -1075.6355384872  3.67E-01
   293 Broy./Diag. 0.40E+00   25.5     1.78727051     -1075.8007976958 -1.65E-01
   294 Broy./Diag. 0.40E+00   25.6     1.85955056     -1075.0531174191  7.48E-01
   295 Broy./Diag. 0.40E+00   24.3     1.80267814     -1073.6002901067  1.45E+00
   296 Broy./Diag. 0.40E+00   23.7     1.78604997     -1076.3603674075 -2.76E+00
   297 Broy./Diag. 0.40E+00   24.5     1.87748031     -1072.1210613898  4.24E+00
   298 Broy./Diag. 0.40E+00   25.4     1.70465067     -1078.5309748813 -6.41E+00
   299 Broy./Diag. 0.40E+00   24.9     1.74109382     -1073.4225335464  5.11E+00
   300 Broy./Diag. 0.40E+00   24.7     1.76643283     -1076.7986681368 -3.38E+00

  Leaving inner SCF loop after reaching   300 steps.


  Electronic density on regular grids:       -512.0007114524       -0.0007114524
  Core density on regular grids:              512.0000899367        0.0000899367
  Total charge density on r-space grids:       -0.0006215158
  Total charge density g-space grids:          -0.0006215158

  Overlap energy of the core charge distribution:               0.00000000000000
  Self energy of the core charge distribution:              -2838.21791979120962
  Core Hamiltonian energy:                                    759.01518664509047
  Hartree energy:                                            1240.61145262300874
  Exchange-correlation energy:                               -238.20738761366385

  Total energy:                                             -1076.79866813677427

 *** WARNING in qs_scf.F:542 :: SCF run NOT converged ***


 ENERGY| Total FORCE_EVAL ( QS ) energy (a.u.):            -1069.756210724362518


 ATOMIC FORCES in [a.u.]

 # Atom   Kind   Element          X              Y              Z
      1      1      O          -0.00445576     0.12286236    -0.09262120
      2      2      H           0.04352159    -0.03534625    -0.00992325
      3      2      H          -0.07668001    -0.03482847     0.06095661
      4      1      O           0.03860211    -0.06175622     0.06170175
      5      2      H          -0.04574190    -0.02312829    -0.05210236
      6      2      H          -0.03974578     0.06905060     0.04868162
      7      1      O          -0.01862173    -0.10960528    -0.08586850
      8      2      H          -0.00254092     0.03015934     0.08910315
      9      2      H           0.03956489     0.00301243    -0.08702119
     10      1      O          -0.01447647    -0.09102219    -0.11206019
     11      2      H           0.05113639    -0.02326062     0.03756867
     12      2      H          -0.02527937     0.08850757    -0.06003300
     13      1      O          -0.00019476     0.01307965    -0.00435454
     14      2      H           0.04335627     0.05782821     0.00366509
     15      2      H          -0.02235544    -0.06011910     0.03808001
     16      1      O          -0.02782113     0.13195500     0.07155613
     17      2      H          -0.01345175    -0.02037414    -0.11395957
     18      2      H           0.07327809     0.01240335     0.06151151
     19      1      O          -0.01956425     0.11726920     0.16045111
     20      2      H          -0.02278470    -0.08352384    -0.00838050
     21      2      H           0.07313409     0.00222461    -0.04464541
     22      1      O          -0.04347295     0.01666283     0.17115890
     23      2      H          -0.06485240     0.03034793    -0.08788364
     24      2      H           0.09299751     0.00340833    -0.06290384
     25      1      O          -0.09425336    -0.09792213    -0.05877432
     26      2      H           0.03147731     0.00143265    -0.05967553
     27      2      H           0.04095268     0.00430689     0.08666921
     28      1      O          -0.02421131    -0.04631762     0.04204013
     29      2      H           0.00930762     0.03938779    -0.03279716
     30      2      H           0.01590178    -0.03393282     0.05381462
     31      1      O          -0.08974869    -0.09129762    -0.04792741
     32      2      H           0.04996750    -0.01810211     0.03772377
     33      2      H           0.05432286     0.03487448    -0.05661018
     34      1      O           0.04072386    -0.09185572     0.02511958
     35      2      H          -0.02306314     0.07448910     0.01285323
     36      2      H          -0.05164828    -0.04576410    -0.06321537
     37      1      O           0.04856336    -0.03005499    -0.07195764
     38      2      H           0.02502615     0.04346326     0.02074986
     39      2      H          -0.02829166     0.02315203     0.03082014
     40      1      O           0.00677671    -0.10124533     0.01922257
     41      2      H          -0.00875874     0.00401904     0.08668297
     42      2      H           0.03875619     0.05237464    -0.03606745
     43      1      O          -0.09185045     0.00317718     0.02260376
     44      2      H          -0.00672310    -0.06249080    -0.05123029
     45      2      H           0.07380506     0.01661114     0.01312702
     46      1      O          -0.03649252    -0.06987958     0.04403611
     47      2      H          -0.00354751     0.07057216    -0.09195605
     48      2      H           0.04236937    -0.06369964     0.02834994
     49      1      O          -0.10710637    -0.01447131     0.16924432
     50      2      H           0.01360952    -0.06459362    -0.05157516
     51      2      H           0.07612987     0.04662569    -0.04309356
     52      1      O           0.00542423     0.17668413     0.01884703
     53      2      H           0.02695797    -0.07629291    -0.03807850
     54      2      H          -0.01982374    -0.00739803     0.02655385
     55      1      O          -0.05262842     0.08021387    -0.11347557
     56      2      H           0.03415085    -0.09613551     0.03842411
     57      2      H           0.03775703     0.00542487    -0.05606965
     58      1      O           0.01736492     0.11981129     0.12717069
     59      2      H          -0.03967243     0.01285136     0.00204129
     60      2      H           0.05327234    -0.04857463     0.00442841
     61      1      O          -0.06589569    -0.07850066    -0.03210595
     62      2      H           0.03858883     0.03397410     0.04766568
     63      2      H           0.05780031    -0.06099562    -0.02948874
     64      1      O           0.08250685     0.01136422     0.01102056
     65      2      H          -0.00217923    -0.02538438     0.11361599
     66      2      H          -0.03897295    -0.00373139    -0.07126085
     67      1      O          -0.06136981    -0.07256305     0.10693394
     68      2      H          -0.00318637     0.08597192     0.01396529
     69      2      H           0.06217367    -0.00281640     0.01722965
     70      1      O          -0.07489872    -0.15039788     0.08339159
     71      2      H           0.04308953     0.00618650    -0.04372131
     72      2      H           0.05068922     0.02793303     0.10043563
     73      1      O           0.02103924     0.05221120    -0.11844081
     74      2      H           0.03864549    -0.07756602    -0.05628264
     75      2      H          -0.04093813    -0.04105076     0.03658995
     76      1      O          -0.02220782    -0.05968904    -0.00642856
     77      2      H           0.05799495     0.02508489    -0.02898050
     78      2      H          -0.02156151    -0.03908102    -0.09368745
     79      1      O           0.01605444    -0.01735285    -0.01480330
     80      2      H           0.06309175    -0.00182165    -0.02669428
     81      2      H          -0.03175128     0.00402645    -0.04505258
     82      1      O           0.05405703     0.11581986    -0.06164996
     83      2      H           0.06262455    -0.02248914    -0.09939534
     84      2      H          -0.10248994    -0.06761180     0.06404792
     85      1      O          -0.04875936    -0.00689873     0.16047891
     86      2      H           0.04645774    -0.00082628     0.02304705
     87      2      H          -0.00276775    -0.05773462    -0.02342233
     88      1      O           0.00277933     0.00118869     0.11679278
     89      2      H          -0.03576076    -0.06581574     0.02490500
     90      2      H           0.04004197     0.01356337    -0.09605273
     91      1      O           0.10213604    -0.14469852     0.08929314
     92      2      H          -0.06790053     0.05546165     0.10268916
     93      2      H           0.00493845     0.01915739    -0.06618999
     94      1      O          -0.00129186     0.08767768    -0.08436058
     95      2      H           0.06607328    -0.00045611     0.06871946
     96      2      H          -0.03888704    -0.04176271     0.05349401
     97      1      O          -0.01388893    -0.03996982    -0.13649649
     98      2      H          -0.03427919     0.02668599    -0.01746458
     99      2      H           0.01830056    -0.00823741     0.09407693
    100      1      O           0.03044207     0.00018875    -0.01698623
    101      2      H           0.00801687     0.03516362    -0.04405106
    102      2      H          -0.00729439    -0.01188944    -0.03401956
    103      1      O          -0.10242286    -0.03903745    -0.09645182
    104      2      H           0.05498308     0.00874195    -0.04103045
    105      2      H           0.00143506    -0.02891446     0.05829956
    106      1      O          -0.00530098     0.08909012     0.13603982
    107      2      H           0.01935952    -0.01311074    -0.02913231
    108      2      H           0.03748226    -0.05655609     0.04414216
    109      1      O           0.01590866     0.12715330     0.00800283
    110      2      H           0.04710868     0.02150948    -0.03154099
    111      2      H          -0.05753809    -0.04580549    -0.06101330
    112      1      O          -0.17953944    -0.06939271     0.09340961
    113      2      H           0.18577351    -0.14794865    -0.06019541
    114      2      H           0.02214540     0.15449572    -0.07015930
    115      1      O          -0.01460254     0.00450923     0.01949143
    116      2      H           0.05747593    -0.00504212    -0.08916429
    117      2      H          -0.05311594    -0.01574266    -0.07725328
    118      1      O           0.00664848     0.08284537    -0.10336674
    119      2      H           0.04281020    -0.01538946    -0.06604577
    120      2      H           0.01163023    -0.03990835     0.03605319
    121      1      O          -0.06175867    -0.06981712     0.19220842
    122      2      H           0.09836600    -0.01311985     0.04856152
    123      2      H          -0.00312131     0.04024650    -0.11373569
    124      1      O          -0.08803397    -0.12878301    -0.16264785
    125      2      H           0.05188610    -0.04401823     0.02064764
    126      2      H           0.00598148     0.12258403     0.02005435
    127      1      O           0.07234764    -0.10162489    -0.04556723
    128      2      H          -0.02087187     0.06407964    -0.09055536
    129      2      H          -0.06022089     0.01915408     0.07989193
    130      1      O          -0.07065691     0.04063724     0.07198858
    131      2      H          -0.01152403    -0.00274170    -0.07801732
    132      2      H           0.05430476     0.04473013     0.01357377
    133      1      O           0.05263437     0.00627956    -0.02796421
    134      2      H          -0.05631586     0.03603124    -0.00398285
    135      2      H          -0.01391623    -0.09286984     0.01891716
    136      1      O          -0.00517097     0.08499207     0.01420621
    137      2      H          -0.00075777     0.01489380    -0.02905087
    138      2      H          -0.02692530    -0.03403131    -0.00839410
    139      1      O          -0.05450143    -0.13106315    -0.09757868
    140      2      H          -0.02834360     0.08207518    -0.06606274
    141      2      H           0.08487956     0.00555976    -0.00828392
    142      1      O           0.04914904    -0.01503974    -0.09863143
    143      2      H          -0.05383208     0.06829504     0.00574050
    144      2      H          -0.01954017    -0.08480907    -0.01415523
    145      1      O          -0.01593872     0.03974284     0.08878370
    146      2      H           0.05595144     0.01681519    -0.03019074
    147      2      H          -0.05240541    -0.06315864    -0.06411075
    148      1      O           0.04666932     0.09818052     0.01302141
    149      2      H          -0.05659817    -0.07038858     0.02507739
    150      2      H          -0.02865460     0.02362418    -0.06187438
    151      1      O          -0.04057576     0.09006892     0.04455231
    152      2      H          -0.06604100    -0.03217157     0.05519916
    153      2      H           0.09283784    -0.06000532     0.02040507
    154      1      O           0.00708551    -0.04470642    -0.09410883
    155      2      H           0.06485349     0.03198216    -0.04568202
    156      2      H          -0.05178421    -0.00077973     0.00346475
    157      1      O           0.01258734    -0.08043145     0.11589192
    158      2      H           0.00061939     0.02722412    -0.02488687
    159      2      H           0.02923497     0.00896063    -0.02659496
    160      1      O          -0.17210557     0.02390814     0.08043125
    161      2      H           0.16264499    -0.03705033    -0.14867133
    162      2      H          -0.00593493     0.00969856    -0.02567816
    163      1      O          -0.03643688     0.10525162    -0.05033557
    164      2      H          -0.00875048    -0.01119612    -0.02676477
    165      2      H          -0.00493544    -0.00464773    -0.01618414
    166      1      O          -0.00825623    -0.09250829     0.03759694
    167      2      H           0.03932550    -0.00726965     0.05968690
    168      2      H          -0.02686269     0.02696016    -0.02750235
    169      1      O           0.03041070    -0.04962101     0.03000009
    170      2      H          -0.05775773     0.07749996     0.02969162
    171      2      H           0.04113139     0.02524948     0.03982845
    172      1      O          -0.06500029     0.03355127     0.13553645
    173      2      H           0.00953666    -0.06783160     0.06944763
    174      2      H           0.05302551     0.01400893    -0.07795538
    175      1      O           0.02082405    -0.11964146     0.02467985
    176      2      H          -0.05453549     0.07221556    -0.02172649
    177      2      H           0.05935691     0.02712553     0.09479709
    178      1      O           0.06480226    -0.06782425     0.09618163
    179      2      H           0.01111475     0.00960676    -0.05402453
    180      2      H          -0.04135778     0.00217484    -0.00948636
    181      1      O          -0.05383926    -0.00938568     0.05943320
    182      2      H          -0.02157580     0.05938334     0.01310285
    183      2      H           0.09555758    -0.03208490    -0.06477964
    184      1      O          -0.01663474    -0.10311034     0.18774978
    185      2      H           0.05733078    -0.02761229    -0.09575878
    186      2      H          -0.06983197     0.05257441    -0.02948851
    187      1      O          -0.07350034     0.09604363     0.01110259
    188      2      H           0.05258525     0.01259758     0.00755830
    189      2      H           0.06556149    -0.05024310    -0.03175679
    190      1      O          -0.04009725    -0.05338506     0.12532638
    191      2      H          -0.01547918     0.04539416    -0.04334397
    192      2      H          -0.02676404     0.03240763     0.04317868
 SUM OF ATOMIC FORCES           0.27530219    -0.69209766    -0.14587942     0.75899359

 -------------------------------------------------------------------------------
 -                                                                             -
 -                                DBCSR STATISTICS                             -
 -                                                                             -
 -------------------------------------------------------------------------------
 COUNTER                                    TOTAL       BLAS       SMM       ACC
 flops     5 x     5 x   256           3610073600       0.0%    100.0%      0.0%
 flops     5 x    13 x   256           4157171200       0.0%    100.0%      0.0%
 flops    13 x     5 x   256           4317447680       0.0%    100.0%      0.0%
 flops    13 x    13 x   256           6016378368       0.0%    100.0%      0.0%
 flops inhomo. stacks                           0       0.0%      0.0%      0.0%
 flops total                        18.101071E+09       0.0%    100.0%      0.0%
 flops max/rank                     18.101071E+09       0.0%    100.0%      0.0%
 matmuls inhomo. stacks                         0       0.0%      0.0%      0.0%
 matmuls total                             606214       0.0%    100.0%      0.0%
 number of processed stacks                 42140       0.0%    100.0%      0.0%
 average stack size                                     0.0      14.4       0.0
 marketing flops                   333.927416E+09
 -------------------------------------------------------------------------------
 # multiplications                            301
 max memory usage/rank              30.519861E+09
 # max total images/rank                        1
 # max 3D layers                                1
 # MPI messages exchanged                       0
 MPI messages size (bytes):
  total size                         0.000000E+00
  min size                           0.000000E+00
  max size                           0.000000E+00
  average size                       0.000000E+00
 MPI breakdown and total messages size (bytes):
             size <=      128                   0                        0
       128 < size <=     8192                   0                        0
      8192 < size <=    32768                   0                        0
     32768 < size <=   131072                   0                        0
    131072 < size <=  4194304                   0                        0
   4194304 < size <= 16777216                   0                        0
  16777216 < size                               0                        0
 -------------------------------------------------------------------------------

 MEMORY| Estimated peak process memory [MiB]                               29101

 -------------------------------------------------------------------------------
 -                                                                             -
 -                           R E F E R E N C E S                               -
 -                                                                             -
 -------------------------------------------------------------------------------
 
 CP2K version 7.1, the CP2K developers group (2019).
 CP2K is freely available from https://www.cp2k.org/ .

 Schuett, Ole; Messmer, Peter; Hutter, Juerg; VandeVondele, Joost. 
 Electronic Structure Calculations on Graphics Processing Units, John
 Wiley & Sons, Ltd, 173-190 (2016). 
 GPU-Accelerated Sparse Matrix-Matrix Multiplication for
 Linear Scaling Density Functional Theory.
 https://dx.doi.org/10.1002/9781118670712.ch8

 Borstnik, U; VandeVondele, J; Weber, V; Hutter, J. 
 PARALLEL COMPUTING, 40 (5-6), 47-58 (2014). 
 Sparse matrix multiplication: The distributed block-compressed sparse
 row library.
 https://dx.doi.org/10.1016/j.parco.2014.03.012

 Hutter, J; Iannuzzi, M; Schiffmann, F; VandeVondele, J. 
 WIREs Comput Mol Sci., 4 (1), 15-25 (2014). 
 CP2K: atomistic simulations of condensed matter systems.
 https://dx.doi.org/10.1002/wcms.1159

 Krack, M. 
 THEORETICAL CHEMISTRY ACCOUNTS, 114 (1-3), 145-152 (2005). 
 Pseudopotentials for H to Kr optimized for gradient-corrected
 exchange-correlation functionals.
 https://dx.doi.org/10.1007/s00214-005-0655-y

 VandeVondele, J; Krack, M; Mohamed, F; Parrinello, M; Chassaing, T;
 Hutter, J. COMPUTER PHYSICS COMMUNICATIONS, 167 (2), 103-128 (2005). 
 QUICKSTEP: Fast and accurate density functional calculations using a
 mixed Gaussian and plane waves approach.
 https://dx.doi.org/10.1016/j.cpc.2004.12.014

 Frigo, M; Johnson, SG. 
 PROCEEDINGS OF THE IEEE, 93 (2), 216-231 (2005). 
 The design and implementation of FFTW3.
 https://dx.doi.org/10.1109/JPROC.2004.840301

 Hartwigsen, C; Goedecker, S; Hutter, J. 
 PHYSICAL REVIEW B, 58 (7), 3641-3662 (1998). 
 Relativistic separable dual-space Gaussian pseudopotentials from H to Rn.
 https://dx.doi.org/10.1103/PhysRevB.58.3641

 Lippert, G; Hutter, J; Parrinello, M. 
 MOLECULAR PHYSICS, 92 (3), 477-487 (1997). 
 A hybrid Gaussian and plane wave density functional scheme.
 https://dx.doi.org/10.1080/002689797170220

 Goedecker, S; Teter, M; Hutter, J. 
 PHYSICAL REVIEW B, 54 (3), 1703-1710 (1996). 
 Separable dual-space Gaussian pseudopotentials.
 https://dx.doi.org/10.1103/PhysRevB.54.1703


 -------------------------------------------------------------------------------
 -                                                                             -
 -                                T I M I N G                                  -
 -                                                                             -
 -------------------------------------------------------------------------------
 SUBROUTINE                       CALLS  ASD         SELF TIME        TOTAL TIME
                                MAXIMUM       AVERAGE  MAXIMUM  AVERAGE  MAXIMUM
 CP2K                                 1  1.0    1.054    1.054 7091.210 7091.210
 qs_forces                            1  2.0    0.000    0.000 7080.062 7080.062
 qs_energies                          1  3.0    0.000    0.000 7076.287 7076.287
 scf_env_do_scf                       1  4.0    0.001    0.001 7064.781 7064.781
 scf_env_do_scf_inner_loop          300  5.0    0.055    0.055 7064.781 7064.781
 gspace_mixing                      299  6.0   42.138   42.138 2982.420 2982.420
 broyden_mixing                     299  7.0 2698.288 2698.288 2698.292 2698.292
 qs_scf_new_mos                     300  6.0    0.008    0.008 1936.437 1936.437
 eigensolver                        300  7.0    0.035    0.035 1892.327 1892.327
 cp_fm_syevd                        300  8.0 1263.320 1263.320 1264.526 1264.526
 pw_transfer                       3912  9.9    0.379    0.379 1141.893 1141.893
 rebuild_ks_matrix                  301  7.0    0.001    0.001 1115.377 1115.377
 qs_ks_build_kohn_sham_matrix       301  8.0    0.089    0.089 1115.376 1115.376
 fft_wrap_pw1pw2                   3310 10.9    0.050    0.050 1114.980 1114.980
 qs_ks_update_qs_env                300  6.0    0.004    0.004 1112.001 1112.001
 qs_rho_update_rho                  301  6.0    0.006    0.006 1035.576 1035.576
 calculate_rho_elec                 301  7.0  504.751  504.751 1035.569 1035.569
 fft_wrap_pw1pw2_70                1504 11.2   86.953   86.953 1020.281 1020.281
 cp_fm_cholesky_restore             900  8.0  626.655  626.655  626.655  626.655
 fft3d_s                           3311 12.9  528.880  528.880  528.910  528.910
 density_rs2pw                      301  8.0    0.029    0.029  522.572  522.572
 pw_scatter_s                      1804 13.2  409.895  409.895  409.895  409.895
 pw_poisson_solve                   301  9.0  334.861  334.861  361.744  361.744
 sum_up_and_integrate               301  9.0   18.357   18.357  304.716  304.716
 integrate_v_rspace                 301 10.0    8.800    8.800  286.358  286.358
 potential_pw2rs                    301 11.0    2.517    2.517  268.186  268.186
 qs_vxc_create                      301  9.0    0.007    0.007  162.901  162.901
 xc_vxc_pw_create                   301 10.0   42.274   42.274  162.894  162.894
 -------------------------------------------------------------------------------

 The number of warnings for this run is : 1
 
 -------------------------------------------------------------------------------
  **** **** ******  **  PROGRAM ENDED AT                 2020-05-28 23:07:29.740
 ***** ** ***  *** **   PROGRAM RAN ON                                   gnode44
 **    ****   ******    PROGRAM RAN BY                               mayank.modi
 ***** **    ** ** **   PROGRAM PROCESS ID                                 20882
  **** **  *******  **  PROGRAM STOPPED IN /home/mayank.modi/ab-initio-thermodyn
                                           amics-of-water/mayank/cp2k_energy_cal
                                           culations
