 DBCSR| CPU Multiplication driver                                           XSMM
 DBCSR| Multrec recursion limit                                              512
 DBCSR| Multiplication stack size                                           1000
 DBCSR| Maximum elements for images                                    UNLIMITED
 DBCSR| Multiplicative factor virtual images                                   1
 DBCSR| Use multiplication densification                                       T
 DBCSR| Multiplication size stacks                                             3


  **** **** ******  **  PROGRAM STARTED AT               2020-05-28 11:27:03.654
 ***** ** ***  *** **   PROGRAM STARTED ON                               gnode44
 **    ****   ******    PROGRAM STARTED BY                           mayank.modi
 ***** **    ** ** **   PROGRAM PROCESS ID                                 14036
  **** **  *******  **  PROGRAM STARTED IN /home/mayank.modi/ab-initio-thermodyn
                                           amics-of-water/mayank/cp2k_energy_cal
                                           culations

 CP2K| version string:                                          CP2K version 7.1
 CP2K| source code revision number:                                  git:e635599
 CP2K| cp2kflags: omp libint fftw3 libxc xsmm spglib                            
 CP2K| is freely available from                            https://www.cp2k.org/
 CP2K| Program compiled at                          Mon Dec 23 19:23:12 CET 2019
 CP2K| Program compiled on                                                pc9404
 CP2K| Program compiled for                                Linux-x86-64-gfortran
 CP2K| Data directory path                                        /opt/cp2k/data
 CP2K| Input file name                                 input_training/input22.in

 GLOBAL| Force Environment number                                              1
 GLOBAL| Basis set file name                                           BASIS_SET
 GLOBAL| Potential file name                                      GTH_POTENTIALS
 GLOBAL| MM Potential file name                                     MM_POTENTIAL
 GLOBAL| Coordinate file name                                      __STD_INPUT__
 GLOBAL| Method name                                                        CP2K
 GLOBAL| Project name                                                   H2O_bulk
 GLOBAL| Preferred FFT library                                             FFTW3
 GLOBAL| Preferred diagonalization lib.                                       SL
 GLOBAL| Run type                                                   ENERGY_FORCE
 GLOBAL| All-to-all communication in single precision                          F
 GLOBAL| FFTs using library dependent lengths                                  F
 GLOBAL| Global print level                                                  LOW
 GLOBAL| MPI I/O enabled                                                       T
 GLOBAL| Total number of message passing processes                             1
 GLOBAL| Number of threads for this process                                   36
 GLOBAL| This output is from process                                           0
 GLOBAL| CPU model name                Intel(R) Xeon(R) CPU E5-2640 v4 @ 2.40GHz
 GLOBAL| CPUID                                                              1002
 GLOBAL| Compiled for CPUID                                                    0

 MEMORY| system memory details [Kb]
 MEMORY|                        rank 0           min           max       average
 MEMORY| MemTotal            131893056     131893056     131893056     131893056
 MEMORY| MemFree             121136348     121136348     121136348     121136348
 MEMORY| Buffers               2115940       2115940       2115940       2115940
 MEMORY| Cached                3079796       3079796       3079796       3079796
 MEMORY| Slab                  3304288       3304288       3304288       3304288
 MEMORY| SReclaimable          3100832       3100832       3100832       3100832
 MEMORY| MemLikelyFree       129432916     129432916     129432916     129432916


 GENERATE|  Preliminary Number of Bonds generated:                             0
 GENERATE|  Achieved consistency in connectivity generation.

 *******************************************************************************
 *******************************************************************************
 **                                                                           **
 **     #####                         ##              ##                      **
 **    ##   ##            ##          ##              ##                      **
 **   ##     ##                       ##            ######                    **
 **   ##     ##  ##   ##  ##   #####  ##  ##   ####   ##    #####    #####    **
 **   ##     ##  ##   ##  ##  ##      ## ##   ##      ##   ##   ##  ##   ##   **
 **   ##  ## ##  ##   ##  ##  ##      ####     ###    ##   ######   ######    **
 **    ##  ###   ##   ##  ##  ##      ## ##      ##   ##   ##       ##        **
 **     #######   #####   ##   #####  ##  ##  ####    ##    #####   ##        **
 **           ##                                                    ##        **
 **                                                                           **
 **                                                ... make the atoms dance   **
 **                                                                           **
 **            Copyright (C) by CP2K developers group (2000 - 2019)           **
 **                                                                           **
 *******************************************************************************


 TOTAL NUMBERS AND MAXIMUM NUMBERS

  Total number of            - Atomic kinds:                                   2
                             - Atoms:                                        192
                             - Shell sets:                                   384
                             - Shells:                                       704
                             - Primitive Cartesian functions:                960
                             - Cartesian basis functions:                   1536
                             - Spherical basis functions:                   1472

  Maximum angular momentum of- Orbital basis functions:                        2
                             - Local part of the GTH pseudopotential:          2
                             - Non-local part of the GTH pseudopotential:      0


 SCF PARAMETERS         Density guess:                                    ATOMIC
                        --------------------------------------------------------
                        max_scf:                                             300
                        max_scf_history:                                       0
                        max_diis:                                              4
                        --------------------------------------------------------
                        eps_scf:                                        1.00E-07
                        eps_scf_history:                                0.00E+00
                        eps_diis:                                       1.00E-01
                        eps_eigval:                                     1.00E-05
                        --------------------------------------------------------
                        level_shift [a.u.]:                                 0.00
                        --------------------------------------------------------
                        Mixing method:                            BROYDEN_MIXING
                                                charge density mixing in g-space
                        --------------------------------------------------------
                        No outer SCF

 Number of electrons:                                                        512
 Number of occupied orbitals:                                                256
 Number of molecular orbitals:                                               256

 Number of orbital functions:                                               1472
 Number of independent orbital functions:                                   1472

 Extrapolation method: initial_guess


 SCF WAVEFUNCTION OPTIMIZATION

  Step     Update method      Time    Convergence         Total energy    Change
  ------------------------------------------------------------------------------
     1 NoMix/Diag. 0.40E+00   10.2     0.60736939     -1064.1238665797 -1.06E+03
     2 Broy./Diag. 0.40E+00   14.9     1.93058001      -997.2404201273  6.69E+01
     3 Broy./Diag. 0.40E+00   16.2     1.94553974     -1260.3533822654 -2.63E+02
     4 Broy./Diag. 0.40E+00   17.1     1.94196038     -1114.4391691389  1.46E+02
     5 Broy./Diag. 0.40E+00   18.1     1.90176621     -1099.0669853259  1.54E+01
     6 Broy./Diag. 0.40E+00   18.9     1.90326538     -1096.2206322206  2.85E+00
     7 Broy./Diag. 0.40E+00   19.5     1.97519772     -1092.8974770396  3.32E+00
     8 Broy./Diag. 0.40E+00   20.7     0.94806583     -1084.0987479582  8.80E+00
     9 Broy./Diag. 0.40E+00   21.9     1.73310694     -1076.4497631482  7.65E+00
    10 Broy./Diag. 0.40E+00   23.6     1.72594204     -1078.1165122844 -1.67E+00
    11 Broy./Diag. 0.40E+00   23.6     1.33714572     -1077.6743439404  4.42E-01
    12 Broy./Diag. 0.40E+00   23.4     1.49296323     -1076.3587479796  1.32E+00
    13 Broy./Diag. 0.40E+00   22.5     0.95299804     -1070.1598370310  6.20E+00
    14 Broy./Diag. 0.40E+00   23.4     1.74296068     -1072.2219950808 -2.06E+00
    15 Broy./Diag. 0.40E+00   23.8     1.77719605     -1078.6672832492 -6.45E+00
    16 Broy./Diag. 0.40E+00   21.6     0.83436189     -1076.1883361901  2.48E+00
    17 Broy./Diag. 0.40E+00   22.6     1.70783254     -1073.8257011490  2.36E+00
    18 Broy./Diag. 0.40E+00   22.6     1.73785072     -1075.4637991519 -1.64E+00
    19 Broy./Diag. 0.40E+00   23.2     1.57555672     -1073.9905528713  1.47E+00
    20 Broy./Diag. 0.40E+00   23.4     1.70201769     -1078.6674815491 -4.68E+00
    21 Broy./Diag. 0.40E+00   23.3     1.78686333     -1073.3335566716  5.33E+00
    22 Broy./Diag. 0.40E+00   23.3     1.46712383     -1077.7111437183 -4.38E+00
    23 Broy./Diag. 0.40E+00   23.9     1.51263010     -1079.3891065218 -1.68E+00
    24 Broy./Diag. 0.40E+00   23.9     1.01486387     -1076.5847821331  2.80E+00
    25 Broy./Diag. 0.40E+00   23.6     1.78740791     -1075.2083269864  1.38E+00
    26 Broy./Diag. 0.40E+00   24.0     1.79341660     -1077.2129955177 -2.00E+00
    27 Broy./Diag. 0.40E+00   23.5     1.40277424     -1077.5351292953 -3.22E-01
    28 Broy./Diag. 0.40E+00   22.2     1.69868046     -1077.4454573167  8.97E-02
    29 Broy./Diag. 0.40E+00   22.5     0.96696152     -1076.8773369388  5.68E-01
    30 Broy./Diag. 0.40E+00   23.3     1.78197266     -1074.4359235596  2.44E+00
    31 Broy./Diag. 0.40E+00   23.7     0.52611381     -1076.2447761175 -1.81E+00
    32 Broy./Diag. 0.40E+00   23.0     0.68080074     -1075.8833413758  3.61E-01
    33 Broy./Diag. 0.40E+00   21.9     1.37978851     -1076.6442631551 -7.61E-01
    34 Broy./Diag. 0.40E+00   24.0     1.07895807     -1076.3726324832  2.72E-01
    35 Broy./Diag. 0.40E+00   22.5     1.68566120     -1073.8554624401  2.52E+00
    36 Broy./Diag. 0.40E+00   23.2     1.78160693     -1079.2822451981 -5.43E+00
    37 Broy./Diag. 0.40E+00   22.9     1.79234119     -1079.2945727024 -1.23E-02
    38 Broy./Diag. 0.40E+00   23.3     1.42762292     -1077.1820165470  2.11E+00
    39 Broy./Diag. 0.40E+00   23.6     1.71794731     -1074.2758347820  2.91E+00
    40 Broy./Diag. 0.40E+00   23.4     1.73226050     -1077.7394366109 -3.46E+00
    41 Broy./Diag. 0.40E+00   23.0     1.64385617     -1073.6425273247  4.10E+00
    42 Broy./Diag. 0.40E+00   23.4     1.69526638     -1078.5585931980 -4.92E+00
    43 Broy./Diag. 0.40E+00   23.3     1.21906123     -1077.0520531107  1.51E+00
    44 Broy./Diag. 0.40E+00   22.8     1.61614173     -1074.8883988552  2.16E+00
    45 Broy./Diag. 0.40E+00   24.4     1.68072249     -1077.4019254755 -2.51E+00
    46 Broy./Diag. 0.40E+00   21.9     1.52861272     -1075.4600391687  1.94E+00
    47 Broy./Diag. 0.40E+00   22.1     1.58143889     -1076.5018353227 -1.04E+00
    48 Broy./Diag. 0.40E+00   23.2     1.57874539     -1077.6427125597 -1.14E+00
    49 Broy./Diag. 0.40E+00   23.2     1.71560104     -1077.1100435436  5.33E-01
    50 Broy./Diag. 0.40E+00   23.5     1.76769054     -1076.7750021300  3.35E-01
    51 Broy./Diag. 0.40E+00   22.9     1.08565988     -1076.0140317756  7.61E-01
    52 Broy./Diag. 0.40E+00   22.5     1.44167499     -1073.5371201876  2.48E+00
    53 Broy./Diag. 0.40E+00   23.3     1.36820403     -1078.4947483191 -4.96E+00
    54 Broy./Diag. 0.40E+00   23.3     1.83561907     -1078.6431285397 -1.48E-01
    55 Broy./Diag. 0.40E+00   24.4     1.75742159     -1077.8746492439  7.68E-01
    56 Broy./Diag. 0.40E+00   23.4     1.67593981     -1074.4853888091  3.39E+00
    57 Broy./Diag. 0.40E+00   24.2     1.70234517     -1077.9093656932 -3.42E+00
    58 Broy./Diag. 0.40E+00   22.8     1.24881204     -1076.1561797430  1.75E+00
    59 Broy./Diag. 0.40E+00   21.9     1.79138280     -1073.9066374286  2.25E+00
    60 Broy./Diag. 0.40E+00   22.4     1.76510476     -1077.2445589078 -3.34E+00
    61 Broy./Diag. 0.40E+00   23.2     1.75513129     -1075.1370978587  2.11E+00
    62 Broy./Diag. 0.40E+00   23.7     1.79121977     -1078.3576310843 -3.22E+00
    63 Broy./Diag. 0.40E+00   23.8     1.40890646     -1076.4274339964  1.93E+00
    64 Broy./Diag. 0.40E+00   24.5     0.96605073     -1073.9823498130  2.45E+00
    65 Broy./Diag. 0.40E+00   24.3     1.52817683     -1077.0389583832 -3.06E+00
    66 Broy./Diag. 0.40E+00   23.7     1.52619023     -1076.8292562139  2.10E-01
    67 Broy./Diag. 0.40E+00   22.0     1.74824463     -1078.5873933779 -1.76E+00
    68 Broy./Diag. 0.40E+00   24.5     1.71792088     -1074.7098299999  3.88E+00
    69 Broy./Diag. 0.40E+00   24.6     1.75399866     -1076.7162331138 -2.01E+00
    70 Broy./Diag. 0.40E+00   23.7     1.70258451     -1076.5648073313  1.51E-01
    71 Broy./Diag. 0.40E+00   23.1     1.68858237     -1076.0018760929  5.63E-01
    72 Broy./Diag. 0.40E+00   23.4     1.54084669     -1076.2843294571 -2.82E-01
    73 Broy./Diag. 0.40E+00   23.3     1.43258814     -1076.0625425977  2.22E-01
    74 Broy./Diag. 0.40E+00   23.7     1.40488616     -1076.3025437064 -2.40E-01
    75 Broy./Diag. 0.40E+00   23.5     1.78681453     -1074.3634384774  1.94E+00
    76 Broy./Diag. 0.40E+00   23.2     1.79335513     -1080.5946432720 -6.23E+00
    77 Broy./Diag. 0.40E+00   23.9     1.78509532     -1078.6772579023  1.92E+00
    78 Broy./Diag. 0.40E+00   23.1     1.78445516     -1076.8487131882  1.83E+00
    79 Broy./Diag. 0.40E+00   23.5     1.05975360     -1076.4493591855  3.99E-01
    80 Broy./Diag. 0.40E+00   22.6     1.80673349     -1074.1304388827  2.32E+00
    81 Broy./Diag. 0.40E+00   22.9     1.81062825     -1078.1720508150 -4.04E+00
    82 Broy./Diag. 0.40E+00   23.1     1.71586805     -1074.3461664389  3.83E+00
    83 Broy./Diag. 0.40E+00   23.1     1.73813364     -1076.9972281920 -2.65E+00
    84 Broy./Diag. 0.40E+00   22.3     1.22350037     -1076.9249050691  7.23E-02
    85 Broy./Diag. 0.40E+00   24.0     1.51877276     -1076.6257757420  2.99E-01
    86 Broy./Diag. 0.40E+00   23.8     1.29164203     -1076.5189615627  1.07E-01
    87 Broy./Diag. 0.40E+00   23.6     1.45705653     -1076.5120912805  6.87E-03
    88 Broy./Diag. 0.40E+00   24.8     1.40078490     -1076.0931213586  4.19E-01
    89 Broy./Diag. 0.40E+00   21.4     1.03851168     -1076.6574405518 -5.64E-01
    90 Broy./Diag. 0.40E+00   22.1     1.79466949     -1074.2235246671  2.43E+00
    91 Broy./Diag. 0.40E+00   22.4     1.80723882     -1078.8260263916 -4.60E+00
    92 Broy./Diag. 0.40E+00   21.0     1.75366937     -1078.7105180834  1.16E-01
    93 Broy./Diag. 0.40E+00   22.6     1.42215684     -1076.2701838826  2.44E+00
    94 Broy./Diag. 0.40E+00   23.5     1.72575260     -1074.1147047694  2.16E+00
    95 Broy./Diag. 0.40E+00   24.4     1.75513300     -1076.2672511390 -2.15E+00
    96 Broy./Diag. 0.40E+00   23.8     1.25251814     -1075.9447147548  3.23E-01
    97 Broy./Diag. 0.40E+00   24.5     1.70105281     -1073.5401150036  2.40E+00
    98 Broy./Diag. 0.40E+00   22.1     0.78659895     -1077.1138980249 -3.57E+00
    99 Broy./Diag. 0.40E+00   24.3     1.02684907     -1077.1379842780 -2.41E-02
   100 Broy./Diag. 0.40E+00   23.7     1.74898363     -1078.9483530928 -1.81E+00
   101 Broy./Diag. 0.40E+00   23.4     1.70268491     -1075.0875004137  3.86E+00
   102 Broy./Diag. 0.40E+00   23.0     0.45571871     -1077.8853183301 -2.80E+00
   103 Broy./Diag. 0.40E+00   21.0     1.74355334     -1078.0806333447 -1.95E-01
   104 Broy./Diag. 0.40E+00   23.9     1.41573329     -1076.0661462424  2.01E+00
   105 Broy./Diag. 0.40E+00   22.5     0.97946130     -1073.7141406771  2.35E+00
   106 Broy./Diag. 0.40E+00   21.5     1.41560591     -1077.2756920373 -3.56E+00
   107 Broy./Diag. 0.40E+00   21.3     1.57113692     -1077.2340698389  4.16E-02
   108 Broy./Diag. 0.40E+00   21.3     1.72305199     -1076.8650230552  3.69E-01
   109 Broy./Diag. 0.40E+00   21.6     1.75314961     -1076.5229278701  3.42E-01
   110 Broy./Diag. 0.40E+00   23.5     1.80266560     -1074.5425347092  1.98E+00
   111 Broy./Diag. 0.40E+00   22.1     1.81372861     -1078.2274308786 -3.68E+00
   112 Broy./Diag. 0.40E+00   22.3     1.52514939     -1076.8887789279  1.34E+00
   113 Broy./Diag. 0.40E+00   23.4     1.38004601     -1076.5944115929  2.94E-01
   114 Broy./Diag. 0.40E+00   23.6     1.43878257     -1076.1405647737  4.54E-01
   115 Broy./Diag. 0.40E+00   24.7     0.99426492     -1073.7539371609  2.39E+00
   116 Broy./Diag. 0.40E+00   21.8     1.68047182     -1076.6062245848 -2.85E+00
   117 Broy./Diag. 0.40E+00   22.1     1.67749557     -1075.8077090711  7.99E-01
   118 Broy./Diag. 0.40E+00   22.6     1.68971854     -1074.2734551552  1.53E+00
   119 Broy./Diag. 0.40E+00   21.7     1.73180468     -1078.7442223480 -4.47E+00
   120 Broy./Diag. 0.40E+00   21.4     1.79284286     -1078.9461956254 -2.02E-01
   121 Broy./Diag. 0.40E+00   22.6     1.81302956     -1078.2380000589  7.08E-01
   122 Broy./Diag. 0.40E+00   20.8     1.71753065     -1074.3798634846  3.86E+00
   123 Broy./Diag. 0.40E+00   22.8     1.72081916     -1077.8749049418 -3.50E+00
   124 Broy./Diag. 0.40E+00   23.3     1.17668139     -1074.3771554771  3.50E+00
   125 Broy./Diag. 0.40E+00   23.5     1.33977939     -1076.7198512446 -2.34E+00
   126 Broy./Diag. 0.40E+00   23.7     1.38027459     -1076.7091652769  1.07E-02
   127 Broy./Diag. 0.40E+00   23.8     1.50207820     -1074.5371348416  2.17E+00
   128 Broy./Diag. 0.40E+00   23.4     1.56011190     -1078.1262003178 -3.59E+00
   129 Broy./Diag. 0.40E+00   23.6     1.40487500     -1075.6965442456  2.43E+00
   130 Broy./Diag. 0.40E+00   24.1     1.55867577     -1076.5415575383 -8.45E-01
   131 Broy./Diag. 0.40E+00   22.9     1.60885005     -1076.3424197656  1.99E-01
   132 Broy./Diag. 0.40E+00   23.6     1.24391797     -1076.1106119853  2.32E-01
   133 Broy./Diag. 0.40E+00   23.0     0.95791623     -1075.7486281460  3.62E-01
   134 Broy./Diag. 0.40E+00   23.1     1.03592937     -1076.1622024842 -4.14E-01
   135 Broy./Diag. 0.40E+00   23.6     1.80240253     -1074.1514814490  2.01E+00
   136 Broy./Diag. 0.40E+00   24.4     1.80421018     -1080.3426970726 -6.19E+00
   137 Broy./Diag. 0.40E+00   24.5     1.40265970     -1078.7946526159  1.55E+00
   138 Broy./Diag. 0.40E+00   22.4     1.80018735     -1076.0943409028  2.70E+00
   139 Broy./Diag. 0.40E+00   24.8     1.83191067     -1077.2071448160 -1.11E+00
   140 Broy./Diag. 0.40E+00   24.9     1.76414577     -1077.5752306569 -3.68E-01
   141 Broy./Diag. 0.40E+00   21.8     1.50373844     -1076.0399883290  1.54E+00
   142 Broy./Diag. 0.40E+00   22.5     1.51218632     -1076.4615344450 -4.22E-01
   143 Broy./Diag. 0.40E+00   21.2     1.47090393     -1075.9280703529  5.33E-01
   144 Broy./Diag. 0.40E+00   22.6     1.08218965     -1075.8040580466  1.24E-01
   145 Broy./Diag. 0.40E+00   23.2     1.80382105     -1073.8594276965  1.94E+00
   146 Broy./Diag. 0.40E+00   24.0     1.82114366     -1079.1834683352 -5.32E+00
   147 Broy./Diag. 0.40E+00   24.8     1.44281849     -1077.2557881839  1.93E+00
   148 Broy./Diag. 0.40E+00   20.8     1.56151657     -1076.4206863761  8.35E-01
   149 Broy./Diag. 0.40E+00   22.2     1.22160205     -1076.0199725106  4.01E-01
   150 Broy./Diag. 0.40E+00   20.2     0.17665907     -1073.9748881200  2.05E+00
   151 Broy./Diag. 0.40E+00   20.5     1.64011466     -1074.4194148056 -4.45E-01
   152 Broy./Diag. 0.40E+00   21.4     1.79628849     -1078.2747375384 -3.86E+00
   153 Broy./Diag. 0.40E+00   20.4     1.73389388     -1076.5935102412  1.68E+00
   154 Broy./Diag. 0.40E+00   20.4     1.72102064     -1074.6811285271  1.91E+00
   155 Broy./Diag. 0.40E+00   23.2     1.79447265     -1078.2888992709 -3.61E+00
   156 Broy./Diag. 0.40E+00   23.6     1.37381494     -1076.4818125122  1.81E+00
   157 Broy./Diag. 0.40E+00   25.2     1.42798724     -1076.3969475702  8.49E-02
   158 Broy./Diag. 0.40E+00   23.3     1.72103552     -1073.8634310680  2.53E+00
   159 Broy./Diag. 0.40E+00   23.7     1.75418625     -1078.4569395331 -4.59E+00
   160 Broy./Diag. 0.40E+00   24.7     1.12803446     -1076.5787194734  1.88E+00
   161 Broy./Diag. 0.40E+00   23.8     1.75042213     -1076.8551472082 -2.76E-01
   162 Broy./Diag. 0.40E+00   23.7     1.67443459     -1078.1439596987 -1.29E+00
   163 Broy./Diag. 0.40E+00   23.7     1.65804028     -1074.5245157247  3.62E+00
   164 Broy./Diag. 0.40E+00   23.4     1.79594086     -1078.2572853712 -3.73E+00
   165 Broy./Diag. 0.40E+00   23.9     1.81539558     -1078.1839903526  7.33E-02
   166 Broy./Diag. 0.40E+00   23.8     1.38360812     -1074.4245447731  3.76E+00
   167 Broy./Diag. 0.40E+00   22.3     1.39874654     -1076.7343490799 -2.31E+00
   168 Broy./Diag. 0.40E+00   23.8     1.48451124     -1074.4032730954  2.33E+00
   169 Broy./Diag. 0.40E+00   24.6     1.17489243     -1078.4224790548 -4.02E+00
   170 Broy./Diag. 0.40E+00   24.1     1.22725016     -1078.5336265992 -1.11E-01
   171 Broy./Diag. 0.40E+00   25.0     1.71316470     -1077.6833512244  8.50E-01
   172 Broy./Diag. 0.40E+00   23.7     1.69680144     -1078.1978892002 -5.15E-01
   173 Broy./Diag. 0.40E+00   23.5     1.73030664     -1077.9342059911  2.64E-01
   174 Broy./Diag. 0.40E+00   23.8     1.79841094     -1075.9049038941  2.03E+00
   175 Broy./Diag. 0.40E+00   23.7     0.23728446     -1073.5981086895  2.31E+00
   176 Broy./Diag. 0.40E+00   23.8     1.58898222     -1074.8174960498 -1.22E+00
   177 Broy./Diag. 0.40E+00   23.7     1.79653277     -1078.6307781007 -3.81E+00
   178 Broy./Diag. 0.40E+00   24.3     1.81752784     -1078.7793250125 -1.49E-01
   179 Broy./Diag. 0.40E+00   22.1     1.47618075     -1076.3780286237  2.40E+00
   180 Broy./Diag. 0.40E+00   23.7     0.17607460     -1073.9431940871  2.43E+00
   181 Broy./Diag. 0.40E+00   23.3     1.36178444     -1074.4702801196 -5.27E-01
   182 Broy./Diag. 0.40E+00   22.3     1.47328147     -1078.7227382094 -4.25E+00
   183 Broy./Diag. 0.40E+00   23.0     1.36169503     -1076.5894963481  2.13E+00
   184 Broy./Diag. 0.40E+00   22.9     1.79603121     -1076.5434742708  4.60E-02
   185 Broy./Diag. 0.40E+00   22.2     1.80124145     -1076.3594391676  1.84E-01
   186 Broy./Diag. 0.40E+00   24.3     1.61627978     -1076.0859149245  2.74E-01
   187 Broy./Diag. 0.40E+00   23.7     1.77178884     -1074.2154784690  1.87E+00
   188 Broy./Diag. 0.40E+00   24.6     1.80441140     -1078.4337900588 -4.22E+00
   189 Broy./Diag. 0.40E+00   24.3     1.41129263     -1076.6772446785  1.76E+00
   190 Broy./Diag. 0.40E+00   23.0     1.80282469     -1076.4054724073  2.72E-01
   191 Broy./Diag. 0.40E+00   22.4     1.81072457     -1077.9980734881 -1.59E+00
   192 Broy./Diag. 0.40E+00   23.9     1.10688341     -1075.9458322515  2.05E+00
   193 Broy./Diag. 0.40E+00   23.7     1.78541166     -1078.0064729041 -2.06E+00
   194 Broy./Diag. 0.40E+00   22.9     1.80423095     -1076.0165381901  1.99E+00
   195 Broy./Diag. 0.40E+00   23.2     1.76873831     -1073.5429751839  2.47E+00
   196 Broy./Diag. 0.40E+00   23.3     1.77116106     -1077.8241150821 -4.28E+00
   197 Broy./Diag. 0.40E+00   23.7     1.31943176     -1074.4676559599  3.36E+00
   198 Broy./Diag. 0.40E+00   24.5     1.35832666     -1076.6001955915 -2.13E+00
   199 Broy./Diag. 0.40E+00   21.3     1.40536056     -1076.7110722653 -1.11E-01
   200 Broy./Diag. 0.40E+00   22.2     1.27393262     -1075.5077986123  1.20E+00
   201 Broy./Diag. 0.40E+00   23.2     1.64510119     -1076.1401363674 -6.32E-01
   202 Broy./Diag. 0.40E+00   23.6     1.73415449     -1076.4136641662 -2.74E-01
   203 Broy./Diag. 0.40E+00   23.4     1.75823533     -1078.3813791479 -1.97E+00
   204 Broy./Diag. 0.40E+00   23.7     1.77571746     -1076.5057410618  1.88E+00
   205 Broy./Diag. 0.40E+00   23.1     1.47238824     -1074.2265017675  2.28E+00
   206 Broy./Diag. 0.40E+00   22.9     1.37454165     -1076.6279683813 -2.40E+00
   207 Broy./Diag. 0.40E+00   23.1     1.74634100     -1078.5243409525 -1.90E+00
   208 Broy./Diag. 0.40E+00   23.5     1.23947014     -1076.4430252566  2.08E+00
   209 Broy./Diag. 0.40E+00   22.8     1.53967111     -1074.3546004153  2.09E+00
   210 Broy./Diag. 0.40E+00   22.7     1.59769200     -1076.8644088503 -2.51E+00
   211 Broy./Diag. 0.40E+00   22.1     1.68143766     -1077.1652514858 -3.01E-01
   212 Broy./Diag. 0.40E+00   22.4     1.39651618     -1076.3959889765  7.69E-01
   213 Broy./Diag. 0.40E+00   22.7     1.07747469     -1074.2235387967  2.17E+00
   214 Broy./Diag. 0.40E+00   22.3     1.78482219     -1078.2481241166 -4.02E+00
   215 Broy./Diag. 0.40E+00   21.7     1.78353264     -1076.4481588028  1.80E+00
   216 Broy./Diag. 0.40E+00   23.0     1.80385643     -1076.3163664981  1.32E-01
   217 Broy./Diag. 0.40E+00   23.9     1.82445376     -1080.1606990398 -3.84E+00
   218 Broy./Diag. 0.40E+00   24.0     1.67566163     -1076.5562502388  3.60E+00
   219 Broy./Diag. 0.40E+00   22.3     1.71722436     -1075.9757276635  5.81E-01
   220 Broy./Diag. 0.40E+00   22.0     1.03278781     -1076.4803063338 -5.05E-01
   221 Broy./Diag. 0.40E+00   21.4     1.79487219     -1074.0609503256  2.42E+00
   222 Broy./Diag. 0.40E+00   23.2     1.79614072     -1078.8164512565 -4.76E+00
   223 Broy./Diag. 0.40E+00   23.8     1.71074017     -1076.8570891800  1.96E+00
   224 Broy./Diag. 0.40E+00   23.7     1.77164783     -1076.5978319534  2.59E-01
   225 Broy./Diag. 0.40E+00   22.8     1.04094580     -1076.1303365314  4.67E-01
   226 Broy./Diag. 0.40E+00   23.7     0.97065725     -1075.4435103441  6.87E-01
   227 Broy./Diag. 0.40E+00   23.3     1.32812648     -1073.7432265895  1.70E+00
   228 Broy./Diag. 0.40E+00   22.9     1.71465623     -1078.7641230699 -5.02E+00
   229 Broy./Diag. 0.40E+00   21.8     1.75008153     -1078.3917235162  3.72E-01
   230 Broy./Diag. 0.40E+00   21.6     1.73442364     -1076.8847815094  1.51E+00
   231 Broy./Diag. 0.40E+00   23.3     1.79676377     -1074.4414758805  2.44E+00
   232 Broy./Diag. 0.40E+00   23.3     1.80958522     -1078.2860077050 -3.84E+00
   233 Broy./Diag. 0.40E+00   23.4     1.40542388     -1076.6217193056  1.66E+00
   234 Broy./Diag. 0.40E+00   23.9     1.78971109     -1076.2404360316  3.81E-01
   235 Broy./Diag. 0.40E+00   23.9     1.06143902     -1079.6852105460 -3.44E+00
   236 Broy./Diag. 0.40E+00   23.9     1.09102844     -1076.6147110288  3.07E+00
   237 Broy./Diag. 0.40E+00   24.1     1.13863907     -1075.8399725512  7.75E-01
   238 Broy./Diag. 0.40E+00   23.7     1.75555641     -1073.4919548541  2.35E+00
   239 Broy./Diag. 0.40E+00   23.8     1.75735676     -1078.9739432179 -5.48E+00
   240 Broy./Diag. 0.40E+00   23.9     1.48355183     -1077.0826550146  1.89E+00
   241 Broy./Diag. 0.40E+00   23.4     1.28932363     -1076.1807396707  9.02E-01
   242 Broy./Diag. 0.40E+00   23.8     1.54432658     -1076.4191114662 -2.38E-01
   243 Broy./Diag. 0.40E+00   23.5     1.71525393     -1076.9288807016 -5.10E-01
   244 Broy./Diag. 0.40E+00   24.0     1.76954462     -1076.2123249043  7.17E-01
   245 Broy./Diag. 0.40E+00   22.1     1.80772414     -1073.9041651046  2.31E+00
   246 Broy./Diag. 0.40E+00   23.5     1.81533230     -1078.5409468461 -4.64E+00
   247 Broy./Diag. 0.40E+00   23.4     1.72815680     -1076.7748797131  1.77E+00
   248 Broy./Diag. 0.40E+00   23.0     1.63790511     -1074.7637600218  2.01E+00
   249 Broy./Diag. 0.40E+00   23.3     1.38622069     -1078.3778061475 -3.61E+00
   250 Broy./Diag. 0.40E+00   23.2     1.60108429     -1076.2265846738  2.15E+00
   251 Broy./Diag. 0.40E+00   24.0     1.65010640     -1076.2767215529 -5.01E-02
   252 Broy./Diag. 0.40E+00   22.8     1.47895572     -1076.4203624399 -1.44E-01
   253 Broy./Diag. 0.40E+00   21.8     1.72529187     -1076.5091754363 -8.88E-02
   254 Broy./Diag. 0.40E+00   23.2     1.76212355     -1076.3853564889  1.24E-01
   255 Broy./Diag. 0.40E+00   22.9     1.66052242     -1074.1735105661  2.21E+00
   256 Broy./Diag. 0.40E+00   23.6     1.07317430     -1080.3622463718 -6.19E+00
   257 Broy./Diag. 0.40E+00   24.4     1.79228366     -1078.3782276460  1.98E+00
   258 Broy./Diag. 0.40E+00   24.1     1.82579354     -1078.5262157124 -1.48E-01
   259 Broy./Diag. 0.40E+00   23.5     0.27707508     -1074.2054195140  4.32E+00
   260 Broy./Diag. 0.40E+00   24.6     1.17640500     -1074.4273646171 -2.22E-01
   261 Broy./Diag. 0.40E+00   23.6     1.19516837     -1076.1526521325 -1.73E+00
   262 Broy./Diag. 0.40E+00   23.8     1.38051977     -1074.5794067091  1.57E+00
   263 Broy./Diag. 0.40E+00   24.8     1.40755039     -1076.7992207443 -2.22E+00
   264 Broy./Diag. 0.40E+00   22.1     1.79138404     -1076.7030360562  9.62E-02
   265 Broy./Diag. 0.40E+00   21.6     1.79384534     -1077.3142014680 -6.11E-01
   266 Broy./Diag. 0.40E+00   23.3     1.05143043     -1076.9220800663  3.92E-01
   267 Broy./Diag. 0.40E+00   23.7     1.68694201     -1074.8758819205  2.05E+00
   268 Broy./Diag. 0.40E+00   24.0     1.74133355     -1081.4827940416 -6.61E+00
   269 Broy./Diag. 0.40E+00   22.2     1.74088243     -1078.3291282624  3.15E+00
   270 Broy./Diag. 0.40E+00   22.2     1.81509734     -1077.8203440362  5.09E-01
   271 Broy./Diag. 0.40E+00   21.1     1.81433279     -1077.0737555341  7.47E-01
   272 Broy./Diag. 0.40E+00   23.9     1.38638856     -1077.1810810487 -1.07E-01
   273 Broy./Diag. 0.40E+00   24.3     1.50837626     -1075.2462711951  1.93E+00
   274 Broy./Diag. 0.40E+00   23.7     1.79794113     -1073.3121269425  1.93E+00
   275 Broy./Diag. 0.40E+00   24.8     1.81320483     -1079.0622880657 -5.75E+00
   276 Broy./Diag. 0.40E+00   21.7     1.76842648     -1076.9109417595  2.15E+00
   277 Broy./Diag. 0.40E+00   22.2     0.62224794     -1075.4576189273  1.45E+00
   278 Broy./Diag. 0.40E+00   22.9     1.68475983     -1074.1821826459  1.28E+00
   279 Broy./Diag. 0.40E+00   21.1     1.78873082     -1078.2809766198 -4.10E+00
   280 Broy./Diag. 0.40E+00   22.9     1.74558933     -1076.5106053518  1.77E+00
   281 Broy./Diag. 0.40E+00   22.9     0.97068919     -1074.5319573224  1.98E+00
   282 Broy./Diag. 0.40E+00   23.4     1.40580724     -1076.7642308554 -2.23E+00
   283 Broy./Diag. 0.40E+00   22.2     1.46128672     -1076.7536407074  1.06E-02
   284 Broy./Diag. 0.40E+00   21.1     1.48293371     -1076.6087535179  1.45E-01
   285 Broy./Diag. 0.40E+00   22.9     1.73236619     -1076.5437900734  6.50E-02
   286 Broy./Diag. 0.40E+00   21.1     1.78203960     -1076.3172907167  2.26E-01
   287 Broy./Diag. 0.40E+00   23.0     1.80993320     -1074.3888971601  1.93E+00
   288 Broy./Diag. 0.40E+00   23.2     1.81714400     -1078.2774113761 -3.89E+00
   289 Broy./Diag. 0.40E+00   23.0     1.78768122     -1078.5092075529 -2.32E-01
   290 Broy./Diag. 0.40E+00   23.8     1.37014815     -1074.3028712409  4.21E+00
   291 Broy./Diag. 0.40E+00   24.1     1.40198925     -1078.6549779288 -4.35E+00
   292 Broy./Diag. 0.40E+00   24.8     1.80851771     -1078.3189376418  3.36E-01
   293 Broy./Diag. 0.40E+00   24.1     1.57149395     -1077.5056951298  8.13E-01
   294 Broy./Diag. 0.40E+00   23.9     1.18641608     -1074.4306870023  3.08E+00
   295 Broy./Diag. 0.40E+00   22.4     1.20301298     -1076.6612644433 -2.23E+00
   296 Broy./Diag. 0.40E+00   23.4     1.20304479     -1076.5158214884  1.45E-01
   297 Broy./Diag. 0.40E+00   24.1     1.00772743     -1074.6029046308  1.91E+00
   298 Broy./Diag. 0.40E+00   23.5     1.03749645     -1076.5126337969 -1.91E+00
   299 Broy./Diag. 0.40E+00   23.6     1.72780268     -1074.6153006410  1.90E+00
   300 Broy./Diag. 0.40E+00   24.4     1.73896352     -1078.9099902122 -4.29E+00

  Leaving inner SCF loop after reaching   300 steps.


  Electronic density on regular grids:       -511.9991884717        0.0008115283
  Core density on regular grids:              512.0002379012        0.0002379012
  Total charge density on r-space grids:        0.0010494295
  Total charge density g-space grids:           0.0010494295

  Overlap energy of the core charge distribution:               0.00000000000000
  Self energy of the core charge distribution:              -2838.21791979120962
  Core Hamiltonian energy:                                    756.95714112234509
  Hartree energy:                                            1240.98132403986506
  Exchange-correlation energy:                               -238.63053558318342

  Total energy:                                             -1078.90999021218295

 *** WARNING in qs_scf.F:542 :: SCF run NOT converged ***


 ENERGY| Total FORCE_EVAL ( QS ) energy (a.u.):            -1072.818425180016220


 ATOMIC FORCES in [a.u.]

 # Atom   Kind   Element          X              Y              Z
      1      1      O          -0.00618405    -0.05008863     0.02255226
      2      2      H          -0.08529630     0.04298400     0.03921038
      3      2      H           0.06930948     0.04526607    -0.04779110
      4      1      O          -0.09210085    -0.02669452    -0.06570921
      5      2      H           0.02066002     0.04132627    -0.09047332
      6      2      H           0.04968913    -0.02647303     0.04511072
      7      1      O          -0.06154657    -0.09578368     0.00540367
      8      2      H           0.00937725     0.04892990    -0.02844960
      9      2      H           0.03010458    -0.05379334    -0.09172725
     10      1      O           0.00879417     0.00837874     0.02791388
     11      2      H           0.00292190     0.09957103    -0.04021507
     12      2      H          -0.03575905    -0.03058303    -0.04785697
     13      1      O          -0.00494760     0.10050078    -0.07083725
     14      2      H          -0.04531606     0.02421441     0.00610168
     15      2      H           0.02367397    -0.08852760     0.05976807
     16      1      O          -0.05821094    -0.07016081     0.04736946
     17      2      H           0.07283518    -0.02913521    -0.03194071
     18      2      H          -0.01089426    -0.01706402     0.00761144
     19      1      O          -0.03345868    -0.07080197    -0.01322308
     20      2      H           0.01074658     0.01226889     0.02046609
     21      2      H           0.03861590     0.02909077     0.03764186
     22      1      O          -0.05618942    -0.06874646     0.01528638
     23      2      H           0.01498881     0.04291961     0.00362023
     24      2      H           0.05159147    -0.00640588     0.07341237
     25      1      O          -0.01941704    -0.05143207    -0.02355021
     26      2      H          -0.00374783    -0.00509732     0.01425931
     27      2      H          -0.00448242    -0.02702948    -0.00142158
     28      1      O          -0.04948574     0.06641418     0.03989035
     29      2      H           0.00604589    -0.01480823    -0.05747741
     30      2      H           0.06414698    -0.04668472     0.00056399
     31      1      O           0.10313430    -0.09646275     0.03189311
     32      2      H          -0.03091648     0.01825879    -0.01987731
     33      2      H          -0.06854193     0.00244031     0.01417563
     34      1      O           0.10439976     0.02909059    -0.08757546
     35      2      H          -0.02304458     0.09562358    -0.00903499
     36      2      H          -0.06383287    -0.04161893     0.01069435
     37      1      O          -0.07637235    -0.01548763     0.06835061
     38      2      H           0.01712568     0.07296618    -0.04067100
     39      2      H           0.01521511     0.05617844     0.08795322
     40      1      O          -0.01510652    -0.03204231    -0.05392512
     41      2      H          -0.06967818     0.01268418    -0.00327128
     42      2      H           0.06428713     0.04173399     0.00747905
     43      1      O          -0.08194069    -0.07131538    -0.04861862
     44      2      H           0.04293113     0.01700544     0.09421535
     45      2      H           0.00926676     0.09381320    -0.05800569
     46      1      O          -0.03260969    -0.12985110     0.01183525
     47      2      H          -0.07426332     0.08009115    -0.05964829
     48      2      H           0.06659957    -0.00601771    -0.00006332
     49      1      O           0.06799288     0.01021963     0.08680443
     50      2      H          -0.00050155    -0.07128914     0.04231089
     51      2      H          -0.04871677     0.01774573     0.03961934
     52      1      O          -0.08471382    -0.02467355     0.04820556
     53      2      H           0.05576364    -0.05303071    -0.00161540
     54      2      H           0.03566814     0.08755175    -0.04000102
     55      1      O           0.03589889     0.08206921    -0.09693927
     56      2      H          -0.07283914    -0.04953041     0.03299760
     57      2      H           0.02596842     0.02233517     0.07932319
     58      1      O           0.05627698    -0.13072248    -0.02292112
     59      2      H          -0.05991517    -0.00798213     0.00849183
     60      2      H           0.01747989     0.04090800     0.10230041
     61      1      O          -0.03663286    -0.02261451    -0.07505089
     62      2      H           0.05534740     0.03302409     0.02639100
     63      2      H          -0.02360426     0.00982597     0.07702141
     64      1      O           0.03638478    -0.01912499    -0.05747102
     65      2      H           0.03463589     0.06055501     0.06162234
     66      2      H          -0.07866277     0.02985959    -0.04583964
     67      1      O          -0.06776645     0.10689985     0.07656112
     68      2      H           0.02121968    -0.07716595    -0.07972656
     69      2      H           0.05137890    -0.00787343     0.08654378
     70      1      O          -0.03845523    -0.04204472    -0.04925965
     71      2      H           0.05614427     0.03206259    -0.02372135
     72      2      H          -0.03853492     0.04138320    -0.05743583
     73      1      O          -0.02056017    -0.06813420    -0.10234823
     74      2      H           0.06592533    -0.05229391     0.02596768
     75      2      H          -0.03198510    -0.00670549     0.04609017
     76      1      O          -0.08545680    -0.10049339     0.11065974
     77      2      H           0.05493323    -0.01439995     0.00441523
     78      2      H           0.00794439     0.04415752    -0.03418321
     79      1      O          -0.06947607    -0.01549696    -0.00590868
     80      2      H           0.02610484     0.08293929    -0.00730727
     81      2      H           0.05433738    -0.06467782     0.01345641
     82      1      O          -0.06673200     0.00810621    -0.06010341
     83      2      H           0.02334291     0.03294446     0.06043251
     84      2      H           0.01031680     0.01581392    -0.01074113
     85      1      O           0.02347136     0.01241473     0.09478963
     86      2      H          -0.00471093    -0.00312156    -0.03199673
     87      2      H           0.00157012    -0.01286453    -0.00588750
     88      1      O          -0.07440470     0.07971480     0.00178661
     89      2      H           0.00476960    -0.05528929     0.10817046
     90      2      H           0.05746218     0.01122459    -0.00981005
     91      1      O           0.08311403     0.02228204     0.11920095
     92      2      H          -0.07137239     0.06510661    -0.01539254
     93      2      H           0.00403464    -0.00203717    -0.04467236
     94      1      O          -0.07830726    -0.09943316    -0.16758450
     95      2      H           0.17305266    -0.02265017    -0.01966414
     96      2      H          -0.08921129     0.05116625     0.09890749
     97      1      O           0.02458162    -0.09970951    -0.13745815
     98      2      H           0.05161253     0.05023936     0.04245807
     99      2      H          -0.06686259    -0.03432688     0.01207186
    100      1      O          -0.02288441    -0.00698068    -0.06159397
    101      2      H          -0.00670527     0.07673909    -0.00099896
    102      2      H           0.07122488     0.02265007     0.00131472
    103      1      O          -0.13066490     0.10073328     0.07305584
    104      2      H           0.10229826     0.13850690    -0.12008521
    105      2      H           0.02841502    -0.12827603    -0.01905022
    106      1      O           0.00371492    -0.04996353    -0.08111751
    107      2      H          -0.04568390     0.08742238    -0.00571579
    108      2      H           0.03539242     0.04256282     0.08050189
    109      1      O           0.04564582    -0.01602106    -0.00133741
    110      2      H          -0.09314378    -0.01088709     0.00807603
    111      2      H           0.00523223     0.06269360    -0.06884304
    112      1      O          -0.08405943    -0.10252723     0.09295386
    113      2      H           0.06866644     0.01252283     0.00929257
    114      2      H          -0.02195550     0.04729318    -0.02617002
    115      1      O          -0.04527881    -0.02181615    -0.11401517
    116      2      H           0.01275086    -0.08437131     0.02111632
    117      2      H           0.00195360     0.02333844     0.03631853
    118      1      O          -0.01174551    -0.04423997    -0.09599432
    119      2      H          -0.00201460     0.04046604     0.09959807
    120      2      H           0.04062354     0.06078426    -0.00156441
    121      1      O           0.01319316    -0.07804474     0.12543263
    122      2      H          -0.00011370    -0.02113823    -0.10438228
    123      2      H          -0.00868967     0.05546160    -0.02160345
    124      1      O          -0.00711690    -0.04832342     0.07727981
    125      2      H           0.00636133    -0.00586097    -0.03921147
    126      2      H           0.00726729    -0.02112339    -0.02695877
    127      1      O           0.02804466    -0.05066459     0.00269243
    128      2      H           0.02637882    -0.06401860    -0.02658572
    129      2      H          -0.02556594     0.06937264    -0.05751072
    130      1      O           0.00078807     0.00950653     0.08955405
    131      2      H          -0.06598100    -0.00843545    -0.02676778
    132      2      H           0.03900242     0.01578489     0.03142458
    133      1      O           0.02422053    -0.00224292    -0.17518914
    134      2      H           0.02712746     0.10269620     0.01401194
    135      2      H          -0.01842898    -0.08998536     0.08016979
    136      1      O           0.00207450     0.01682538     0.01018197
    137      2      H           0.01017503    -0.06669693     0.04213530
    138      2      H          -0.01128827    -0.01712421    -0.04114194
    139      1      O          -0.06468141     0.04040379    -0.14926775
    140      2      H           0.06326131    -0.04190841     0.06604194
    141      2      H           0.04938626     0.05302974    -0.03183586
    142      1      O          -0.00234095     0.06240239    -0.09512840
    143      2      H           0.03867674    -0.06185173     0.02497671
    144      2      H          -0.02678136     0.03874986     0.09087964
    145      1      O           0.07963236     0.07941084    -0.04089375
    146      2      H          -0.04465305     0.01597842    -0.02471341
    147      2      H          -0.01332207    -0.05527519     0.04890075
    148      1      O          -0.04882526     0.03999031    -0.02112445
    149      2      H           0.00308283    -0.06484358    -0.04802155
    150      2      H           0.00905515    -0.02004403     0.07235425
    151      1      O          -0.02801636    -0.01128438     0.08742048
    152      2      H           0.00088284     0.05031827     0.06366132
    153      2      H          -0.00407567    -0.01688394    -0.03495947
    154      1      O          -0.02459480    -0.11182736     0.14506417
    155      2      H           0.06003751     0.02777434    -0.03132137
    156      2      H          -0.02915556     0.05541075     0.00071369
    157      1      O          -0.07915870    -0.00392690    -0.04719883
    158      2      H           0.06407851    -0.01868383     0.00702093
    159      2      H          -0.00051472    -0.03146154    -0.09178275
    160      1      O           0.04247070     0.01500982    -0.00391271
    161      2      H          -0.04909896    -0.08396576    -0.02366043
    162      2      H           0.02216606     0.02820872    -0.08394974
    163      1      O          -0.01481167     0.12512482     0.07868154
    164      2      H           0.04426851     0.01683115    -0.07220632
    165      2      H          -0.05910035    -0.02206452    -0.05525044
    166      1      O           0.04606320     0.03258966    -0.04859912
    167      2      H          -0.02909293     0.00568152     0.07929736
    168      2      H          -0.06006156     0.01324343    -0.02299055
    169      1      O          -0.05035426     0.03353171    -0.10596235
    170      2      H           0.02454148    -0.10510882     0.00504188
    171      2      H           0.04991278     0.01233272     0.04363414
    172      1      O          -0.01675300    -0.03046036     0.09278980
    173      2      H           0.05311236     0.04879978    -0.01042910
    174      2      H          -0.03653934     0.06575916     0.01093136
    175      1      O           0.05661989    -0.01112581     0.17401941
    176      2      H          -0.05659162     0.06132601     0.00401718
    177      2      H           0.00001506    -0.06913143     0.00368941
    178      1      O          -0.09161004    -0.13765097     0.13582774
    179      2      H           0.07310264     0.02207330     0.00612146
    180      2      H          -0.01786763     0.02269441    -0.07609359
    181      1      O           0.05838560    -0.02284259     0.13797406
    182      2      H           0.03557131     0.08660337    -0.03026169
    183      2      H          -0.07125668     0.00245603     0.01367419
    184      1      O           0.07801869    -0.08135828     0.01716145
    185      2      H          -0.01828312     0.06132494    -0.04188591
    186      2      H          -0.00485970    -0.00803629     0.08577912
    187      1      O          -0.08221372     0.12932530     0.06005819
    188      2      H           0.00964273    -0.04354678     0.04628583
    189      2      H           0.04637432    -0.04849484    -0.02625912
    190      1      O           0.04896725    -0.08731201     0.04529511
    191      2      H          -0.00805188     0.00336114    -0.09949825
    192      2      H          -0.00987961     0.07048783     0.00306050
 SUM OF ATOMIC FORCES          -0.18556076    -0.01972936     0.21741473     0.28651563

 -------------------------------------------------------------------------------
 -                                                                             -
 -                                DBCSR STATISTICS                             -
 -                                                                             -
 -------------------------------------------------------------------------------
 COUNTER                                    TOTAL       BLAS       SMM       ACC
 flops     5 x     5 x   256           3529164800       0.0%    100.0%      0.0%
 flops    13 x     5 x   256           4287395840       0.0%    100.0%      0.0%
 flops     5 x    13 x   256           4377551360       0.0%    100.0%      0.0%
 flops    13 x    13 x   256           6146603008       0.0%    100.0%      0.0%
 flops inhomo. stacks                           0       0.0%      0.0%      0.0%
 flops total                        18.340715E+09       0.0%    100.0%      0.0%
 flops max/rank                     18.340715E+09       0.0%    100.0%      0.0%
 matmuls inhomo. stacks                         0       0.0%      0.0%      0.0%
 matmuls total                             607117       0.0%    100.0%      0.0%
 number of processed stacks                 42140       0.0%    100.0%      0.0%
 average stack size                                     0.0      14.4       0.0
 marketing flops                   333.927416E+09
 -------------------------------------------------------------------------------
 # multiplications                            301
 max memory usage/rank              30.519845E+09
 # max total images/rank                        1
 # max 3D layers                                1
 # MPI messages exchanged                       0
 MPI messages size (bytes):
  total size                         0.000000E+00
  min size                           0.000000E+00
  max size                           0.000000E+00
  average size                       0.000000E+00
 MPI breakdown and total messages size (bytes):
             size <=      128                   0                        0
       128 < size <=     8192                   0                        0
      8192 < size <=    32768                   0                        0
     32768 < size <=   131072                   0                        0
    131072 < size <=  4194304                   0                        0
   4194304 < size <= 16777216                   0                        0
  16777216 < size                               0                        0
 -------------------------------------------------------------------------------

 MEMORY| Estimated peak process memory [MiB]                               29100

 -------------------------------------------------------------------------------
 -                                                                             -
 -                           R E F E R E N C E S                               -
 -                                                                             -
 -------------------------------------------------------------------------------
 
 CP2K version 7.1, the CP2K developers group (2019).
 CP2K is freely available from https://www.cp2k.org/ .

 Schuett, Ole; Messmer, Peter; Hutter, Juerg; VandeVondele, Joost. 
 Electronic Structure Calculations on Graphics Processing Units, John
 Wiley & Sons, Ltd, 173-190 (2016). 
 GPU-Accelerated Sparse Matrix-Matrix Multiplication for
 Linear Scaling Density Functional Theory.
 https://dx.doi.org/10.1002/9781118670712.ch8

 Borstnik, U; VandeVondele, J; Weber, V; Hutter, J. 
 PARALLEL COMPUTING, 40 (5-6), 47-58 (2014). 
 Sparse matrix multiplication: The distributed block-compressed sparse
 row library.
 https://dx.doi.org/10.1016/j.parco.2014.03.012

 Hutter, J; Iannuzzi, M; Schiffmann, F; VandeVondele, J. 
 WIREs Comput Mol Sci., 4 (1), 15-25 (2014). 
 CP2K: atomistic simulations of condensed matter systems.
 https://dx.doi.org/10.1002/wcms.1159

 Krack, M. 
 THEORETICAL CHEMISTRY ACCOUNTS, 114 (1-3), 145-152 (2005). 
 Pseudopotentials for H to Kr optimized for gradient-corrected
 exchange-correlation functionals.
 https://dx.doi.org/10.1007/s00214-005-0655-y

 VandeVondele, J; Krack, M; Mohamed, F; Parrinello, M; Chassaing, T;
 Hutter, J. COMPUTER PHYSICS COMMUNICATIONS, 167 (2), 103-128 (2005). 
 QUICKSTEP: Fast and accurate density functional calculations using a
 mixed Gaussian and plane waves approach.
 https://dx.doi.org/10.1016/j.cpc.2004.12.014

 Frigo, M; Johnson, SG. 
 PROCEEDINGS OF THE IEEE, 93 (2), 216-231 (2005). 
 The design and implementation of FFTW3.
 https://dx.doi.org/10.1109/JPROC.2004.840301

 Hartwigsen, C; Goedecker, S; Hutter, J. 
 PHYSICAL REVIEW B, 58 (7), 3641-3662 (1998). 
 Relativistic separable dual-space Gaussian pseudopotentials from H to Rn.
 https://dx.doi.org/10.1103/PhysRevB.58.3641

 Lippert, G; Hutter, J; Parrinello, M. 
 MOLECULAR PHYSICS, 92 (3), 477-487 (1997). 
 A hybrid Gaussian and plane wave density functional scheme.
 https://dx.doi.org/10.1080/002689797170220

 Goedecker, S; Teter, M; Hutter, J. 
 PHYSICAL REVIEW B, 54 (3), 1703-1710 (1996). 
 Separable dual-space Gaussian pseudopotentials.
 https://dx.doi.org/10.1103/PhysRevB.54.1703


 -------------------------------------------------------------------------------
 -                                                                             -
 -                                T I M I N G                                  -
 -                                                                             -
 -------------------------------------------------------------------------------
 SUBROUTINE                       CALLS  ASD         SELF TIME        TOTAL TIME
                                MAXIMUM       AVERAGE  MAXIMUM  AVERAGE  MAXIMUM
 CP2K                                 1  1.0    1.015    1.015 6926.398 6926.398
 qs_forces                            1  2.0    0.000    0.000 6915.288 6915.288
 qs_energies                          1  3.0    0.000    0.000 6911.519 6911.519
 scf_env_do_scf                       1  4.0    0.001    0.001 6900.300 6900.300
 scf_env_do_scf_inner_loop          300  5.0    0.048    0.048 6900.299 6900.299
 gspace_mixing                      299  6.0   42.145   42.145 2911.520 2911.520
 broyden_mixing                     299  7.0 2628.903 2628.903 2628.907 2628.907
 qs_scf_new_mos                     300  6.0    0.009    0.009 1901.866 1901.866
 eigensolver                        300  7.0    0.032    0.032 1871.093 1871.093
 cp_fm_syevd                        300  8.0 1266.501 1266.501 1267.623 1267.623
 pw_transfer                       3912  9.9    0.377    0.377 1121.724 1121.724
 fft_wrap_pw1pw2                   3310 10.9    0.049    0.049 1096.923 1096.923
 rebuild_ks_matrix                  301  7.0    0.001    0.001 1088.576 1088.576
 qs_ks_build_kohn_sham_matrix       301  8.0    0.084    0.084 1088.575 1088.575
 qs_ks_update_qs_env                300  6.0    0.004    0.004 1085.144 1085.144
 fft_wrap_pw1pw2_70                1504 11.2   86.384   86.384 1008.983 1008.983
 qs_rho_update_rho                  301  6.0    0.003    0.003 1003.550 1003.550
 calculate_rho_elec                 301  7.0  488.944  488.944 1003.547 1003.547
 cp_fm_cholesky_restore             900  8.0  602.314  602.314  602.314  602.314
 fft3d_s                           3311 12.9  517.592  517.592  517.620  517.620
 density_rs2pw                      301  8.0    0.030    0.030  507.226  507.226
 pw_scatter_s                      1804 13.2  410.067  410.067  410.067  410.067
 pw_poisson_solve                   301  9.0  333.084  333.084  357.860  357.860
 sum_up_and_integrate               301  9.0   18.447   18.447  287.510  287.510
 integrate_v_rspace                 301 10.0    7.624    7.624  269.062  269.062
 potential_pw2rs                    301 11.0    2.508    2.508  260.435  260.435
 qs_vxc_create                      301  9.0    0.007    0.007  158.997  158.997
 xc_vxc_pw_create                   301 10.0   42.297   42.297  158.990  158.990
 -------------------------------------------------------------------------------

 The number of warnings for this run is : 1
 
 -------------------------------------------------------------------------------
  **** **** ******  **  PROGRAM ENDED AT                 2020-05-28 13:22:30.407
 ***** ** ***  *** **   PROGRAM RAN ON                                   gnode44
 **    ****   ******    PROGRAM RAN BY                               mayank.modi
 ***** **    ** ** **   PROGRAM PROCESS ID                                 14036
  **** **  *******  **  PROGRAM STOPPED IN /home/mayank.modi/ab-initio-thermodyn
                                           amics-of-water/mayank/cp2k_energy_cal
                                           culations
