 DBCSR| CPU Multiplication driver                                           XSMM
 DBCSR| Multrec recursion limit                                              512
 DBCSR| Multiplication stack size                                           1000
 DBCSR| Maximum elements for images                                    UNLIMITED
 DBCSR| Multiplicative factor virtual images                                   1
 DBCSR| Use multiplication densification                                       T
 DBCSR| Multiplication size stacks                                             3


  **** **** ******  **  PROGRAM STARTED AT               2020-05-28 05:36:12.423
 ***** ** ***  *** **   PROGRAM STARTED ON                               gnode44
 **    ****   ******    PROGRAM STARTED BY                           mayank.modi
 ***** **    ** ** **   PROGRAM PROCESS ID                                 10019
  **** **  *******  **  PROGRAM STARTED IN /home/mayank.modi/ab-initio-thermodyn
                                           amics-of-water/mayank/cp2k_energy_cal
                                           culations

 CP2K| version string:                                          CP2K version 7.1
 CP2K| source code revision number:                                  git:e635599
 CP2K| cp2kflags: omp libint fftw3 libxc xsmm spglib                            
 CP2K| is freely available from                            https://www.cp2k.org/
 CP2K| Program compiled at                          Mon Dec 23 19:23:12 CET 2019
 CP2K| Program compiled on                                                pc9404
 CP2K| Program compiled for                                Linux-x86-64-gfortran
 CP2K| Data directory path                                        /opt/cp2k/data
 CP2K| Input file name                                 input_training/input19.in

 GLOBAL| Force Environment number                                              1
 GLOBAL| Basis set file name                                           BASIS_SET
 GLOBAL| Potential file name                                      GTH_POTENTIALS
 GLOBAL| MM Potential file name                                     MM_POTENTIAL
 GLOBAL| Coordinate file name                                      __STD_INPUT__
 GLOBAL| Method name                                                        CP2K
 GLOBAL| Project name                                                   H2O_bulk
 GLOBAL| Preferred FFT library                                             FFTW3
 GLOBAL| Preferred diagonalization lib.                                       SL
 GLOBAL| Run type                                                   ENERGY_FORCE
 GLOBAL| All-to-all communication in single precision                          F
 GLOBAL| FFTs using library dependent lengths                                  F
 GLOBAL| Global print level                                                  LOW
 GLOBAL| MPI I/O enabled                                                       T
 GLOBAL| Total number of message passing processes                             1
 GLOBAL| Number of threads for this process                                   36
 GLOBAL| This output is from process                                           0
 GLOBAL| CPU model name                Intel(R) Xeon(R) CPU E5-2640 v4 @ 2.40GHz
 GLOBAL| CPUID                                                              1002
 GLOBAL| Compiled for CPUID                                                    0

 MEMORY| system memory details [Kb]
 MEMORY|                        rank 0           min           max       average
 MEMORY| MemTotal            131893056     131893056     131893056     131893056
 MEMORY| MemFree             121137556     121137556     121137556     121137556
 MEMORY| Buffers               2113616       2113616       2113616       2113616
 MEMORY| Cached                3079976       3079976       3079976       3079976
 MEMORY| Slab                  3302104       3302104       3302104       3302104
 MEMORY| SReclaimable          3100292       3100292       3100292       3100292
 MEMORY| MemLikelyFree       129431440     129431440     129431440     129431440


 GENERATE| WARNING:: No connections detected for Hydrogen - Atom Nr:        39 !
 GENERATE|  Preliminary Number of Bonds generated:                             0
 GENERATE|  Achieved consistency in connectivity generation.

 *******************************************************************************
 *******************************************************************************
 **                                                                           **
 **     #####                         ##              ##                      **
 **    ##   ##            ##          ##              ##                      **
 **   ##     ##                       ##            ######                    **
 **   ##     ##  ##   ##  ##   #####  ##  ##   ####   ##    #####    #####    **
 **   ##     ##  ##   ##  ##  ##      ## ##   ##      ##   ##   ##  ##   ##   **
 **   ##  ## ##  ##   ##  ##  ##      ####     ###    ##   ######   ######    **
 **    ##  ###   ##   ##  ##  ##      ## ##      ##   ##   ##       ##        **
 **     #######   #####   ##   #####  ##  ##  ####    ##    #####   ##        **
 **           ##                                                    ##        **
 **                                                                           **
 **                                                ... make the atoms dance   **
 **                                                                           **
 **            Copyright (C) by CP2K developers group (2000 - 2019)           **
 **                                                                           **
 *******************************************************************************


 TOTAL NUMBERS AND MAXIMUM NUMBERS

  Total number of            - Atomic kinds:                                   2
                             - Atoms:                                        192
                             - Shell sets:                                   384
                             - Shells:                                       704
                             - Primitive Cartesian functions:                960
                             - Cartesian basis functions:                   1536
                             - Spherical basis functions:                   1472

  Maximum angular momentum of- Orbital basis functions:                        2
                             - Local part of the GTH pseudopotential:          2
                             - Non-local part of the GTH pseudopotential:      0


 SCF PARAMETERS         Density guess:                                    ATOMIC
                        --------------------------------------------------------
                        max_scf:                                             300
                        max_scf_history:                                       0
                        max_diis:                                              4
                        --------------------------------------------------------
                        eps_scf:                                        1.00E-07
                        eps_scf_history:                                0.00E+00
                        eps_diis:                                       1.00E-01
                        eps_eigval:                                     1.00E-05
                        --------------------------------------------------------
                        level_shift [a.u.]:                                 0.00
                        --------------------------------------------------------
                        Mixing method:                            BROYDEN_MIXING
                                                charge density mixing in g-space
                        --------------------------------------------------------
                        No outer SCF

 Number of electrons:                                                        512
 Number of occupied orbitals:                                                256
 Number of molecular orbitals:                                               256

 Number of orbital functions:                                               1472
 Number of independent orbital functions:                                   1472

 Extrapolation method: initial_guess


 SCF WAVEFUNCTION OPTIMIZATION

  Step     Update method      Time    Convergence         Total energy    Change
  ------------------------------------------------------------------------------
     1 NoMix/Diag. 0.40E+00   10.4     0.68791333     -1063.9754789749 -1.06E+03
     2 Broy./Diag. 0.40E+00   15.5     1.92424641      -992.4117350946  7.16E+01
     3 Broy./Diag. 0.40E+00   16.5     1.93080671     -1275.4529062714 -2.83E+02
     4 Broy./Diag. 0.40E+00   16.8     1.81984915     -1134.1973704518  1.41E+02
     5 Broy./Diag. 0.40E+00   16.7     1.76385344     -1099.8300305030  3.44E+01
     6 Broy./Diag. 0.40E+00   18.4     1.92216723     -1101.9559750883 -2.13E+00
     7 Broy./Diag. 0.40E+00   19.8     1.80037807     -1102.0383907689 -8.24E-02
     8 Broy./Diag. 0.40E+00   20.9     1.52131489     -1084.9206329556  1.71E+01
     9 Broy./Diag. 0.40E+00   22.0     1.64530489     -1084.7817349338  1.39E-01
    10 Broy./Diag. 0.40E+00   22.9     1.77078014     -1083.3649415448  1.42E+00
    11 Broy./Diag. 0.40E+00   22.3     1.79596432     -1076.0486453891  7.32E+00
    12 Broy./Diag. 0.40E+00   21.3     1.70374306     -1077.4170957127 -1.37E+00
    13 Broy./Diag. 0.40E+00   23.5     1.74751283     -1064.9718108103  1.24E+01
    14 Broy./Diag. 0.40E+00   23.8     1.84285686     -1081.3563572604 -1.64E+01
    15 Broy./Diag. 0.40E+00   22.0     1.70030091     -1078.1796771117  3.18E+00
    16 Broy./Diag. 0.40E+00   23.4     1.76877503     -1075.9646412934  2.22E+00
    17 Broy./Diag. 0.40E+00   24.1     1.85909840     -1074.0277107051  1.94E+00
    18 Broy./Diag. 0.40E+00   21.7     1.63266093     -1078.0364851555 -4.01E+00
    19 Broy./Diag. 0.40E+00   22.8     1.77239297     -1073.3148606288  4.72E+00
    20 Broy./Diag. 0.40E+00   23.4     1.79362179     -1078.1089751668 -4.79E+00
    21 Broy./Diag. 0.40E+00   23.4     1.70282512     -1080.8067975834 -2.70E+00
    22 Broy./Diag. 0.40E+00   24.4     1.52389609     -1074.0654605676  6.74E+00
    23 Broy./Diag. 0.40E+00   23.9     1.57754446     -1075.4016258651 -1.34E+00
    24 Broy./Diag. 0.40E+00   23.8     1.70361200     -1073.2683206168  2.13E+00
    25 Broy./Diag. 0.40E+00   24.0     1.70731645     -1076.0673439602 -2.80E+00
    26 Broy./Diag. 0.40E+00   24.1     1.77054444     -1073.1601514762  2.91E+00
    27 Broy./Diag. 0.40E+00   24.0     1.83387987     -1072.8826380504  2.78E-01
    28 Broy./Diag. 0.40E+00   23.8     1.79168518     -1075.8331335550 -2.95E+00
    29 Broy./Diag. 0.40E+00   24.4     1.73091895     -1076.8710146240 -1.04E+00
    30 Broy./Diag. 0.40E+00   24.0     1.77839761     -1079.7153588844 -2.84E+00
    31 Broy./Diag. 0.40E+00   23.6     1.75434139     -1076.4783212157  3.24E+00
    32 Broy./Diag. 0.40E+00   23.8     1.69568837     -1074.9805452109  1.50E+00
    33 Broy./Diag. 0.40E+00   22.2     1.78935811     -1072.4732516083  2.51E+00
    34 Broy./Diag. 0.40E+00   22.4     1.79871331     -1081.9253005134 -9.45E+00
    35 Broy./Diag. 0.40E+00   21.1     1.80672660     -1077.9594960940  3.97E+00
    36 Broy./Diag. 0.40E+00   23.9     1.67907358     -1079.0856701302 -1.13E+00
    37 Broy./Diag. 0.40E+00   23.4     1.78133824     -1073.5979842110  5.49E+00
    38 Broy./Diag. 0.40E+00   24.4     1.79890844     -1074.6054622330 -1.01E+00
    39 Broy./Diag. 0.40E+00   24.2     1.77878314     -1078.6765473623 -4.07E+00
    40 Broy./Diag. 0.40E+00   24.2     1.69526079     -1078.0828902383  5.94E-01
    41 Broy./Diag. 0.40E+00   23.4     1.74928576     -1079.5042913770 -1.42E+00
    42 Broy./Diag. 0.40E+00   23.6     1.65596877     -1076.5035727851  3.00E+00
    43 Broy./Diag. 0.40E+00   23.3     1.63367730     -1073.6779590104  2.83E+00
    44 Broy./Diag. 0.40E+00   24.2     1.67448802     -1077.3044118077 -3.63E+00
    45 Broy./Diag. 0.40E+00   21.9     1.72271553     -1074.4424591800  2.86E+00
    46 Broy./Diag. 0.40E+00   23.0     1.82092734     -1074.6581816747 -2.16E-01
    47 Broy./Diag. 0.40E+00   22.9     1.84820165     -1074.7514068911 -9.32E-02
    48 Broy./Diag. 0.40E+00   23.3     1.66826437     -1074.9561311665 -2.05E-01
    49 Broy./Diag. 0.40E+00   22.7     1.62024839     -1075.3701470575 -4.14E-01
    50 Broy./Diag. 0.40E+00   24.2     1.80580386     -1075.7356307168 -3.65E-01
    51 Broy./Diag. 0.40E+00   24.0     1.75966752     -1077.6468177721 -1.91E+00
    52 Broy./Diag. 0.40E+00   23.8     1.41476880     -1072.7666297423  4.88E+00
    53 Broy./Diag. 0.40E+00   23.5     1.45996974     -1078.3403231095 -5.57E+00
    54 Broy./Diag. 0.40E+00   23.7     1.58257228     -1072.2494835807  6.09E+00
    55 Broy./Diag. 0.40E+00   23.6     1.73971675     -1077.2294390335 -4.98E+00
    56 Broy./Diag. 0.40E+00   23.5     1.80734491     -1077.9740681128 -7.45E-01
    57 Broy./Diag. 0.40E+00   23.4     1.72655853     -1074.6351903548  3.34E+00
    58 Broy./Diag. 0.40E+00   22.7     1.52675039     -1075.3521869588 -7.17E-01
    59 Broy./Diag. 0.40E+00   21.7     1.79308920     -1079.2765653022 -3.92E+00
    60 Broy./Diag. 0.40E+00   21.3     1.83934250     -1076.6349694913  2.64E+00
    61 Broy./Diag. 0.40E+00   23.3     1.63403937     -1075.3642957974  1.27E+00
    62 Broy./Diag. 0.40E+00   22.9     1.67380632     -1076.7206614345 -1.36E+00
    63 Broy./Diag. 0.40E+00   23.7     1.61491633     -1074.2911924970  2.43E+00
    64 Broy./Diag. 0.40E+00   24.1     1.57784050     -1077.7670743919 -3.48E+00
    65 Broy./Diag. 0.40E+00   23.7     1.61420243     -1077.4026764729  3.64E-01
    66 Broy./Diag. 0.40E+00   23.3     1.66685955     -1072.7664507379  4.64E+00
    67 Broy./Diag. 0.40E+00   23.0     1.67905813     -1076.8324366080 -4.07E+00
    68 Broy./Diag. 0.40E+00   22.3     1.75168956     -1075.7016656538  1.13E+00
    69 Broy./Diag. 0.40E+00   22.6     1.80935211     -1079.0292715871 -3.33E+00
    70 Broy./Diag. 0.40E+00   22.9     1.78128409     -1074.1116637099  4.92E+00
    71 Broy./Diag. 0.40E+00   22.1     1.80640622     -1073.3372218986  7.74E-01
    72 Broy./Diag. 0.40E+00   23.4     1.81575969     -1082.4031522651 -9.07E+00
    73 Broy./Diag. 0.40E+00   24.0     1.76889229     -1073.0014457008  9.40E+00
    74 Broy./Diag. 0.40E+00   24.2     1.83549028     -1075.3107209764 -2.31E+00
    75 Broy./Diag. 0.40E+00   23.6     1.75759103     -1070.6821332435  4.63E+00
    76 Broy./Diag. 0.40E+00   22.9     1.79561826     -1085.0270254625 -1.43E+01
    77 Broy./Diag. 0.40E+00   21.0     1.30646601     -1076.8126421887  8.21E+00
    78 Broy./Diag. 0.40E+00   23.5     1.77647841     -1072.8172719612  4.00E+00
    79 Broy./Diag. 0.40E+00   22.9     1.81876433     -1077.6487807672 -4.83E+00
    80 Broy./Diag. 0.40E+00   23.3     1.76168298     -1075.3347648809  2.31E+00
    81 Broy./Diag. 0.40E+00   24.1     1.55572564     -1077.5526922460 -2.22E+00
    82 Broy./Diag. 0.40E+00   23.8     1.79103732     -1072.4925456022  5.06E+00
    83 Broy./Diag. 0.40E+00   24.1     1.82218291     -1077.0979141183 -4.61E+00
    84 Broy./Diag. 0.40E+00   23.8     1.61898637     -1077.6564509477 -5.59E-01
    85 Broy./Diag. 0.40E+00   23.9     1.54714357     -1072.8077198732  4.85E+00
    86 Broy./Diag. 0.40E+00   22.9     1.52809274     -1079.2206408329 -6.41E+00
    87 Broy./Diag. 0.40E+00   23.8     1.71872180     -1074.6903729033  4.53E+00
    88 Broy./Diag. 0.40E+00   24.0     1.82359111     -1077.8555965426 -3.17E+00
    89 Broy./Diag. 0.40E+00   22.3     1.76664601     -1078.0285190375 -1.73E-01
    90 Broy./Diag. 0.40E+00   23.5     1.82317111     -1075.0607048254  2.97E+00
    91 Broy./Diag. 0.40E+00   23.2     1.74481814     -1071.8403867086  3.22E+00
    92 Broy./Diag. 0.40E+00   23.6     1.68704186     -1080.9741917160 -9.13E+00
    93 Broy./Diag. 0.40E+00   23.8     1.62968762     -1073.6072930820  7.37E+00
    94 Broy./Diag. 0.40E+00   23.5     1.63800328     -1078.1465271246 -4.54E+00
    95 Broy./Diag. 0.40E+00   23.3     1.37664324     -1075.8646966657  2.28E+00
    96 Broy./Diag. 0.40E+00   22.5     1.77332705     -1075.6027161244  2.62E-01
    97 Broy./Diag. 0.40E+00   22.0     1.81304021     -1074.6429064033  9.60E-01
    98 Broy./Diag. 0.40E+00   21.1     1.69893898     -1080.2177217295 -5.57E+00
    99 Broy./Diag. 0.40E+00   23.4     1.58680335     -1074.5351994528  5.68E+00
   100 Broy./Diag. 0.40E+00   23.6     1.76544562     -1072.7782584416  1.76E+00
   101 Broy./Diag. 0.40E+00   24.5     1.82927206     -1076.3816102161 -3.60E+00
   102 Broy./Diag. 0.40E+00   23.0     1.64305732     -1075.2848862477  1.10E+00
   103 Broy./Diag. 0.40E+00   24.0     1.77194973     -1077.5727346474 -2.29E+00
   104 Broy./Diag. 0.40E+00   24.5     1.80800208     -1080.5377327861 -2.96E+00
   105 Broy./Diag. 0.40E+00   21.4     1.76294211     -1075.4736397008  5.06E+00
   106 Broy./Diag. 0.40E+00   22.7     1.77770691     -1074.9684760905  5.05E-01
   107 Broy./Diag. 0.40E+00   23.0     1.86125179     -1074.6255400027  3.43E-01
   108 Broy./Diag. 0.40E+00   23.9     1.69203832     -1076.2935331433 -1.67E+00
   109 Broy./Diag. 0.40E+00   23.6     1.60689315     -1073.1950577704  3.10E+00
   110 Broy./Diag. 0.40E+00   24.1     1.26442392     -1078.4482211905 -5.25E+00
   111 Broy./Diag. 0.40E+00   23.4     1.76955953     -1072.0278050281  6.42E+00
   112 Broy./Diag. 0.40E+00   21.8     1.81674754     -1082.1608899516 -1.01E+01
   113 Broy./Diag. 0.40E+00   23.2     1.59513208     -1076.4061655310  5.75E+00
   114 Broy./Diag. 0.40E+00   24.0     1.25366251     -1073.9824811869  2.42E+00
   115 Broy./Diag. 0.40E+00   23.5     1.77401185     -1070.7698338617  3.21E+00
   116 Broy./Diag. 0.40E+00   24.0     1.81116378     -1077.5633366714 -6.79E+00
   117 Broy./Diag. 0.40E+00   21.8     1.65318921     -1075.8382358792  1.73E+00
   118 Broy./Diag. 0.40E+00   22.9     1.70213136     -1076.9563495247 -1.12E+00
   119 Broy./Diag. 0.40E+00   21.1     1.66143485     -1075.5068272520  1.45E+00
   120 Broy./Diag. 0.40E+00   22.3     1.80859770     -1078.8367003122 -3.33E+00
   121 Broy./Diag. 0.40E+00   22.7     1.81546936     -1077.4436060066  1.39E+00
   122 Broy./Diag. 0.40E+00   22.1     1.55243008     -1072.8891019894  4.55E+00
   123 Broy./Diag. 0.40E+00   22.2     1.67262821     -1078.3367745680 -5.45E+00
   124 Broy./Diag. 0.40E+00   22.8     1.77551961     -1076.7872857438  1.55E+00
   125 Broy./Diag. 0.40E+00   23.8     1.78923199     -1071.6648386224  5.12E+00
   126 Broy./Diag. 0.40E+00   24.3     1.79304396     -1082.5535273805 -1.09E+01
   127 Broy./Diag. 0.40E+00   24.1     1.65368769     -1075.2125246997  7.34E+00
   128 Broy./Diag. 0.40E+00   23.6     1.72816774     -1075.7866627038 -5.74E-01
   129 Broy./Diag. 0.40E+00   23.7     1.64195106     -1072.8742359568  2.91E+00
   130 Broy./Diag. 0.40E+00   22.3     1.77974484     -1075.3751912716 -2.50E+00
   131 Broy./Diag. 0.40E+00   23.6     1.72292091     -1076.6419035691 -1.27E+00
   132 Broy./Diag. 0.40E+00   23.2     1.55043527     -1074.9465211701  1.70E+00
   133 Broy./Diag. 0.40E+00   23.6     1.71800120     -1073.7949828547  1.15E+00
   134 Broy./Diag. 0.40E+00   24.1     1.71226227     -1076.3331237700 -2.54E+00
   135 Broy./Diag. 0.40E+00   22.4     1.64481402     -1080.1751400844 -3.84E+00
   136 Broy./Diag. 0.40E+00   23.5     1.68778078     -1076.4738124707  3.70E+00
   137 Broy./Diag. 0.40E+00   23.2     1.63964926     -1072.5163806643  3.96E+00
   138 Broy./Diag. 0.40E+00   23.5     1.66627885     -1077.4497060059 -4.93E+00
   139 Broy./Diag. 0.40E+00   23.8     1.54092189     -1073.6385977866  3.81E+00
   140 Broy./Diag. 0.40E+00   23.5     1.54433912     -1074.6952049852 -1.06E+00
   141 Broy./Diag. 0.40E+00   24.2     1.76500688     -1075.8972031498 -1.20E+00
   142 Broy./Diag. 0.40E+00   22.1     1.78557530     -1074.2316284133  1.67E+00
   143 Broy./Diag. 0.40E+00   23.6     1.77085796     -1075.2512292715 -1.02E+00
   144 Broy./Diag. 0.40E+00   23.6     1.82975841     -1078.9523440058 -3.70E+00
   145 Broy./Diag. 0.40E+00   23.7     1.72144831     -1075.7967315839  3.16E+00
   146 Broy./Diag. 0.40E+00   24.4     1.80273056     -1080.1282697655 -4.33E+00
   147 Broy./Diag. 0.40E+00   23.9     1.61245515     -1074.2135032527  5.91E+00
   148 Broy./Diag. 0.40E+00   24.1     1.73834596     -1075.0417922939 -8.28E-01
   149 Broy./Diag. 0.40E+00   24.0     1.78280538     -1075.3189863522 -2.77E-01
   150 Broy./Diag. 0.40E+00   23.7     1.78660795     -1076.2773132244 -9.58E-01
   151 Broy./Diag. 0.40E+00   24.0     1.78759830     -1077.6757866685 -1.40E+00
   152 Broy./Diag. 0.40E+00   24.5     1.80495488     -1072.2459304448  5.43E+00
   153 Broy./Diag. 0.40E+00   23.4     1.79149442     -1077.2710101799 -5.03E+00
   154 Broy./Diag. 0.40E+00   23.4     1.82699057     -1077.6601850903 -3.89E-01
   155 Broy./Diag. 0.40E+00   21.8     1.28679008     -1071.5368473723  6.12E+00
   156 Broy./Diag. 0.40E+00   22.2     1.44040935     -1074.4345038452 -2.90E+00
   157 Broy./Diag. 0.40E+00   24.3     1.60572150     -1073.5831934502  8.51E-01
   158 Broy./Diag. 0.40E+00   24.1     1.76134033     -1077.0347280236 -3.45E+00
   159 Broy./Diag. 0.40E+00   25.0     1.80228424     -1074.6872160407  2.35E+00
   160 Broy./Diag. 0.40E+00   23.8     1.87112109     -1075.1880991638 -5.01E-01
   161 Broy./Diag. 0.40E+00   23.5     1.85511252     -1075.1997957930 -1.17E-02
   162 Broy./Diag. 0.40E+00   23.7     1.76366831     -1075.3421823192 -1.42E-01
   163 Broy./Diag. 0.40E+00   23.4     1.75502604     -1074.4510442624  8.91E-01
   164 Broy./Diag. 0.40E+00   24.7     1.72703859     -1077.4172072563 -2.97E+00
   165 Broy./Diag. 0.40E+00   23.5     1.69341305     -1076.4520681637  9.65E-01
   166 Broy./Diag. 0.40E+00   23.3     1.71324098     -1074.6654241828  1.79E+00
   167 Broy./Diag. 0.40E+00   23.6     1.60141923     -1074.4567922469  2.09E-01
   168 Broy./Diag. 0.40E+00   23.5     1.77563585     -1078.5591076385 -4.10E+00
   169 Broy./Diag. 0.40E+00   23.6     1.85311837     -1077.9501082122  6.09E-01
   170 Broy./Diag. 0.40E+00   22.2     1.60704797     -1072.3378105834  5.61E+00
   171 Broy./Diag. 0.40E+00   22.7     1.60267870     -1073.3372499837 -9.99E-01
   172 Broy./Diag. 0.40E+00   23.3     1.61799801     -1077.0486290710 -3.71E+00
   173 Broy./Diag. 0.40E+00   22.9     1.77649284     -1075.2234863848  1.83E+00
   174 Broy./Diag. 0.40E+00   22.2     1.76855127     -1081.1151651315 -5.89E+00
   175 Broy./Diag. 0.40E+00   23.6     1.78047237     -1074.9599102380  6.16E+00
   176 Broy./Diag. 0.40E+00   24.5     1.81500469     -1073.6306224496  1.33E+00
   177 Broy./Diag. 0.40E+00   24.1     1.60597927     -1076.6083650864 -2.98E+00
   178 Broy./Diag. 0.40E+00   24.5     1.67386133     -1075.4547876532  1.15E+00
   179 Broy./Diag. 0.40E+00   24.0     1.67256160     -1073.5274671788  1.93E+00
   180 Broy./Diag. 0.40E+00   23.8     1.74994891     -1076.0819852197 -2.55E+00
   181 Broy./Diag. 0.40E+00   24.1     1.67365906     -1073.2913123459  2.79E+00
   182 Broy./Diag. 0.40E+00   24.3     1.79182713     -1072.6368479560  6.54E-01
   183 Broy./Diag. 0.40E+00   23.9     1.80960517     -1076.5570320102 -3.92E+00
   184 Broy./Diag. 0.40E+00   22.2     1.72363058     -1081.0949869097 -4.54E+00
   185 Broy./Diag. 0.40E+00   21.8     1.55222174     -1075.3419432776  5.75E+00
   186 Broy./Diag. 0.40E+00   20.8     1.71950615     -1075.8869658460 -5.45E-01
   187 Broy./Diag. 0.40E+00   22.0     1.78836061     -1079.2646433142 -3.38E+00
   188 Broy./Diag. 0.40E+00   20.5     1.72796684     -1070.8831442786  8.38E+00
   189 Broy./Diag. 0.40E+00   23.2     1.77439684     -1086.7226863250 -1.58E+01
   190 Broy./Diag. 0.40E+00   24.2     1.85354740     -1078.2708336816  8.45E+00
   191 Broy./Diag. 0.40E+00   22.0     1.33701355     -1073.7437177558  4.53E+00
   192 Broy./Diag. 0.40E+00   22.4     1.62330054     -1073.5683576006  1.75E-01
   193 Broy./Diag. 0.40E+00   23.5     1.66326538     -1073.0175009419  5.51E-01
   194 Broy./Diag. 0.40E+00   23.4     1.55661476     -1077.5149603499 -4.50E+00
   195 Broy./Diag. 0.40E+00   23.3     1.64449368     -1073.6121657029  3.90E+00
   196 Broy./Diag. 0.40E+00   23.6     1.68289522     -1079.1354823701 -5.52E+00
   197 Broy./Diag. 0.40E+00   24.3     1.76960117     -1076.9044676605  2.23E+00
   198 Broy./Diag. 0.40E+00   23.7     1.81743503     -1077.4305766318 -5.26E-01
   199 Broy./Diag. 0.40E+00   23.7     1.29031720     -1073.2094536943  4.22E+00
   200 Broy./Diag. 0.40E+00   22.0     1.62426236     -1076.8256635074 -3.62E+00
   201 Broy./Diag. 0.40E+00   23.8     1.68628490     -1078.8645968632 -2.04E+00
   202 Broy./Diag. 0.40E+00   25.1     1.30198413     -1077.5433538745  1.32E+00
   203 Broy./Diag. 0.40E+00   24.0     1.75243212     -1071.5326404374  6.01E+00
   204 Broy./Diag. 0.40E+00   24.0     1.77772033     -1084.3787482885 -1.28E+01
   205 Broy./Diag. 0.40E+00   23.7     1.63232460     -1079.5738132990  4.80E+00
   206 Broy./Diag. 0.40E+00   22.6     1.77266544     -1075.5173769797  4.06E+00
   207 Broy./Diag. 0.40E+00   21.4     1.88573222     -1073.9513057512  1.57E+00
   208 Broy./Diag. 0.40E+00   23.3     1.75307111     -1073.9457299811  5.58E-03
   209 Broy./Diag. 0.40E+00   22.8     1.78052088     -1077.1039909644 -3.16E+00
   210 Broy./Diag. 0.40E+00   21.2     1.65725436     -1076.9473964692  1.57E-01
   211 Broy./Diag. 0.40E+00   22.9     1.69317422     -1077.7828223659 -8.35E-01
   212 Broy./Diag. 0.40E+00   22.9     1.64321229     -1072.2049103956  5.58E+00
   213 Broy./Diag. 0.40E+00   23.3     1.73397997     -1076.2508036554 -4.05E+00
   214 Broy./Diag. 0.40E+00   23.2     1.81791079     -1077.5552494766 -1.30E+00
   215 Broy./Diag. 0.40E+00   22.7     1.59865583     -1072.4285244418  5.13E+00
   216 Broy./Diag. 0.40E+00   21.4     1.71279375     -1073.4546972864 -1.03E+00
   217 Broy./Diag. 0.40E+00   23.3     1.58549984     -1076.6156732096 -3.16E+00
   218 Broy./Diag. 0.40E+00   23.8     1.64606356     -1072.6929681165  3.92E+00
   219 Broy./Diag. 0.40E+00   23.2     1.74359835     -1077.6154256288 -4.92E+00
   220 Broy./Diag. 0.40E+00   23.6     1.79901095     -1079.9638233401 -2.35E+00
   221 Broy./Diag. 0.40E+00   23.3     1.75690027     -1074.2926186177  5.67E+00
   222 Broy./Diag. 0.40E+00   23.9     1.71571057     -1069.7697839969  4.52E+00
   223 Broy./Diag. 0.40E+00   23.8     1.79473788     -1080.5350375196 -1.08E+01
   224 Broy./Diag. 0.40E+00   23.7     1.83343802     -1078.2808774945  2.25E+00
   225 Broy./Diag. 0.40E+00   24.0     1.81042213     -1079.1570093479 -8.76E-01
   226 Broy./Diag. 0.40E+00   24.4     1.70651196     -1077.0750791019  2.08E+00
   227 Broy./Diag. 0.40E+00   22.4     1.71577653     -1075.5995772083  1.48E+00
   228 Broy./Diag. 0.40E+00   23.5     1.81593257     -1074.1071159034  1.49E+00
   229 Broy./Diag. 0.40E+00   22.9     1.76993953     -1077.2334228335 -3.13E+00
   230 Broy./Diag. 0.40E+00   23.1     1.80115365     -1072.5334061615  4.70E+00
   231 Broy./Diag. 0.40E+00   23.4     1.38535867     -1075.8741478260 -3.34E+00
   232 Broy./Diag. 0.40E+00   22.8     1.77541258     -1071.3956281619  4.48E+00
   233 Broy./Diag. 0.40E+00   24.4     1.79151208     -1081.1941023022 -9.80E+00
   234 Broy./Diag. 0.40E+00   24.8     1.28575428     -1076.0393514866  5.15E+00
   235 Broy./Diag. 0.40E+00   23.2     1.59800528     -1075.1902170455  8.49E-01
   236 Broy./Diag. 0.40E+00   24.0     1.68915743     -1075.8604482729 -6.70E-01
   237 Broy./Diag. 0.40E+00   24.2     1.72675539     -1074.3526007643  1.51E+00
   238 Broy./Diag. 0.40E+00   24.7     1.86008132     -1076.0198581562 -1.67E+00
   239 Broy./Diag. 0.40E+00   23.7     1.77551445     -1077.0385528609 -1.02E+00
   240 Broy./Diag. 0.40E+00   23.3     1.61622144     -1075.6322092063  1.41E+00
   241 Broy./Diag. 0.40E+00   24.3     1.70648174     -1073.5045560830  2.13E+00
   242 Broy./Diag. 0.40E+00   24.1     1.68256629     -1078.0272897098 -4.52E+00
   243 Broy./Diag. 0.40E+00   23.9     1.77130232     -1073.6027894827  4.42E+00
   244 Broy./Diag. 0.40E+00   23.8     1.85274598     -1074.4904250976 -8.88E-01
   245 Broy./Diag. 0.40E+00   24.9     1.62040451     -1077.3231461321 -2.83E+00
   246 Broy./Diag. 0.40E+00   23.3     1.74741267     -1074.3030237510  3.02E+00
   247 Broy./Diag. 0.40E+00   23.7     1.80343776     -1076.5573405150 -2.25E+00
   248 Broy./Diag. 0.40E+00   25.1     1.68316679     -1071.9438575921  4.61E+00
   249 Broy./Diag. 0.40E+00   21.9     1.72486223     -1078.0460822448 -6.10E+00
   250 Broy./Diag. 0.40E+00   21.7     1.30872493     -1077.1597155832  8.86E-01
   251 Broy./Diag. 0.40E+00   23.0     1.55122195     -1073.9192617281  3.24E+00
   252 Broy./Diag. 0.40E+00   23.3     1.57968136     -1075.1593220712 -1.24E+00
   253 Broy./Diag. 0.40E+00   23.4     1.64395508     -1073.0330747735  2.13E+00
   254 Broy./Diag. 0.40E+00   23.3     1.70777757     -1076.1521993852 -3.12E+00
   255 Broy./Diag. 0.40E+00   23.6     1.61687093     -1078.8740592206 -2.72E+00
   256 Broy./Diag. 0.40E+00   23.5     1.76388148     -1073.8399394102  5.03E+00
   257 Broy./Diag. 0.40E+00   24.9     1.83553026     -1080.3897788035 -6.55E+00
   258 Broy./Diag. 0.40E+00   22.7     1.44747076     -1073.0772199730  7.31E+00
   259 Broy./Diag. 0.40E+00   23.6     1.47316208     -1075.2390369306 -2.16E+00
   260 Broy./Diag. 0.40E+00   22.3     1.67356311     -1074.7603231671  4.79E-01
   261 Broy./Diag. 0.40E+00   23.0     1.67129930     -1076.9071918945 -2.15E+00
   262 Broy./Diag. 0.40E+00   23.1     1.77688886     -1076.9904543253 -8.33E-02
   263 Broy./Diag. 0.40E+00   23.2     1.81734595     -1072.9353700413  4.06E+00
   264 Broy./Diag. 0.40E+00   23.9     1.65749809     -1077.1215064370 -4.19E+00
   265 Broy./Diag. 0.40E+00   23.6     1.77122527     -1075.4332236988  1.69E+00
   266 Broy./Diag. 0.40E+00   23.8     1.83573078     -1078.1820795549 -2.75E+00
   267 Broy./Diag. 0.40E+00   24.5     1.80385246     -1080.4491190037 -2.27E+00
   268 Broy./Diag. 0.40E+00   25.4     1.80172553     -1070.0831590403  1.04E+01
   269 Broy./Diag. 0.40E+00   22.7     1.79420446     -1084.6608648114 -1.46E+01
   270 Broy./Diag. 0.40E+00   22.4     1.67339347     -1079.3321861639  5.33E+00
   271 Broy./Diag. 0.40E+00   23.1     1.35321428     -1075.5082044952  3.82E+00
   272 Broy./Diag. 0.40E+00   23.4     1.67277647     -1071.2740565910  4.23E+00
   273 Broy./Diag. 0.40E+00   23.5     1.80200748     -1073.3984331580 -2.12E+00
   274 Broy./Diag. 0.40E+00   23.2     1.77030680     -1073.2199162654  1.79E-01
   275 Broy./Diag. 0.40E+00   24.1     1.81364726     -1077.6329472841 -4.41E+00
   276 Broy./Diag. 0.40E+00   23.8     1.81973817     -1077.4813639091  1.52E-01
   277 Broy./Diag. 0.40E+00   24.1     1.82337179     -1075.9915598239  1.49E+00
   278 Broy./Diag. 0.40E+00   23.2     1.77225501     -1077.3984379874 -1.41E+00
   279 Broy./Diag. 0.40E+00   21.9     1.61340043     -1073.1184186100  4.28E+00
   280 Broy./Diag. 0.40E+00   24.8     1.66435006     -1078.2595417391 -5.14E+00
   281 Broy./Diag. 0.40E+00   23.8     1.77077728     -1075.4628043041  2.80E+00
   282 Broy./Diag. 0.40E+00   23.7     1.87065282     -1075.7785329008 -3.16E-01
   283 Broy./Diag. 0.40E+00   23.6     1.65531359     -1073.9827871509  1.80E+00
   284 Broy./Diag. 0.40E+00   23.5     1.75738244     -1077.1020902050 -3.12E+00
   285 Broy./Diag. 0.40E+00   22.9     1.80838752     -1078.8602101434 -1.76E+00
   286 Broy./Diag. 0.40E+00   22.9     1.62430197     -1074.2572601655  4.60E+00
   287 Broy./Diag. 0.40E+00   23.1     1.63180314     -1075.3810361056 -1.12E+00
   288 Broy./Diag. 0.40E+00   23.0     1.65506743     -1074.6296812616  7.51E-01
   289 Broy./Diag. 0.40E+00   24.3     1.79047127     -1076.8115657777 -2.18E+00
   290 Broy./Diag. 0.40E+00   24.0     1.81166076     -1072.2733744216  4.54E+00
   291 Broy./Diag. 0.40E+00   23.9     1.80785680     -1085.0629777544 -1.28E+01
   292 Broy./Diag. 0.40E+00   24.1     1.84028980     -1077.7585056833  7.30E+00
   293 Broy./Diag. 0.40E+00   23.8     1.66400655     -1075.5725547064  2.19E+00
   294 Broy./Diag. 0.40E+00   22.2     1.78254618     -1074.4998207199  1.07E+00
   295 Broy./Diag. 0.40E+00   23.5     1.65805137     -1074.5238746131 -2.41E-02
   296 Broy./Diag. 0.40E+00   23.1     1.67373757     -1072.3663437258  2.16E+00
   297 Broy./Diag. 0.40E+00   23.7     1.69064678     -1079.3511221498 -6.98E+00
   298 Broy./Diag. 0.40E+00   23.8     1.27776597     -1072.2605429639  7.09E+00
   299 Broy./Diag. 0.40E+00   23.7     1.40786566     -1074.1589377408 -1.90E+00
   300 Broy./Diag. 0.40E+00   22.9     1.76237244     -1071.1541345802  3.00E+00

  Leaving inner SCF loop after reaching   300 steps.


  Electronic density on regular grids:       -512.0004262263       -0.0004262263
  Core density on regular grids:              511.9995844337       -0.0004155663
  Total charge density on r-space grids:       -0.0008417926
  Total charge density g-space grids:          -0.0008417926

  Overlap energy of the core charge distribution:               0.00000000000000
  Self energy of the core charge distribution:              -2838.21791979120962
  Core Hamiltonian energy:                                    765.20977157497566
  Hartree energy:                                            1240.20464131729386
  Exchange-correlation energy:                               -238.35062768127213

  Total energy:                                             -1071.15413458021226

 *** WARNING in qs_scf.F:542 :: SCF run NOT converged ***


 ENERGY| Total FORCE_EVAL ( QS ) energy (a.u.):            -1062.509287601666756


 ATOMIC FORCES in [a.u.]

 # Atom   Kind   Element          X              Y              Z
      1      1      O          -0.05288178     0.07984881     0.01946057
      2      2      H           0.03561068     0.00497584     0.00334227
      3      2      H           0.02845516     0.04872745    -0.01368155
      4      1      O          -0.01691140    -0.07342548     0.08824205
      5      2      H           0.02451953     0.00441121     0.02614927
      6      2      H           0.01450111     0.02909573     0.00253625
      7      1      O          -0.05200830     0.02747819    -0.05461505
      8      2      H           0.00618487     0.07609373    -0.07852990
      9      2      H           0.05187091    -0.04108964    -0.01674229
     10      1      O           0.07428911    -0.03256050     0.07375092
     11      2      H           0.00570752     0.03724976    -0.04904261
     12      2      H          -0.07226206     0.03936005     0.09083091
     13      1      O          -0.03359915     0.05251821     0.05921435
     14      2      H           0.01331025    -0.02208922    -0.01514472
     15      2      H          -0.00457588    -0.01134887     0.03345543
     16      1      O          -0.03411153    -0.03558516     0.08670445
     17      2      H          -0.03242583    -0.01327703    -0.04940429
     18      2      H           0.05804719     0.00415088     0.01928521
     19      1      O          -0.06377964    -0.00418112     0.05934629
     20      2      H           0.01520903     0.04543526    -0.10635748
     21      2      H           0.01967160     0.01204866     0.01927699
     22      1      O          -0.02597535     0.10489904    -0.03444684
     23      2      H           0.01212208    -0.03982212    -0.05068327
     24      2      H           0.00000550     0.00345386    -0.00771150
     25      1      O           0.03517397     0.03243318    -0.09437688
     26      2      H          -0.02048094    -0.01373846    -0.02326501
     27      2      H          -0.01957841    -0.01635084     0.03912411
     28      1      O          -0.00539823    -0.03779038    -0.12368965
     29      2      H           0.03190468     0.08247780    -0.02215180
     30      2      H          -0.03221861     0.03961292     0.01494876
     31      1      O          -0.12272214    -0.02813259    -0.12176544
     32      2      H           0.07264393    -0.09461396     0.00763191
     33      2      H           0.03539674     0.10496186    -0.06259709
     34      1      O           0.02049672    -0.02169938     0.05978969
     35      2      H          -0.04713914     0.04394729     0.02303858
     36      2      H           0.01712013     0.06480540    -0.01835022
     37      1      O          -0.00538559    -0.03399009     0.22931252
     38      2      H           0.03742457     0.05911867    -0.28726377
     39      2      H          -0.02978359    -0.05807864     0.01503898
     40      1      O           0.07299869    -0.04759381    -0.02086662
     41      2      H          -0.00638933     0.06522406     0.02886155
     42      2      H          -0.03997323     0.02957957    -0.02255668
     43      1      O          -0.01052293    -0.05841116     0.08394217
     44      2      H          -0.01048445    -0.02858341     0.03439799
     45      2      H           0.02406168     0.05458675    -0.00889375
     46      1      O          -0.06701124    -0.00395220     0.06049959
     47      2      H           0.00101930     0.05586719    -0.04057388
     48      2      H           0.03116267    -0.04833197    -0.03044845
     49      1      O           0.08646708    -0.04734956    -0.00431054
     50      2      H          -0.04871351    -0.01113401     0.11206972
     51      2      H          -0.07044012     0.04091172    -0.04369739
     52      1      O          -0.12309551    -0.09109667    -0.22628200
     53      2      H           0.12477898     0.13610805    -0.04068951
     54      2      H          -0.02496442    -0.05518849     0.24375971
     55      1      O           0.02185901     0.01245746    -0.11229678
     56      2      H           0.00010370    -0.07483502     0.04638867
     57      2      H           0.02735199     0.07040744     0.04658259
     58      1      O          -0.10024159    -0.08516221    -0.08904291
     59      2      H           0.01174704     0.11299527     0.03625947
     60      2      H           0.08995728    -0.01132690     0.01551506
     61      1      O           0.03589853     0.10898468     0.12836767
     62      2      H          -0.00767534    -0.07960310    -0.01685422
     63      2      H          -0.00414223     0.04068210    -0.06140079
     64      1      O           0.05409859    -0.04362643     0.10701997
     65      2      H           0.02316820     0.04311248    -0.00583679
     66      2      H          -0.06080399     0.02875898    -0.08778037
     67      1      O          -0.06888178    -0.03865136     0.12714643
     68      2      H           0.01585313     0.00186470    -0.09875954
     69      2      H           0.05226077    -0.00799997     0.03127596
     70      1      O          -0.06063700     0.02126235    -0.18189209
     71      2      H          -0.05983832    -0.05199962    -0.00554358
     72      2      H           0.10758196    -0.00342240     0.09842143
     73      1      O           0.07393348    -0.14825798    -0.09468347
     74      2      H          -0.08501093     0.00013183    -0.05997070
     75      2      H          -0.01000487     0.07066565     0.14361941
     76      1      O           0.00102062    -0.03860683     0.06450455
     77      2      H           0.00582170     0.00093434    -0.03430897
     78      2      H           0.00154922     0.02731744    -0.00386215
     79      1      O           0.07929267    -0.07668960    -0.36473525
     80      2      H          -0.08716642     0.16242654     0.24939258
     81      2      H          -0.00900568    -0.03279856    -0.01958192
     82      1      O           0.02426300    -0.00200873     0.05821995
     83      2      H          -0.02109795    -0.11486881     0.04821356
     84      2      H           0.00951768     0.04130343    -0.04370615
     85      1      O          -0.02777541     0.01747538     0.13961529
     86      2      H           0.04928679     0.02941560    -0.01898030
     87      2      H           0.00260623     0.02795852     0.03914331
     88      1      O           0.03994333     0.00938777     0.06091297
     89      2      H          -0.00250494     0.02168146     0.01973032
     90      2      H          -0.01491803     0.04040799    -0.02841582
     91      1      O          -0.02883431    -0.06825385     0.00959496
     92      2      H          -0.01633081     0.03360438     0.09085951
     93      2      H           0.00001282     0.01125442     0.03900286
     94      1      O          -0.04910596     0.13160108    -0.10731601
     95      2      H           0.05199372    -0.02888415    -0.03296986
     96      2      H           0.01514666     0.01691296     0.04728120
     97      1      O           0.07220157     0.08114977     0.07155022
     98      2      H          -0.04000997     0.04592178    -0.08323075
     99      2      H          -0.05528717    -0.05082161     0.03929504
    100      1      O          -0.07271043    -0.13816035    -0.05722886
    101      2      H          -0.01479531     0.06608776     0.07624729
    102      2      H           0.04869139    -0.00204476    -0.05963005
    103      1      O          -0.08415251    -0.02891890     0.09148315
    104      2      H          -0.04237277     0.04986541    -0.03781802
    105      2      H           0.09409796     0.00224309    -0.04570227
    106      1      O           0.01498031     0.05831011     0.12466890
    107      2      H          -0.04315097     0.06078715     0.03788162
    108      2      H          -0.01362796    -0.04481174    -0.08470221
    109      1      O          -0.05106055    -0.14484798    -0.07448431
    110      2      H           0.07399373     0.03299331     0.04898250
    111      2      H          -0.03427025     0.08025838    -0.11337403
    112      1      O          -0.08296966     0.01454509     0.11280524
    113      2      H           0.01378738     0.08137538    -0.00042385
    114      2      H           0.08009562    -0.04015124     0.01674858
    115      1      O           0.06575092    -0.06700336     0.07281862
    116      2      H          -0.02446606    -0.04628168    -0.10753590
    117      2      H          -0.01348949     0.08272771    -0.03178616
    118      1      O          -0.01830741    -0.00717546    -0.02348722
    119      2      H           0.04198794    -0.02476235     0.10406809
    120      2      H          -0.04717507     0.11002353     0.03495105
    121      1      O          -0.02568818    -0.07978015    -0.08137042
    122      2      H           0.00734238    -0.00082208     0.06132399
    123      2      H           0.03042865    -0.00989505     0.01834242
    124      1      O           0.04226643     0.04463179     0.05558172
    125      2      H          -0.03445032    -0.05718970    -0.04720642
    126      2      H           0.02373901     0.00133381    -0.09533081
    127      1      O           0.11483186    -0.09416324     0.13882260
    128      2      H          -0.06425262    -0.01661405    -0.02102344
    129      2      H          -0.01881963     0.14733441     0.03775853
    130      1      O           0.00838890    -0.06388100     0.06118202
    131      2      H          -0.00422265    -0.03735481     0.05337788
    132      2      H           0.01964582     0.01243027    -0.00221578
    133      1      O           0.02429449     0.09598705     0.12249283
    134      2      H           0.02411962    -0.00436175    -0.07617058
    135      2      H          -0.06028073    -0.07336484     0.02890058
    136      1      O           0.09950046    -0.11679208     0.05709326
    137      2      H          -0.08552927    -0.01480811     0.02555958
    138      2      H          -0.01265395     0.12111252    -0.00052029
    139      1      O          -0.06003536    -0.07617867     0.15768245
    140      2      H          -0.02459979     0.05639581    -0.04867658
    141      2      H           0.06929183     0.00117646     0.04742238
    142      1      O          -0.04721892    -0.07403413    -0.05195919
    143      2      H           0.00612568    -0.01252247     0.04641184
    144      2      H           0.00657118     0.10977548    -0.08153822
    145      1      O           0.00664928    -0.10526475     0.13823908
    146      2      H           0.02029466     0.06588440     0.02433076
    147      2      H          -0.04022907    -0.01105750    -0.03177651
    148      1      O           0.02358462     0.07639144    -0.00442697
    149      2      H           0.02683142    -0.00270651     0.00581282
    150      2      H          -0.02288565     0.01188399    -0.00049720
    151      1      O           0.00219001    -0.01955096    -0.06322938
    152      2      H           0.01092773    -0.02631586     0.03784863
    153      2      H           0.00403449     0.01675425     0.02516313
    154      1      O          -0.03429428     0.07262681     0.08943998
    155      2      H          -0.00127013     0.01006129    -0.04393464
    156      2      H           0.04186186     0.04980378     0.00611470
    157      1      O           0.00617897    -0.06861297     0.04558980
    158      2      H           0.00803779     0.03774209    -0.13381322
    159      2      H           0.00232887     0.01550803     0.03797749
    160      1      O          -0.05827200    -0.01599670    -0.19006412
    161      2      H           0.10806392     0.03005989     0.05879040
    162      2      H          -0.04284983    -0.06095805     0.03961739
    163      1      O           0.05145471     0.15195874    -0.04991948
    164      2      H           0.04961003    -0.10111344     0.00966721
    165      2      H          -0.09289910    -0.04332283     0.08533520
    166      1      O          -0.02990365    -0.11477915    -0.05525329
    167      2      H          -0.03834666     0.00837909     0.07697625
    168      2      H           0.07426760     0.06558045     0.01838133
    169      1      O          -0.00672105    -0.10700484    -0.02402538
    170      2      H           0.02665790    -0.03882054     0.03508039
    171      2      H          -0.03184215     0.01656928     0.07355801
    172      1      O          -0.07703500     0.07090541     0.08062383
    173      2      H           0.02345741    -0.03902576    -0.02259494
    174      2      H           0.06111923     0.03911541     0.02031320
    175      1      O          -0.10850855    -0.09313830    -0.07059685
    176      2      H           0.00236511     0.06528352     0.04288774
    177      2      H           0.06609004    -0.01193997     0.05866812
    178      1      O           0.04881505    -0.12643025    -0.08527379
    179      2      H          -0.06599297     0.02205098     0.07913885
    180      2      H           0.02535865     0.10255801    -0.00907054
    181      1      O          -0.07828367    -0.02209203    -0.05048897
    182      2      H          -0.00583210     0.03781085     0.01657037
    183      2      H           0.08972848     0.00326401     0.01605441
    184      1      O          -0.07503981    -0.04529434    -0.13089444
    185      2      H          -0.00550154     0.06313382     0.00380096
    186      2      H           0.08815969    -0.02531529     0.02922908
    187      1      O           0.00486044     0.01085360    -0.01879342
    188      2      H          -0.02749437     0.00462815     0.03884521
    189      2      H          -0.01185763    -0.01912935     0.05766263
    190      1      O          -0.11522991     0.01298578    -0.00196468
    191      2      H           0.08078558    -0.03621622    -0.10666572
    192      2      H           0.00148386     0.06025127     0.05032386
 SUM OF ATOMIC FORCES          -0.15094162     0.60365832     0.77179649     0.99139123

 -------------------------------------------------------------------------------
 -                                                                             -
 -                                DBCSR STATISTICS                             -
 -                                                                             -
 -------------------------------------------------------------------------------
 COUNTER                                    TOTAL       BLAS       SMM       ACC
 flops     5 x     5 x   256           3610073600       0.0%    100.0%      0.0%
 flops    13 x     5 x   256           4457689600       0.0%    100.0%      0.0%
 flops     5 x    13 x   256           4497758720       0.0%    100.0%      0.0%
 flops    13 x    13 x   256           6407052288       0.0%    100.0%      0.0%
 flops inhomo. stacks                           0       0.0%      0.0%      0.0%
 flops total                        18.972574E+09       0.0%    100.0%      0.0%
 flops max/rank                     18.972574E+09       0.0%    100.0%      0.0%
 matmuls inhomo. stacks                         0       0.0%      0.0%      0.0%
 matmuls total                             625177       0.0%    100.0%      0.0%
 number of processed stacks                 42140       0.0%    100.0%      0.0%
 average stack size                                     0.0      14.8       0.0
 marketing flops                   333.927416E+09
 -------------------------------------------------------------------------------
 # multiplications                            301
 max memory usage/rank              30.523916E+09
 # max total images/rank                        1
 # max 3D layers                                1
 # MPI messages exchanged                       0
 MPI messages size (bytes):
  total size                         0.000000E+00
  min size                           0.000000E+00
  max size                           0.000000E+00
  average size                       0.000000E+00
 MPI breakdown and total messages size (bytes):
             size <=      128                   0                        0
       128 < size <=     8192                   0                        0
      8192 < size <=    32768                   0                        0
     32768 < size <=   131072                   0                        0
    131072 < size <=  4194304                   0                        0
   4194304 < size <= 16777216                   0                        0
  16777216 < size                               0                        0
 -------------------------------------------------------------------------------

 MEMORY| Estimated peak process memory [MiB]                               29105

 -------------------------------------------------------------------------------
 -                                                                             -
 -                           R E F E R E N C E S                               -
 -                                                                             -
 -------------------------------------------------------------------------------
 
 CP2K version 7.1, the CP2K developers group (2019).
 CP2K is freely available from https://www.cp2k.org/ .

 Schuett, Ole; Messmer, Peter; Hutter, Juerg; VandeVondele, Joost. 
 Electronic Structure Calculations on Graphics Processing Units, John
 Wiley & Sons, Ltd, 173-190 (2016). 
 GPU-Accelerated Sparse Matrix-Matrix Multiplication for
 Linear Scaling Density Functional Theory.
 https://dx.doi.org/10.1002/9781118670712.ch8

 Borstnik, U; VandeVondele, J; Weber, V; Hutter, J. 
 PARALLEL COMPUTING, 40 (5-6), 47-58 (2014). 
 Sparse matrix multiplication: The distributed block-compressed sparse
 row library.
 https://dx.doi.org/10.1016/j.parco.2014.03.012

 Hutter, J; Iannuzzi, M; Schiffmann, F; VandeVondele, J. 
 WIREs Comput Mol Sci., 4 (1), 15-25 (2014). 
 CP2K: atomistic simulations of condensed matter systems.
 https://dx.doi.org/10.1002/wcms.1159

 Krack, M. 
 THEORETICAL CHEMISTRY ACCOUNTS, 114 (1-3), 145-152 (2005). 
 Pseudopotentials for H to Kr optimized for gradient-corrected
 exchange-correlation functionals.
 https://dx.doi.org/10.1007/s00214-005-0655-y

 VandeVondele, J; Krack, M; Mohamed, F; Parrinello, M; Chassaing, T;
 Hutter, J. COMPUTER PHYSICS COMMUNICATIONS, 167 (2), 103-128 (2005). 
 QUICKSTEP: Fast and accurate density functional calculations using a
 mixed Gaussian and plane waves approach.
 https://dx.doi.org/10.1016/j.cpc.2004.12.014

 Frigo, M; Johnson, SG. 
 PROCEEDINGS OF THE IEEE, 93 (2), 216-231 (2005). 
 The design and implementation of FFTW3.
 https://dx.doi.org/10.1109/JPROC.2004.840301

 Hartwigsen, C; Goedecker, S; Hutter, J. 
 PHYSICAL REVIEW B, 58 (7), 3641-3662 (1998). 
 Relativistic separable dual-space Gaussian pseudopotentials from H to Rn.
 https://dx.doi.org/10.1103/PhysRevB.58.3641

 Lippert, G; Hutter, J; Parrinello, M. 
 MOLECULAR PHYSICS, 92 (3), 477-487 (1997). 
 A hybrid Gaussian and plane wave density functional scheme.
 https://dx.doi.org/10.1080/002689797170220

 Goedecker, S; Teter, M; Hutter, J. 
 PHYSICAL REVIEW B, 54 (3), 1703-1710 (1996). 
 Separable dual-space Gaussian pseudopotentials.
 https://dx.doi.org/10.1103/PhysRevB.54.1703


 -------------------------------------------------------------------------------
 -                                                                             -
 -                                T I M I N G                                  -
 -                                                                             -
 -------------------------------------------------------------------------------
 SUBROUTINE                       CALLS  ASD         SELF TIME        TOTAL TIME
                                MAXIMUM       AVERAGE  MAXIMUM  AVERAGE  MAXIMUM
 CP2K                                 1  1.0    1.008    1.008 6981.358 6981.358
 qs_forces                            1  2.0    0.000    0.000 6970.147 6970.147
 qs_energies                          1  3.0    0.000    0.000 6966.605 6966.605
 scf_env_do_scf                       1  4.0    0.001    0.001 6955.111 6955.111
 scf_env_do_scf_inner_loop          300  5.0    0.051    0.051 6955.110 6955.110
 gspace_mixing                      299  6.0   42.222   42.222 2954.555 2954.555
 broyden_mixing                     299  7.0 2672.265 2672.265 2672.268 2672.268
 qs_scf_new_mos                     300  6.0    0.008    0.008 1909.293 1909.293
 eigensolver                        300  7.0    0.038    0.038 1877.118 1877.118
 cp_fm_syevd                        300  8.0 1269.321 1269.321 1270.458 1270.458
 pw_transfer                       3912  9.9    0.372    0.372 1121.306 1121.306
 fft_wrap_pw1pw2                   3310 10.9    0.051    0.051 1095.972 1095.972
 rebuild_ks_matrix                  301  7.0    0.001    0.001 1093.030 1093.030
 qs_ks_build_kohn_sham_matrix       301  8.0    0.084    0.084 1093.029 1093.029
 qs_ks_update_qs_env                300  6.0    0.004    0.004 1089.841 1089.841
 fft_wrap_pw1pw2_70                1504 11.2   86.376   86.376 1007.299 1007.299
 qs_rho_update_rho                  301  6.0    0.003    0.003 1003.568 1003.568
 calculate_rho_elec                 301  7.0  486.818  486.818 1003.565 1003.565
 cp_fm_cholesky_restore             900  8.0  605.536  605.536  605.536  605.536
 fft3d_s                           3311 12.9  515.749  515.749  515.790  515.790
 density_rs2pw                      301  8.0    0.032    0.032  509.141  509.141
 pw_scatter_s                      1804 13.2  410.143  410.143  410.143  410.143
 pw_poisson_solve                   301  9.0  334.615  334.615  359.928  359.928
 sum_up_and_integrate               301  9.0   18.457   18.457  287.382  287.382
 integrate_v_rspace                 301 10.0    7.740    7.740  268.924  268.924
 potential_pw2rs                    301 11.0    2.505    2.505  259.711  259.711
 qs_vxc_create                      301  9.0    0.008    0.008  161.417  161.417
 xc_vxc_pw_create                   301 10.0   42.341   42.341  161.409  161.409
 -------------------------------------------------------------------------------

 The number of warnings for this run is : 1
 
 -------------------------------------------------------------------------------
  **** **** ******  **  PROGRAM ENDED AT                 2020-05-28 07:32:34.180
 ***** ** ***  *** **   PROGRAM RAN ON                                   gnode44
 **    ****   ******    PROGRAM RAN BY                               mayank.modi
 ***** **    ** ** **   PROGRAM PROCESS ID                                 10019
  **** **  *******  **  PROGRAM STOPPED IN /home/mayank.modi/ab-initio-thermodyn
                                           amics-of-water/mayank/cp2k_energy_cal
                                           culations
