 DBCSR| CPU Multiplication driver                                           XSMM
 DBCSR| Multrec recursion limit                                              512
 DBCSR| Multiplication stack size                                           1000
 DBCSR| Maximum elements for images                                    UNLIMITED
 DBCSR| Multiplicative factor virtual images                                   1
 DBCSR| Use multiplication densification                                       T
 DBCSR| Multiplication size stacks                                             3


  **** **** ******  **  PROGRAM STARTED AT               2020-05-30 15:14:15.636
 ***** ** ***  *** **   PROGRAM STARTED ON                               gnode44
 **    ****   ******    PROGRAM STARTED BY                           mayank.modi
 ***** **    ** ** **   PROGRAM PROCESS ID                                 12443
  **** **  *******  **  PROGRAM STARTED IN /home/mayank.modi/ab-initio-thermodyn
                                           amics-of-water/mayank/cp2k_energy_cal
                                           culations

 CP2K| version string:                                          CP2K version 7.1
 CP2K| source code revision number:                                  git:e635599
 CP2K| cp2kflags: omp libint fftw3 libxc xsmm spglib                            
 CP2K| is freely available from                            https://www.cp2k.org/
 CP2K| Program compiled at                          Mon Dec 23 19:23:12 CET 2019
 CP2K| Program compiled on                                                pc9404
 CP2K| Program compiled for                                Linux-x86-64-gfortran
 CP2K| Data directory path                                        /opt/cp2k/data
 CP2K| Input file name                                 input_training/input48.in

 GLOBAL| Force Environment number                                              1
 GLOBAL| Basis set file name                                           BASIS_SET
 GLOBAL| Potential file name                                      GTH_POTENTIALS
 GLOBAL| MM Potential file name                                     MM_POTENTIAL
 GLOBAL| Coordinate file name                                      __STD_INPUT__
 GLOBAL| Method name                                                        CP2K
 GLOBAL| Project name                                                   H2O_bulk
 GLOBAL| Preferred FFT library                                             FFTW3
 GLOBAL| Preferred diagonalization lib.                                       SL
 GLOBAL| Run type                                                   ENERGY_FORCE
 GLOBAL| All-to-all communication in single precision                          F
 GLOBAL| FFTs using library dependent lengths                                  F
 GLOBAL| Global print level                                                  LOW
 GLOBAL| MPI I/O enabled                                                       T
 GLOBAL| Total number of message passing processes                             1
 GLOBAL| Number of threads for this process                                   36
 GLOBAL| This output is from process                                           0
 GLOBAL| CPU model name                Intel(R) Xeon(R) CPU E5-2640 v4 @ 2.40GHz
 GLOBAL| CPUID                                                              1002
 GLOBAL| Compiled for CPUID                                                    0

 MEMORY| system memory details [Kb]
 MEMORY|                        rank 0           min           max       average
 MEMORY| MemTotal            131893056     131893056     131893056     131893056
 MEMORY| MemFree             118628772     118628772     118628772     118628772
 MEMORY| Buffers               2131904       2131904       2131904       2131904
 MEMORY| Cached                3630268       3630268       3630268       3630268
 MEMORY| Slab                  3322348       3322348       3322348       3322348
 MEMORY| SReclaimable          3108036       3108036       3108036       3108036
 MEMORY| MemLikelyFree       127498980     127498980     127498980     127498980


 GENERATE|  Preliminary Number of Bonds generated:                             0
 GENERATE|  Achieved consistency in connectivity generation.

 *******************************************************************************
 *******************************************************************************
 **                                                                           **
 **     #####                         ##              ##                      **
 **    ##   ##            ##          ##              ##                      **
 **   ##     ##                       ##            ######                    **
 **   ##     ##  ##   ##  ##   #####  ##  ##   ####   ##    #####    #####    **
 **   ##     ##  ##   ##  ##  ##      ## ##   ##      ##   ##   ##  ##   ##   **
 **   ##  ## ##  ##   ##  ##  ##      ####     ###    ##   ######   ######    **
 **    ##  ###   ##   ##  ##  ##      ## ##      ##   ##   ##       ##        **
 **     #######   #####   ##   #####  ##  ##  ####    ##    #####   ##        **
 **           ##                                                    ##        **
 **                                                                           **
 **                                                ... make the atoms dance   **
 **                                                                           **
 **            Copyright (C) by CP2K developers group (2000 - 2019)           **
 **                                                                           **
 *******************************************************************************


 TOTAL NUMBERS AND MAXIMUM NUMBERS

  Total number of            - Atomic kinds:                                   2
                             - Atoms:                                        192
                             - Shell sets:                                   384
                             - Shells:                                       704
                             - Primitive Cartesian functions:                960
                             - Cartesian basis functions:                   1536
                             - Spherical basis functions:                   1472

  Maximum angular momentum of- Orbital basis functions:                        2
                             - Local part of the GTH pseudopotential:          2
                             - Non-local part of the GTH pseudopotential:      0


 SCF PARAMETERS         Density guess:                                    ATOMIC
                        --------------------------------------------------------
                        max_scf:                                             300
                        max_scf_history:                                       0
                        max_diis:                                              4
                        --------------------------------------------------------
                        eps_scf:                                        1.00E-07
                        eps_scf_history:                                0.00E+00
                        eps_diis:                                       1.00E-01
                        eps_eigval:                                     1.00E-05
                        --------------------------------------------------------
                        level_shift [a.u.]:                                 0.00
                        --------------------------------------------------------
                        Mixing method:                            BROYDEN_MIXING
                                                charge density mixing in g-space
                        --------------------------------------------------------
                        No outer SCF

 Number of electrons:                                                        512
 Number of occupied orbitals:                                                256
 Number of molecular orbitals:                                               256

 Number of orbital functions:                                               1472
 Number of independent orbital functions:                                   1472

 Extrapolation method: initial_guess


 SCF WAVEFUNCTION OPTIMIZATION

  Step     Update method      Time    Convergence         Total energy    Change
  ------------------------------------------------------------------------------
     1 NoMix/Diag. 0.40E+00   10.7     0.60608499     -1064.2956199676 -1.06E+03
     2 Broy./Diag. 0.40E+00   16.5     1.82249901      -997.4046081095  6.69E+01
     3 Broy./Diag. 0.40E+00   17.8     1.84754563     -1258.9563347151 -2.62E+02
     4 Broy./Diag. 0.40E+00   17.9     1.72818906     -1110.9471242503  1.48E+02
     5 Broy./Diag. 0.40E+00   18.4     1.84924632     -1100.0936859538  1.09E+01
     6 Broy./Diag. 0.40E+00   19.3     1.61951207     -1100.8886238406 -7.95E-01
     7 Broy./Diag. 0.40E+00   20.9     1.41494130     -1091.7088094152  9.18E+00
     8 Broy./Diag. 0.40E+00   21.9     1.20174369     -1084.0536116157  7.66E+00
     9 Broy./Diag. 0.40E+00   23.2     1.36673111     -1083.0574043746  9.96E-01
    10 Broy./Diag. 0.40E+00   22.7     1.18903665     -1080.3522635817  2.71E+00
    11 Broy./Diag. 0.40E+00   24.6     0.21342822     -1076.7250610863  3.63E+00
    12 Broy./Diag. 0.40E+00   22.9     0.07711019     -1076.1878976074  5.37E-01
    13 Broy./Diag. 0.40E+00   23.6     0.07923820     -1072.7366524027  3.45E+00
    14 Broy./Diag. 0.40E+00   24.3     1.09170208     -1077.4297399595 -4.69E+00
    15 Broy./Diag. 0.40E+00   24.4     1.11228159     -1079.2506277051 -1.82E+00
    16 Broy./Diag. 0.40E+00   23.6     0.85493312     -1076.2978029150  2.95E+00
    17 Broy./Diag. 0.40E+00   23.2     0.81524496     -1076.4481633843 -1.50E-01
    18 Broy./Diag. 0.40E+00   22.1     0.83843092     -1075.2928733325  1.16E+00
    19 Broy./Diag. 0.40E+00   24.3     0.06278120     -1078.1775327513 -2.88E+00
    20 Broy./Diag. 0.40E+00   25.0     0.09603814     -1077.1140670924  1.06E+00
    21 Broy./Diag. 0.40E+00   24.7     1.00536629     -1077.5403878167 -4.26E-01
    22 Broy./Diag. 0.40E+00   24.2     0.82705667     -1077.7253473961 -1.85E-01
    23 Broy./Diag. 0.40E+00   24.3     0.06228571     -1076.2862861322  1.44E+00
    24 Broy./Diag. 0.40E+00   24.4     0.05072835     -1076.6636360027 -3.77E-01
    25 Broy./Diag. 0.40E+00   24.4     0.06183141     -1076.0785464156  5.85E-01
    26 Broy./Diag. 0.40E+00   24.2     0.09548668     -1076.0592622684  1.93E-02
    27 Broy./Diag. 0.40E+00   24.9     0.02566380     -1076.2719028566 -2.13E-01
    28 Broy./Diag. 0.40E+00   23.9     1.10498681     -1076.3098668656 -3.80E-02
    29 Broy./Diag. 0.40E+00   24.3     1.11736890     -1077.6835200474 -1.37E+00
    30 Broy./Diag. 0.40E+00   24.7     0.66381985     -1077.1737914432  5.10E-01
    31 Broy./Diag. 0.40E+00   25.0     0.11777246     -1076.0230849725  1.15E+00
    32 Broy./Diag. 0.40E+00   24.6     0.78849840     -1076.2849781001 -2.62E-01
    33 Broy./Diag. 0.40E+00   24.7     0.81454692     -1077.6667832656 -1.38E+00
    34 Broy./Diag. 0.40E+00   24.0     0.02796616     -1076.1514477927  1.52E+00
    35 Broy./Diag. 0.40E+00   24.4     1.07997276     -1076.1759523193 -2.45E-02
    36 Broy./Diag. 0.40E+00   24.1     1.09140087     -1077.5693175301 -1.39E+00
    37 Broy./Diag. 0.40E+00   25.4     0.02410280     -1076.1527516664  1.42E+00
    38 Broy./Diag. 0.40E+00   24.1     0.03596904     -1076.2308493854 -7.81E-02
    39 Broy./Diag. 0.40E+00   24.4     0.82390727     -1076.2024785914  2.84E-02
    40 Broy./Diag. 0.40E+00   23.8     0.97974537     -1077.8591019345 -1.66E+00
    41 Broy./Diag. 0.40E+00   23.2     0.90721206     -1075.9323420820  1.93E+00
    42 Broy./Diag. 0.40E+00   23.8     0.05288770     -1077.7573494608 -1.83E+00
    43 Broy./Diag. 0.40E+00   24.4     1.10996954     -1077.7798875423 -2.25E-02
    44 Broy./Diag. 0.40E+00   24.5     1.14033332     -1077.6290217906  1.51E-01
    45 Broy./Diag. 0.40E+00   24.1     1.12973037     -1077.4596478574  1.69E-01
    46 Broy./Diag. 0.40E+00   24.2     0.36483471     -1076.1906878940  1.27E+00
    47 Broy./Diag. 0.40E+00   23.9     0.12403624     -1075.8250062025  3.66E-01
    48 Broy./Diag. 0.40E+00   23.9     0.03438581     -1076.0899541103 -2.65E-01
    49 Broy./Diag. 0.40E+00   25.4     0.01715945     -1076.0541268959  3.58E-02
    50 Broy./Diag. 0.40E+00   24.0     0.79670285     -1076.1181848998 -6.41E-02
    51 Broy./Diag. 0.40E+00   24.6     0.81119154     -1077.6327565336 -1.51E+00
    52 Broy./Diag. 0.40E+00   24.0     0.90425633     -1076.1601174470  1.47E+00
    53 Broy./Diag. 0.40E+00   23.5     0.98541272     -1078.0723480108 -1.91E+00
    54 Broy./Diag. 0.40E+00   24.2     1.11333610     -1076.0328037047  2.04E+00
    55 Broy./Diag. 0.40E+00   24.1     1.11253597     -1077.6984824114 -1.67E+00
    56 Broy./Diag. 0.40E+00   24.3     0.10359323     -1076.1748503006  1.52E+00
    57 Broy./Diag. 0.40E+00   23.6     0.04655129     -1076.0074702023  1.67E-01
    58 Broy./Diag. 0.40E+00   24.3     0.84104248     -1076.1510814456 -1.44E-01
    59 Broy./Diag. 0.40E+00   23.0     0.88439386     -1077.5354429151 -1.38E+00
    60 Broy./Diag. 0.40E+00   24.1     0.09824961     -1076.2218886634  1.31E+00
    61 Broy./Diag. 0.40E+00   23.2     0.78944187     -1076.0252625533  1.97E-01
    62 Broy./Diag. 0.40E+00   24.2     0.81309529     -1077.6366364344 -1.61E+00
    63 Broy./Diag. 0.40E+00   24.2     0.03313732     -1076.1038379455  1.53E+00
    64 Broy./Diag. 0.40E+00   24.8     1.09908121     -1076.1181258957 -1.43E-02
    65 Broy./Diag. 0.40E+00   24.7     1.12145477     -1077.7018230731 -1.58E+00
    66 Broy./Diag. 0.40E+00   24.7     0.88918276     -1076.1106244868  1.59E+00
    67 Broy./Diag. 0.40E+00   25.0     0.82850529     -1077.5938031773 -1.48E+00
    68 Broy./Diag. 0.40E+00   24.7     0.12444395     -1076.1594419777  1.43E+00
    69 Broy./Diag. 0.40E+00   24.6     1.76950473     -1076.0389835803  1.20E-01
    70 Broy./Diag. 0.40E+00   24.7     1.77686261     -1077.6002662575 -1.56E+00
    71 Broy./Diag. 0.40E+00   24.6     0.81406017     -1076.1206592324  1.48E+00
    72 Broy./Diag. 0.40E+00   24.6     0.82687601     -1077.6471777335 -1.53E+00
    73 Broy./Diag. 0.40E+00   25.0     0.08532890     -1076.0586416997  1.59E+00
    74 Broy./Diag. 0.40E+00   24.7     1.08132314     -1076.2786101514 -2.20E-01
    75 Broy./Diag. 0.40E+00   25.3     1.09693499     -1077.5605128435 -1.28E+00
    76 Broy./Diag. 0.40E+00   24.5     1.32191930     -1076.0872417916  1.47E+00
    77 Broy./Diag. 0.40E+00   24.4     1.48900780     -1078.8864572974 -2.80E+00
    78 Broy./Diag. 0.40E+00   23.8     1.54076806     -1077.5436834963  1.34E+00
    79 Broy./Diag. 0.40E+00   24.2     0.86045667     -1077.3598642348  1.84E-01
    80 Broy./Diag. 0.40E+00   25.4     0.19691907     -1075.9479977780  1.41E+00
    81 Broy./Diag. 0.40E+00   22.3     0.12559164     -1076.0364632976 -8.85E-02
    82 Broy./Diag. 0.40E+00   23.6     0.03844825     -1076.0535093872 -1.70E-02
    83 Broy./Diag. 0.40E+00   24.2     0.01356694     -1076.2267439706 -1.73E-01
    84 Broy./Diag. 0.40E+00   24.1     0.79434163     -1076.1178465214  1.09E-01
    85 Broy./Diag. 0.40E+00   24.7     1.10504840     -1077.7503397630 -1.63E+00
    86 Broy./Diag. 0.40E+00   24.2     1.13614643     -1077.6385422422  1.12E-01
    87 Broy./Diag. 0.40E+00   25.3     0.08846305     -1076.1053048227  1.53E+00
    88 Broy./Diag. 0.40E+00   24.7     0.93740283     -1076.4513841212 -3.46E-01
    89 Broy./Diag. 0.40E+00   24.9     0.89314288     -1078.1592665818 -1.71E+00
    90 Broy./Diag. 0.40E+00   25.0     0.82025005     -1075.9834477862  2.18E+00
    91 Broy./Diag. 0.40E+00   24.5     0.84708057     -1077.6070349158 -1.62E+00
    92 Broy./Diag. 0.40E+00   24.6     1.09558342     -1076.0941823472  1.51E+00
    93 Broy./Diag. 0.40E+00   24.2     1.09726546     -1077.7492637295 -1.66E+00
    94 Broy./Diag. 0.40E+00   24.4     0.80315675     -1076.1524653666  1.60E+00
    95 Broy./Diag. 0.40E+00   25.6     0.83906730     -1077.4991199346 -1.35E+00
    96 Broy./Diag. 0.40E+00   22.9     0.20183988     -1076.0333672215  1.47E+00
    97 Broy./Diag. 0.40E+00   23.3     0.06332814     -1076.0319538651  1.41E-03
    98 Broy./Diag. 0.40E+00   24.5     0.02749934     -1076.2688460850 -2.37E-01
    99 Broy./Diag. 0.40E+00   24.0     0.02906120     -1076.1182555311  1.51E-01
   100 Broy./Diag. 0.40E+00   24.6     0.81091009     -1076.1606448586 -4.24E-02
   101 Broy./Diag. 0.40E+00   24.6     0.88009784     -1077.6240041366 -1.46E+00
   102 Broy./Diag. 0.40E+00   24.5     0.80782815     -1076.1036532911  1.52E+00
   103 Broy./Diag. 0.40E+00   24.7     0.79812377     -1077.5803874040 -1.48E+00
   104 Broy./Diag. 0.40E+00   24.6     1.08380659     -1076.2533468960  1.33E+00
   105 Broy./Diag. 0.40E+00   24.4     1.48406687     -1077.6801644833 -1.43E+00
   106 Broy./Diag. 0.40E+00   22.3     1.51905631     -1077.4600067880  2.20E-01
   107 Broy./Diag. 0.40E+00   23.4     0.10854189     -1075.8024299427  1.66E+00
   108 Broy./Diag. 0.40E+00   24.3     0.05671294     -1076.5470823916 -7.45E-01
   109 Broy./Diag. 0.40E+00   24.5     0.03710929     -1076.1573696380  3.90E-01
   110 Broy./Diag. 0.40E+00   24.8     0.04954050     -1076.0300036644  1.27E-01
   111 Broy./Diag. 0.40E+00   24.4     0.79028389     -1076.1843865148 -1.54E-01
   112 Broy./Diag. 0.40E+00   24.7     1.02847329     -1077.5527812935 -1.37E+00
   113 Broy./Diag. 0.40E+00   24.4     0.93162543     -1077.6779342203 -1.25E-01
   114 Broy./Diag. 0.40E+00   24.6     0.12407554     -1076.1145773692  1.56E+00
   115 Broy./Diag. 0.40E+00   24.9     0.05021176     -1075.8870870687  2.27E-01
   116 Broy./Diag. 0.40E+00   24.9     1.10423642     -1076.3158504894 -4.29E-01
   117 Broy./Diag. 0.40E+00   24.7     1.12121299     -1077.7006638242 -1.38E+00
   118 Broy./Diag. 0.40E+00   24.7     0.08478647     -1076.1669401462  1.53E+00
   119 Broy./Diag. 0.40E+00   24.4     0.17652709     -1076.3112735847 -1.44E-01
   120 Broy./Diag. 0.40E+00   25.1     0.06375189     -1075.9789458864  3.32E-01
   121 Broy./Diag. 0.40E+00   24.6     0.81383349     -1076.1925772751 -2.14E-01
   122 Broy./Diag. 0.40E+00   24.3     0.98114941     -1077.6515903535 -1.46E+00
   123 Broy./Diag. 0.40E+00   23.3     0.91104751     -1077.4761602600  1.75E-01
   124 Broy./Diag. 0.40E+00   24.3     0.85974004     -1075.8812140262  1.59E+00
   125 Broy./Diag. 0.40E+00   24.6     0.82778935     -1077.6295220581 -1.75E+00
   126 Broy./Diag. 0.40E+00   24.8     1.08641615     -1076.0728884468  1.56E+00
   127 Broy./Diag. 0.40E+00   24.7     1.10266177     -1077.8164276221 -1.74E+00
   128 Broy./Diag. 0.40E+00   24.3     1.10767462     -1076.1032802230  1.71E+00
   129 Broy./Diag. 0.40E+00   25.1     1.12496867     -1077.4102828822 -1.31E+00
   130 Broy./Diag. 0.40E+00   23.9     0.06425123     -1075.9846712841  1.43E+00
   131 Broy./Diag. 0.40E+00   24.5     0.81454367     -1076.3233164019 -3.39E-01
   132 Broy./Diag. 0.40E+00   24.5     0.82893984     -1077.5170141714 -1.19E+00
   133 Broy./Diag. 0.40E+00   24.9     0.84982822     -1075.9778552573  1.54E+00
   134 Broy./Diag. 0.40E+00   24.9     0.88415360     -1077.7448285605 -1.77E+00
   135 Broy./Diag. 0.40E+00   24.9     0.04236111     -1076.1614357961  1.58E+00
   136 Broy./Diag. 0.40E+00   24.8     0.02584308     -1076.0499841130  1.11E-01
   137 Broy./Diag. 0.40E+00   24.6     0.01073191     -1076.0745863421 -2.46E-02
   138 Broy./Diag. 0.40E+00   24.9     1.07936729     -1076.1074392743 -3.29E-02
   139 Broy./Diag. 0.40E+00   24.8     1.09938990     -1077.5733927746 -1.47E+00
   140 Broy./Diag. 0.40E+00   24.6     0.04454383     -1076.0588037610  1.51E+00
   141 Broy./Diag. 0.40E+00   24.6     0.04468373     -1076.1860929649 -1.27E-01
   142 Broy./Diag. 0.40E+00   24.6     0.02912461     -1076.1435157629  4.26E-02
   143 Broy./Diag. 0.40E+00   24.8     0.91124201     -1076.2496541478 -1.06E-01
   144 Broy./Diag. 0.40E+00   24.5     1.07961973     -1078.0470673470 -1.80E+00
   145 Broy./Diag. 0.40E+00   24.4     0.84456727     -1077.5765362171  4.71E-01
   146 Broy./Diag. 0.40E+00   24.3     0.09151642     -1076.1472564776  1.43E+00
   147 Broy./Diag. 0.40E+00   24.0     0.27832671     -1075.9300635313  2.17E-01
   148 Broy./Diag. 0.40E+00   24.5     0.14616916     -1076.2096839727 -2.80E-01
   149 Broy./Diag. 0.40E+00   23.3     0.80963519     -1076.2060574811  3.63E-03
   150 Broy./Diag. 0.40E+00   24.1     0.92111021     -1077.1649133755 -9.59E-01
   151 Broy./Diag. 0.40E+00   24.7     0.09363473     -1076.2073310382  9.58E-01
   152 Broy./Diag. 0.40E+00   24.6     0.08208738     -1075.9660737445  2.41E-01
   153 Broy./Diag. 0.40E+00   24.9     0.04616683     -1076.1586029925 -1.93E-01
   154 Broy./Diag. 0.40E+00   24.7     1.11116170     -1076.1279081220  3.07E-02
   155 Broy./Diag. 0.40E+00   22.9     1.12680868     -1077.8826380157 -1.75E+00
   156 Broy./Diag. 0.40E+00   24.2     1.12116703     -1077.7350662443  1.48E-01
   157 Broy./Diag. 0.40E+00   23.3     0.88221139     -1076.0735592473  1.66E+00
   158 Broy./Diag. 0.40E+00   23.6     0.17654692     -1077.7640189607 -1.69E+00
   159 Broy./Diag. 0.40E+00   22.2     1.02735618     -1077.6558237530  1.08E-01
   160 Broy./Diag. 0.40E+00   22.8     0.07902230     -1076.1404974225  1.52E+00
   161 Broy./Diag. 0.40E+00   24.2     0.03207802     -1076.0144705213  1.26E-01
   162 Broy./Diag. 0.40E+00   23.8     0.00984224     -1076.1681396400 -1.54E-01
   163 Broy./Diag. 0.40E+00   23.6     0.00815639     -1076.0926268287  7.55E-02
   164 Broy./Diag. 0.40E+00   24.0     0.78717865     -1076.1317506256 -3.91E-02
   165 Broy./Diag. 0.40E+00   24.5     1.10356830     -1077.6359323733 -1.50E+00
   166 Broy./Diag. 0.40E+00   23.3     1.14416645     -1077.5773045877  5.86E-02
   167 Broy./Diag. 0.40E+00   23.1     0.19709656     -1076.0600091067  1.52E+00
   168 Broy./Diag. 0.40E+00   23.7     1.04604274     -1076.3612930251 -3.01E-01
   169 Broy./Diag. 0.40E+00   24.1     1.49045518     -1079.3519532752 -2.99E+00
   170 Broy./Diag. 0.40E+00   23.9     1.53912143     -1077.4296160723  1.92E+00
   171 Broy./Diag. 0.40E+00   24.5     1.02263711     -1077.3710382360  5.86E-02
   172 Broy./Diag. 0.40E+00   24.7     0.90524872     -1077.4502863292 -7.92E-02
   173 Broy./Diag. 0.40E+00   21.5     0.79142902     -1077.6860847770 -2.36E-01
   174 Broy./Diag. 0.40E+00   22.3     0.09295197     -1076.1520450126  1.53E+00
   175 Broy./Diag. 0.40E+00   24.1     0.08700946     -1075.7339958028  4.18E-01
   176 Broy./Diag. 0.40E+00   24.9     0.02196740     -1076.2548720354 -5.21E-01
   177 Broy./Diag. 0.40E+00   22.3     1.08403644     -1076.1333962329  1.21E-01
   178 Broy./Diag. 0.40E+00   22.3     1.09319018     -1077.5997530195 -1.47E+00
   179 Broy./Diag. 0.40E+00   22.5     1.11584657     -1076.1249232897  1.47E+00
   180 Broy./Diag. 0.40E+00   20.9     1.12836488     -1077.9165509272 -1.79E+00
   181 Broy./Diag. 0.40E+00   23.6     0.07220444     -1076.3098858474  1.61E+00
   182 Broy./Diag. 0.40E+00   23.2     0.90773006     -1076.0618382320  2.48E-01
   183 Broy./Diag. 0.40E+00   23.5     1.12043869     -1077.8582606880 -1.80E+00
   184 Broy./Diag. 0.40E+00   24.0     0.84847266     -1077.6336643883  2.25E-01
   185 Broy./Diag. 0.40E+00   24.6     0.91734691     -1075.9085305513  1.73E+00
   186 Broy./Diag. 0.40E+00   22.0     0.98370339     -1077.8619558371 -1.95E+00
   187 Broy./Diag. 0.40E+00   23.8     0.32762770     -1076.5379783330  1.32E+00
   188 Broy./Diag. 0.40E+00   24.6     0.08192622     -1075.8483387868  6.90E-01
   189 Broy./Diag. 0.40E+00   22.5     0.05385449     -1076.3183650454 -4.70E-01
   190 Broy./Diag. 0.40E+00   22.7     0.02543510     -1076.1337682511  1.85E-01
   191 Broy./Diag. 0.40E+00   24.1     1.08035826     -1076.0911949855  4.26E-02
   192 Broy./Diag. 0.40E+00   23.8     1.09591317     -1077.6270834353 -1.54E+00
   193 Broy./Diag. 0.40E+00   23.4     1.10865640     -1076.1108706834  1.52E+00
   194 Broy./Diag. 0.40E+00   24.6     1.11907133     -1077.7929132185 -1.68E+00
   195 Broy./Diag. 0.40E+00   24.2     0.87646951     -1076.2505663602  1.54E+00
   196 Broy./Diag. 0.40E+00   24.0     0.95107509     -1077.5028730503 -1.25E+00
   197 Broy./Diag. 0.40E+00   23.0     0.86746627     -1076.0557796856  1.45E+00
   198 Broy./Diag. 0.40E+00   23.4     0.87165662     -1077.6806706408 -1.62E+00
   199 Broy./Diag. 0.40E+00   23.4     0.81799537     -1076.1233432583  1.56E+00
   200 Broy./Diag. 0.40E+00   24.1     0.81970430     -1077.5023726811 -1.38E+00
   201 Broy./Diag. 0.40E+00   24.8     0.21017714     -1075.9055589037  1.60E+00
   202 Broy./Diag. 0.40E+00   22.2     0.14517902     -1076.4772055535 -5.72E-01
   203 Broy./Diag. 0.40E+00   22.3     1.07838342     -1076.0665848130  4.11E-01
   204 Broy./Diag. 0.40E+00   23.2     1.10076354     -1077.7381897068 -1.67E+00
   205 Broy./Diag. 0.40E+00   21.9     0.04127478     -1076.1837140895  1.55E+00
   206 Broy./Diag. 0.40E+00   22.4     0.03157741     -1076.0131853921  1.71E-01
   207 Broy./Diag. 0.40E+00   23.5     0.89522652     -1076.2123421853 -1.99E-01
   208 Broy./Diag. 0.40E+00   23.8     1.11591794     -1077.7273811778 -1.52E+00
   209 Broy./Diag. 0.40E+00   23.4     1.14242420     -1077.6584573131  6.89E-02
   210 Broy./Diag. 0.40E+00   23.9     0.87866728     -1077.6940233293 -3.56E-02
   211 Broy./Diag. 0.40E+00   24.4     0.63328269     -1076.0227680568  1.67E+00
   212 Broy./Diag. 0.40E+00   24.4     0.73391126     -1076.2607421616 -2.38E-01
   213 Broy./Diag. 0.40E+00   24.1     0.08960366     -1075.8727108407  3.88E-01
   214 Broy./Diag. 0.40E+00   23.8     0.03141710     -1076.2822150729 -4.10E-01
   215 Broy./Diag. 0.40E+00   23.9     0.83143009     -1076.0056526614  2.77E-01
   216 Broy./Diag. 0.40E+00   24.1     0.04074483     -1077.5523687696 -1.55E+00
   217 Broy./Diag. 0.40E+00   24.1     0.81484606     -1077.5594354030 -7.07E-03
   218 Broy./Diag. 0.40E+00   23.9     0.12836581     -1076.0032168344  1.56E+00
   219 Broy./Diag. 0.40E+00   24.0     0.14124196     -1076.4512067228 -4.48E-01
   220 Broy./Diag. 0.40E+00   24.7     1.08909107     -1076.2769709676  1.74E-01
   221 Broy./Diag. 0.40E+00   23.7     1.09773858     -1077.6454415302 -1.37E+00
   222 Broy./Diag. 0.40E+00   24.9     0.10178150     -1076.1871363660  1.46E+00
   223 Broy./Diag. 0.40E+00   23.9     0.06504852     -1076.1069147938  8.02E-02
   224 Broy./Diag. 0.40E+00   23.5     1.76973550     -1076.2125616990 -1.06E-01
   225 Broy./Diag. 0.40E+00   23.8     1.77725248     -1077.6415496763 -1.43E+00
   226 Broy./Diag. 0.40E+00   23.7     0.86030455     -1076.2126372633  1.43E+00
   227 Broy./Diag. 0.40E+00   24.0     0.88694095     -1077.9128513329 -1.70E+00
   228 Broy./Diag. 0.40E+00   23.8     0.81688238     -1076.0724648825  1.84E+00
   229 Broy./Diag. 0.40E+00   24.8     0.91875560     -1077.6763320182 -1.60E+00
   230 Broy./Diag. 0.40E+00   22.2     1.10634873     -1077.5841053703  9.22E-02
   231 Broy./Diag. 0.40E+00   22.0     1.14614495     -1077.5168853756  6.72E-02
   232 Broy./Diag. 0.40E+00   24.6     1.08681058     -1075.9960312420  1.52E+00
   233 Broy./Diag. 0.40E+00   22.9     1.11545416     -1077.9813396588 -1.99E+00
   234 Broy./Diag. 0.40E+00   22.2     0.20741943     -1076.3948428340  1.59E+00
   235 Broy./Diag. 0.40E+00   23.1     0.13459100     -1075.6553942240  7.39E-01
   236 Broy./Diag. 0.40E+00   23.2     0.05612847     -1076.2224905612 -5.67E-01
   237 Broy./Diag. 0.40E+00   23.3     0.10584827     -1076.0823562711  1.40E-01
   238 Broy./Diag. 0.40E+00   23.4     0.79509507     -1076.2375338804 -1.55E-01
   239 Broy./Diag. 0.40E+00   23.7     1.00714427     -1077.6835925107 -1.45E+00
   240 Broy./Diag. 0.40E+00   23.7     0.90705776     -1077.8170277938 -1.33E-01
   241 Broy./Diag. 0.40E+00   24.3     0.26436322     -1076.0742653118  1.74E+00
   242 Broy./Diag. 0.40E+00   22.2     0.22761390     -1076.0625010023  1.18E-02
   243 Broy./Diag. 0.40E+00   23.1     1.77049505     -1076.3350815931 -2.73E-01
   244 Broy./Diag. 0.40E+00   24.2     1.77619536     -1077.7292125798 -1.39E+00
   245 Broy./Diag. 0.40E+00   24.0     0.94223636     -1076.9603609394  7.69E-01
   246 Broy./Diag. 0.40E+00   22.7     1.14163134     -1075.8908140127  1.07E+00
   247 Broy./Diag. 0.40E+00   23.7     1.09933463     -1077.6487418679 -1.76E+00
   248 Broy./Diag. 0.40E+00   23.2     1.12146640     -1076.1415396092  1.51E+00
   249 Broy./Diag. 0.40E+00   23.3     1.13063324     -1077.4724138039 -1.33E+00
   250 Broy./Diag. 0.40E+00   23.2     0.23885185     -1076.1556641582  1.32E+00
   251 Broy./Diag. 0.40E+00   24.2     0.80716262     -1076.1675352249 -1.19E-02
   252 Broy./Diag. 0.40E+00   24.0     1.01564613     -1077.5445263645 -1.38E+00
   253 Broy./Diag. 0.40E+00   24.0     0.83902123     -1077.4318111997  1.13E-01
   254 Broy./Diag. 0.40E+00   23.8     0.17147112     -1075.9188160361  1.51E+00
   255 Broy./Diag. 0.40E+00   23.8     0.14050879     -1076.5138643677 -5.95E-01
   256 Broy./Diag. 0.40E+00   23.8     0.08928943     -1075.9043622109  6.10E-01
   257 Broy./Diag. 0.40E+00   23.4     0.01392065     -1076.1684231181 -2.64E-01
   258 Broy./Diag. 0.40E+00   24.3     1.08284930     -1076.1845080889 -1.61E-02
   259 Broy./Diag. 0.40E+00   23.3     1.48862478     -1077.6495694300 -1.47E+00
   260 Broy./Diag. 0.40E+00   22.5     1.51235500     -1077.5462368342  1.03E-01
   261 Broy./Diag. 0.40E+00   23.1     0.79949391     -1076.0681654241  1.48E+00
   262 Broy./Diag. 0.40E+00   23.5     1.07858503     -1077.8479794876 -1.78E+00
   263 Broy./Diag. 0.40E+00   23.3     0.98090009     -1077.9714343853 -1.23E-01
   264 Broy./Diag. 0.40E+00   23.3     0.11729314     -1076.0820069576  1.89E+00
   265 Broy./Diag. 0.40E+00   23.7     0.03530231     -1075.8447205386  2.37E-01
   266 Broy./Diag. 0.40E+00   23.7     0.01620549     -1076.2100927914 -3.65E-01
   267 Broy./Diag. 0.40E+00   23.7     0.25349463     -1076.0942764370  1.16E-01
   268 Broy./Diag. 0.40E+00   23.9     0.15342566     -1076.2917200395 -1.97E-01
   269 Broy./Diag. 0.40E+00   23.7     0.81242079     -1076.2298544134  6.19E-02
   270 Broy./Diag. 0.40E+00   23.8     0.81883866     -1077.7012230940 -1.47E+00
   271 Broy./Diag. 0.40E+00   24.4     0.82789607     -1076.0445758289  1.66E+00
   272 Broy./Diag. 0.40E+00   23.8     1.10494668     -1077.8662769956 -1.82E+00
   273 Broy./Diag. 0.40E+00   24.1     1.13925592     -1077.6607930325  2.05E-01
   274 Broy./Diag. 0.40E+00   22.4     0.05704141     -1076.0351334687  1.63E+00
   275 Broy./Diag. 0.40E+00   23.8     0.07478309     -1076.1846133842 -1.49E-01
   276 Broy./Diag. 0.40E+00   24.5     0.06880322     -1075.9673285985  2.17E-01
   277 Broy./Diag. 0.40E+00   23.7     0.01864277     -1076.1296677364 -1.62E-01
   278 Broy./Diag. 0.40E+00   23.9     0.01899213     -1076.0868137199  4.29E-02
   279 Broy./Diag. 0.40E+00   23.6     1.09572923     -1076.1384938413 -5.17E-02
   280 Broy./Diag. 0.40E+00   23.4     1.15582040     -1079.4966761807 -3.36E+00
   281 Broy./Diag. 0.40E+00   24.0     1.14885664     -1077.4842114154  2.01E+00
   282 Broy./Diag. 0.40E+00   24.6     1.48657079     -1077.7075576328 -2.23E-01
   283 Broy./Diag. 0.40E+00   21.3     1.55379867     -1077.4933031800  2.14E-01
   284 Broy./Diag. 0.40E+00   22.0     0.94778084     -1077.0496078785  4.44E-01
   285 Broy./Diag. 0.40E+00   20.4     0.16957230     -1075.9729308677  1.08E+00
   286 Broy./Diag. 0.40E+00   20.8     0.11113806     -1076.3446651329 -3.72E-01
   287 Broy./Diag. 0.40E+00   23.0     0.04450351     -1075.9609022139  3.84E-01
   288 Broy./Diag. 0.40E+00   23.5     0.79839745     -1076.1078251298 -1.47E-01
   289 Broy./Diag. 0.40E+00   23.8     0.82023016     -1077.7312643412 -1.62E+00
   290 Broy./Diag. 0.40E+00   23.9     1.49191122     -1076.1727254791  1.56E+00
   291 Broy./Diag. 0.40E+00   23.8     1.51042681     -1077.6270923493 -1.45E+00
   292 Broy./Diag. 0.40E+00   23.9     0.83866677     -1076.1133823299  1.51E+00
   293 Broy./Diag. 0.40E+00   23.5     0.81680211     -1077.5113631362 -1.40E+00
   294 Broy./Diag. 0.40E+00   23.2     0.04088700     -1076.0335078785  1.48E+00
   295 Broy./Diag. 0.40E+00   22.7     0.04502202     -1076.2084802609 -1.75E-01
   296 Broy./Diag. 0.40E+00   23.8     0.02516066     -1076.1287889543  7.97E-02
   297 Broy./Diag. 0.40E+00   23.9     0.02406497     -1076.0788198554  5.00E-02
   298 Broy./Diag. 0.40E+00   23.9     1.10500332     -1076.1802713332 -1.01E-01
   299 Broy./Diag. 0.40E+00   23.7     1.11869398     -1077.6763974684 -1.50E+00
   300 Broy./Diag. 0.40E+00   22.1     0.85079057     -1077.6157704067  6.06E-02

  Leaving inner SCF loop after reaching   300 steps.


  Electronic density on regular grids:       -512.0005757293       -0.0005757293
  Core density on regular grids:              511.9998449038       -0.0001550962
  Total charge density on r-space grids:       -0.0007308255
  Total charge density g-space grids:          -0.0007308255

  Overlap energy of the core charge distribution:               0.00000000000000
  Self energy of the core charge distribution:              -2838.21791979120962
  Core Hamiltonian energy:                                    758.47759476413955
  Hartree energy:                                            1240.83170684258903
  Exchange-correlation energy:                               -238.70715222223126

  Total energy:                                             -1077.61577040671227

 *** WARNING in qs_scf.F:542 :: SCF run NOT converged ***


 ENERGY| Total FORCE_EVAL ( QS ) energy (a.u.):            -1076.346674890897248


 ATOMIC FORCES in [a.u.]

 # Atom   Kind   Element          X              Y              Z
      1      1      O          -0.06868926    -0.05565904    -0.06003761
      2      2      H          -0.01073143     0.06583109     0.05720731
      3      2      H           0.04541848     0.01211323    -0.03560205
      4      1      O           0.02471439     0.11558197    -0.15966944
      5      2      H           0.01923356    -0.04610870     0.04081640
      6      2      H          -0.06686078     0.04228189     0.01195563
      7      1      O           0.08950791    -0.00135137    -0.01027792
      8      2      H          -0.00915734    -0.01566196     0.10787445
      9      2      H          -0.04972311     0.00374194    -0.00984567
     10      1      O           0.07872043    -0.08153072     0.07422422
     11      2      H          -0.01396447     0.10202025     0.01492292
     12      2      H          -0.04590814    -0.02437196    -0.00732928
     13      1      O          -0.04958287     0.12150732    -0.05522323
     14      2      H           0.03920907    -0.01900431     0.03071014
     15      2      H           0.04564269    -0.06706179    -0.09094988
     16      1      O          -0.04898175     0.04358398    -0.14766748
     17      2      H           0.07637717    -0.00384683    -0.02510031
     18      2      H          -0.03916680    -0.04152776    -0.02724833
     19      1      O          -0.04174218     0.07131038     0.13976316
     20      2      H          -0.00156343    -0.07580345    -0.02995216
     21      2      H           0.05223077     0.01138282    -0.05711711
     22      1      O          -0.09013330    -0.04444898     0.00122813
     23      2      H           0.07408330    -0.04794516    -0.00671764
     24      2      H           0.00765765     0.05262914    -0.00625383
     25      1      O          -0.09707009     0.06479073     0.12118270
     26      2      H           0.04932408     0.01107726    -0.08073408
     27      2      H           0.02954351    -0.08147927     0.00313616
     28      1      O          -0.08632187     0.09867557     0.03724362
     29      2      H           0.02607903     0.03499790    -0.07968780
     30      2      H           0.06693762     0.00581205     0.00707943
     31      1      O          -0.04395788     0.13766893    -0.04995319
     32      2      H          -0.01096605     0.01305892     0.04369102
     33      2      H           0.03003440    -0.04094395    -0.04810948
     34      1      O          -0.01411026     0.00908172    -0.14437479
     35      2      H           0.07865007    -0.00629392     0.02986351
     36      2      H          -0.03297032    -0.08138548     0.07755648
     37      1      O           0.08085028     0.02782403    -0.04570218
     38      2      H           0.01575317     0.02695016    -0.05237132
     39      2      H          -0.08742432    -0.03911176    -0.02146492
     40      1      O           0.05899086    -0.05374392     0.01381725
     41      2      H          -0.05697873     0.01511855     0.01504450
     42      2      H          -0.03326659    -0.02369978    -0.05031650
     43      1      O          -0.07398544    -0.10626016    -0.09108056
     44      2      H           0.03207950    -0.02702227     0.05280353
     45      2      H           0.00064916     0.05795910     0.00830226
     46      1      O          -0.07322599     0.03958224    -0.14080259
     47      2      H           0.02369324    -0.09591520     0.00073950
     48      2      H           0.04673506     0.03195848     0.04603776
     49      1      O           0.00392354     0.06120413     0.10458196
     50      2      H           0.01980397    -0.06660696     0.06049137
     51      2      H          -0.05295690    -0.03959887    -0.03540061
     52      1      O          -0.00220236    -0.06541158     0.01376773
     53      2      H          -0.01117190    -0.04086853    -0.06317634
     54      2      H          -0.01538043     0.09290721    -0.00801589
     55      1      O          -0.00897717     0.00173708     0.09889749
     56      2      H           0.04673935     0.06292753    -0.08292752
     57      2      H          -0.00755736    -0.05297161    -0.07726746
     58      1      O          -0.03000294    -0.08961677     0.12301964
     59      2      H          -0.01583687    -0.01243289    -0.11121675
     60      2      H           0.08729058     0.01343736     0.01655958
     61      1      O          -0.06253679     0.08849986     0.07405383
     62      2      H           0.04764356    -0.08517811    -0.01730770
     63      2      H           0.00121297     0.04476111    -0.03020879
     64      1      O          -0.06029745     0.08555484    -0.07805371
     65      2      H           0.02389765    -0.02881020    -0.10069675
     66      2      H           0.00617732    -0.01559209     0.07716447
     67      1      O           0.07346807     0.09291653     0.06973269
     68      2      H          -0.08843926    -0.00550568    -0.03425812
     69      2      H           0.03963983    -0.00145204    -0.08022428
     70      1      O          -0.05105881     0.01578632    -0.01495797
     71      2      H          -0.01559319    -0.08251536    -0.01375465
     72      2      H           0.04925718     0.05872067    -0.05827720
     73      1      O           0.02866583     0.01105031    -0.03096700
     74      2      H           0.06008503     0.06439899    -0.01282322
     75      2      H          -0.07145294    -0.00622962    -0.00215689
     76      1      O          -0.07206900    -0.04030055     0.12717250
     77      2      H           0.05754901    -0.07297880    -0.01877623
     78      2      H           0.02486256     0.04223377    -0.08288940
     79      1      O          -0.00682784     0.08509150     0.16848009
     80      2      H           0.05496348     0.02985725    -0.02056000
     81      2      H          -0.02845858    -0.03698241    -0.00370452
     82      1      O          -0.02047382    -0.11023820    -0.10458463
     83      2      H           0.07223254     0.01462523     0.04472326
     84      2      H          -0.06534355     0.03902522    -0.03633050
     85      1      O          -0.05987059    -0.02017648    -0.01279521
     86      2      H           0.03036805    -0.02562293     0.08285664
     87      2      H           0.04380601     0.00604004    -0.02385051
     88      1      O          -0.01671807    -0.04216515     0.06907517
     89      2      H          -0.04963872     0.02429940    -0.08166660
     90      2      H           0.07136382     0.00716997    -0.07290396
     91      1      O          -0.01196776     0.04032179    -0.00010062
     92      2      H           0.08592603     0.00366259    -0.01408462
     93      2      H          -0.04214500    -0.08188215    -0.03913786
     94      1      O          -0.08306898     0.09588651    -0.03355189
     95      2      H           0.00419517     0.00920909    -0.04039808
     96      2      H           0.04624905    -0.09059307     0.01558825
     97      1      O           0.04511370     0.05391692    -0.02216792
     98      2      H          -0.03134409     0.04848249    -0.04073733
     99      2      H          -0.03857796    -0.03573906     0.04083666
    100      1      O          -0.04168117    -0.00309876     0.14074840
    101      2      H           0.01986655    -0.08163429     0.02274315
    102      2      H          -0.02077232     0.04070601    -0.05510144
    103      1      O           0.03121667     0.00909438     0.10754817
    104      2      H           0.04235539     0.03009049    -0.00456239
    105      2      H          -0.06042508    -0.01383614    -0.03139391
    106      1      O           0.06760934    -0.13835269    -0.02717006
    107      2      H          -0.03086044     0.05028799    -0.01931392
    108      2      H           0.01471595     0.06432680     0.03702707
    109      1      O          -0.01593391    -0.00298079    -0.03066028
    110      2      H           0.08199996     0.00066373    -0.06043004
    111      2      H          -0.06508065    -0.06146027    -0.01952652
    112      1      O           0.05493434     0.08554743    -0.03620116
    113      2      H           0.01036679    -0.05960617    -0.02972729
    114      2      H          -0.07298851     0.06176027    -0.00686094
    115      1      O           0.05680835    -0.02096156    -0.10864448
    116      2      H          -0.01587229     0.04274662    -0.02641514
    117      2      H          -0.07316179    -0.03310994     0.01948262
    118      1      O          -0.03551084    -0.14528306    -0.06202054
    119      2      H           0.07545141     0.02390403     0.00738707
    120      2      H          -0.05752536     0.02117654    -0.05323582
    121      1      O          -0.09420008    -0.03365089    -0.11790539
    122      2      H           0.03203971    -0.07320342    -0.01264455
    123      2      H           0.05347124     0.08293082    -0.01008960
    124      1      O          -0.06227188     0.04763305    -0.10841764
    125      2      H           0.07492205    -0.05578594    -0.04029411
    126      2      H          -0.00036918     0.06097742     0.10013072
    127      1      O           0.09210759     0.04160594    -0.01464511
    128      2      H          -0.03158085     0.06217841     0.09892190
    129      2      H          -0.05348061    -0.02230617    -0.04053327
    130      1      O           0.03293910     0.01140491     0.10474874
    131      2      H          -0.05152384     0.01332951    -0.02433470
    132      2      H          -0.00527831    -0.06048479     0.01743340
    133      1      O          -0.02223187     0.03605334    -0.03661578
    134      2      H          -0.01682519     0.05995603     0.03471313
    135      2      H           0.02558114    -0.08928960     0.00217799
    136      1      O          -0.05351285     0.11569034    -0.05370101
    137      2      H          -0.02294193     0.01033126     0.04650146
    138      2      H           0.06648201    -0.06111427     0.01842822
    139      1      O          -0.05960829    -0.02400472    -0.01579519
    140      2      H          -0.01481137     0.03226715    -0.10934588
    141      2      H           0.07536268    -0.02166313    -0.00819248
    142      1      O          -0.00790084    -0.11042066    -0.14237686
    143      2      H          -0.00331200    -0.01831046     0.05097152
    144      2      H          -0.03035403     0.10065170    -0.03478412
    145      1      O           0.03162252     0.04650420    -0.06772983
    146      2      H           0.01742721    -0.03342918     0.02267389
    147      2      H          -0.03665271    -0.06518245    -0.08963552
    148      1      O          -0.04304261     0.04280411     0.00512162
    149      2      H           0.08043847     0.02536613    -0.06108865
    150      2      H          -0.04668604     0.03652612    -0.04556721
    151      1      O          -0.05429426     0.04492023    -0.02006767
    152      2      H           0.01022646    -0.02414953     0.11357095
    153      2      H           0.04050377     0.03133394     0.00536381
    154      1      O           0.07272442    -0.03217820    -0.10612807
    155      2      H           0.00459165     0.03237337     0.11172781
    156      2      H          -0.08366133    -0.01076118     0.01486485
    157      1      O          -0.04082695    -0.10744077    -0.07301456
    158      2      H           0.04381188     0.06801779    -0.02901021
    159      2      H          -0.01874839     0.06917429     0.07050533
    160      1      O          -0.10052453    -0.05840261     0.11919954
    161      2      H           0.01098346     0.01889685    -0.11775314
    162      2      H           0.06598909    -0.00267729     0.01164729
    163      1      O          -0.07640766     0.06061459    -0.10533627
    164      2      H           0.06885011     0.03734300    -0.04249391
    165      2      H          -0.00571375    -0.05437803     0.01504919
    166      1      O           0.05638912     0.08482375    -0.05901145
    167      2      H          -0.05772662    -0.06909461     0.00100472
    168      2      H          -0.01019160     0.02863057    -0.09052510
    169      1      O          -0.00422747    -0.05457493    -0.00600122
    170      2      H          -0.04426528     0.06670098     0.01957489
    171      2      H           0.08676820     0.00909319     0.03037692
    172      1      O           0.07513761    -0.00821572     0.00553960
    173      2      H          -0.04468628    -0.05234825     0.07574556
    174      2      H          -0.03570494     0.01663949    -0.09703793
    175      1      O          -0.06120388     0.01567317     0.15490948
    176      2      H           0.04723564     0.04601201     0.01370110
    177      2      H           0.04120074    -0.05606125    -0.03142971
    178      1      O           0.05685853     0.00859493     0.05614286
    179      2      H          -0.05660976    -0.06830861     0.05887064
    180      2      H          -0.01060973    -0.01651087    -0.02580245
    181      1      O          -0.01629320     0.13174628    -0.02650984
    182      2      H          -0.05190332    -0.04398702    -0.09431239
    183      2      H           0.07251953    -0.00395047     0.03367337
    184      1      O           0.06810928     0.04980507     0.06670505
    185      2      H          -0.08026309     0.00806721     0.02752223
    186      2      H          -0.00813842     0.06128049    -0.09931083
    187      1      O           0.00520965     0.00632218     0.07039242
    188      2      H           0.02854575    -0.09192708    -0.02158968
    189      2      H          -0.07114848     0.01390119    -0.06090160
    190      1      O          -0.01130377    -0.02337036    -0.01164862
    191      2      H           0.07594158     0.05094989    -0.06625062
    192      2      H          -0.03659686     0.05770718     0.05844067
 SUM OF ATOMIC FORCES          -0.20803254     0.44824673    -1.72912741     1.79835599

 -------------------------------------------------------------------------------
 -                                                                             -
 -                                DBCSR STATISTICS                             -
 -                                                                             -
 -------------------------------------------------------------------------------
 COUNTER                                    TOTAL       BLAS       SMM       ACC
 flops     5 x     5 x   256           3563840000       0.0%    100.0%      0.0%
 flops    13 x     5 x   256           4077032960       0.0%    100.0%      0.0%
 flops     5 x    13 x   256           4367534080       0.0%    100.0%      0.0%
 flops    13 x    13 x   256           6276827648       0.0%    100.0%      0.0%
 flops inhomo. stacks                           0       0.0%      0.0%      0.0%
 flops total                        18.285235E+09       0.0%    100.0%      0.0%
 flops max/rank                     18.285235E+09       0.0%    100.0%      0.0%
 matmuls inhomo. stacks                         0       0.0%      0.0%      0.0%
 matmuls total                             604709       0.0%    100.0%      0.0%
 number of processed stacks                 42140       0.0%    100.0%      0.0%
 average stack size                                     0.0      14.4       0.0
 marketing flops                   333.927416E+09
 -------------------------------------------------------------------------------
 # multiplications                            301
 max memory usage/rank              30.516818E+09
 # max total images/rank                        1
 # max 3D layers                                1
 # MPI messages exchanged                       0
 MPI messages size (bytes):
  total size                         0.000000E+00
  min size                           0.000000E+00
  max size                           0.000000E+00
  average size                       0.000000E+00
 MPI breakdown and total messages size (bytes):
             size <=      128                   0                        0
       128 < size <=     8192                   0                        0
      8192 < size <=    32768                   0                        0
     32768 < size <=   131072                   0                        0
    131072 < size <=  4194304                   0                        0
   4194304 < size <= 16777216                   0                        0
  16777216 < size                               0                        0
 -------------------------------------------------------------------------------

 MEMORY| Estimated peak process memory [MiB]                               29101

 -------------------------------------------------------------------------------
 -                                                                             -
 -                           R E F E R E N C E S                               -
 -                                                                             -
 -------------------------------------------------------------------------------
 
 CP2K version 7.1, the CP2K developers group (2019).
 CP2K is freely available from https://www.cp2k.org/ .

 Schuett, Ole; Messmer, Peter; Hutter, Juerg; VandeVondele, Joost. 
 Electronic Structure Calculations on Graphics Processing Units, John
 Wiley & Sons, Ltd, 173-190 (2016). 
 GPU-Accelerated Sparse Matrix-Matrix Multiplication for
 Linear Scaling Density Functional Theory.
 https://dx.doi.org/10.1002/9781118670712.ch8

 Borstnik, U; VandeVondele, J; Weber, V; Hutter, J. 
 PARALLEL COMPUTING, 40 (5-6), 47-58 (2014). 
 Sparse matrix multiplication: The distributed block-compressed sparse
 row library.
 https://dx.doi.org/10.1016/j.parco.2014.03.012

 Hutter, J; Iannuzzi, M; Schiffmann, F; VandeVondele, J. 
 WIREs Comput Mol Sci., 4 (1), 15-25 (2014). 
 CP2K: atomistic simulations of condensed matter systems.
 https://dx.doi.org/10.1002/wcms.1159

 Krack, M. 
 THEORETICAL CHEMISTRY ACCOUNTS, 114 (1-3), 145-152 (2005). 
 Pseudopotentials for H to Kr optimized for gradient-corrected
 exchange-correlation functionals.
 https://dx.doi.org/10.1007/s00214-005-0655-y

 VandeVondele, J; Krack, M; Mohamed, F; Parrinello, M; Chassaing, T;
 Hutter, J. COMPUTER PHYSICS COMMUNICATIONS, 167 (2), 103-128 (2005). 
 QUICKSTEP: Fast and accurate density functional calculations using a
 mixed Gaussian and plane waves approach.
 https://dx.doi.org/10.1016/j.cpc.2004.12.014

 Frigo, M; Johnson, SG. 
 PROCEEDINGS OF THE IEEE, 93 (2), 216-231 (2005). 
 The design and implementation of FFTW3.
 https://dx.doi.org/10.1109/JPROC.2004.840301

 Hartwigsen, C; Goedecker, S; Hutter, J. 
 PHYSICAL REVIEW B, 58 (7), 3641-3662 (1998). 
 Relativistic separable dual-space Gaussian pseudopotentials from H to Rn.
 https://dx.doi.org/10.1103/PhysRevB.58.3641

 Lippert, G; Hutter, J; Parrinello, M. 
 MOLECULAR PHYSICS, 92 (3), 477-487 (1997). 
 A hybrid Gaussian and plane wave density functional scheme.
 https://dx.doi.org/10.1080/002689797170220

 Goedecker, S; Teter, M; Hutter, J. 
 PHYSICAL REVIEW B, 54 (3), 1703-1710 (1996). 
 Separable dual-space Gaussian pseudopotentials.
 https://dx.doi.org/10.1103/PhysRevB.54.1703


 -------------------------------------------------------------------------------
 -                                                                             -
 -                                T I M I N G                                  -
 -                                                                             -
 -------------------------------------------------------------------------------
 SUBROUTINE                       CALLS  ASD         SELF TIME        TOTAL TIME
                                MAXIMUM       AVERAGE  MAXIMUM  AVERAGE  MAXIMUM
 CP2K                                 1  1.0    1.054    1.054 7155.172 7155.172
 qs_forces                            1  2.0    0.000    0.000 7143.857 7143.857
 qs_energies                          1  3.0    0.000    0.000 7140.341 7140.341
 scf_env_do_scf                       1  4.0    0.001    0.001 7128.831 7128.831
 scf_env_do_scf_inner_loop          300  5.0    0.047    0.047 7128.830 7128.830
 gspace_mixing                      299  6.0   42.205   42.205 2961.600 2961.600
 broyden_mixing                     299  7.0 2675.368 2675.368 2675.371 2675.371
 qs_scf_new_mos                     300  6.0    0.008    0.008 1966.541 1966.541
 eigensolver                        300  7.0    0.032    0.032 1914.487 1914.487
 cp_fm_syevd                        300  8.0 1274.622 1274.622 1275.775 1275.775
 pw_transfer                       3912  9.9    0.389    0.389 1162.307 1162.307
 rebuild_ks_matrix                  301  7.0    0.001    0.001 1137.368 1137.368
 qs_ks_build_kohn_sham_matrix       301  8.0    0.098    0.098 1137.367 1137.367
 qs_ks_update_qs_env                300  6.0    0.004    0.004 1134.210 1134.210
 fft_wrap_pw1pw2                   3310 10.9    0.051    0.051 1132.258 1132.258
 qs_rho_update_rho                  301  6.0    0.003    0.003 1067.623 1067.623
 calculate_rho_elec                 301  7.0  529.219  529.219 1067.620 1067.620
 fft_wrap_pw1pw2_70                1504 11.2   90.780   90.780 1033.709 1033.709
 cp_fm_cholesky_restore             900  8.0  637.576  637.576  637.576  637.576
 fft3d_s                           3311 12.9  538.515  538.515  538.545  538.545
 density_rs2pw                      301  8.0    0.032    0.032  529.624  529.624
 pw_scatter_s                      1804 13.2  410.992  410.992  410.992  410.992
 pw_poisson_solve                   301  9.0  335.094  335.094  365.102  365.102
 sum_up_and_integrate               301  9.0   17.913   17.913  315.874  315.874
 integrate_v_rspace                 301 10.0    9.305    9.305  297.960  297.960
 potential_pw2rs                    301 11.0    2.508    2.508  275.232  275.232
 qs_vxc_create                      301  9.0    0.008    0.008  164.381  164.381
 xc_vxc_pw_create                   301 10.0   42.382   42.382  164.373  164.373
 -------------------------------------------------------------------------------

 The number of warnings for this run is : 1
 
 -------------------------------------------------------------------------------
  **** **** ******  **  PROGRAM ENDED AT                 2020-05-30 17:13:31.349
 ***** ** ***  *** **   PROGRAM RAN ON                                   gnode44
 **    ****   ******    PROGRAM RAN BY                               mayank.modi
 ***** **    ** ** **   PROGRAM PROCESS ID                                 12443
  **** **  *******  **  PROGRAM STOPPED IN /home/mayank.modi/ab-initio-thermodyn
                                           amics-of-water/mayank/cp2k_energy_cal
                                           culations
