 DBCSR| CPU Multiplication driver                                           XSMM
 DBCSR| Multrec recursion limit                                              512
 DBCSR| Multiplication stack size                                           1000
 DBCSR| Maximum elements for images                                    UNLIMITED
 DBCSR| Multiplicative factor virtual images                                   1
 DBCSR| Use multiplication densification                                       T
 DBCSR| Multiplication size stacks                                             3


  **** **** ******  **  PROGRAM STARTED AT               2020-05-30 11:12:00.924
 ***** ** ***  *** **   PROGRAM STARTED ON                               gnode44
 **    ****   ******    PROGRAM STARTED BY                           mayank.modi
 ***** **    ** ** **   PROGRAM PROCESS ID                                  9417
  **** **  *******  **  PROGRAM STARTED IN /home/mayank.modi/ab-initio-thermodyn
                                           amics-of-water/mayank/cp2k_energy_cal
                                           culations

 CP2K| version string:                                          CP2K version 7.1
 CP2K| source code revision number:                                  git:e635599
 CP2K| cp2kflags: omp libint fftw3 libxc xsmm spglib                            
 CP2K| is freely available from                            https://www.cp2k.org/
 CP2K| Program compiled at                          Mon Dec 23 19:23:12 CET 2019
 CP2K| Program compiled on                                                pc9404
 CP2K| Program compiled for                                Linux-x86-64-gfortran
 CP2K| Data directory path                                        /opt/cp2k/data
 CP2K| Input file name                                 input_training/input46.in

 GLOBAL| Force Environment number                                              1
 GLOBAL| Basis set file name                                           BASIS_SET
 GLOBAL| Potential file name                                      GTH_POTENTIALS
 GLOBAL| MM Potential file name                                     MM_POTENTIAL
 GLOBAL| Coordinate file name                                      __STD_INPUT__
 GLOBAL| Method name                                                        CP2K
 GLOBAL| Project name                                                   H2O_bulk
 GLOBAL| Preferred FFT library                                             FFTW3
 GLOBAL| Preferred diagonalization lib.                                       SL
 GLOBAL| Run type                                                   ENERGY_FORCE
 GLOBAL| All-to-all communication in single precision                          F
 GLOBAL| FFTs using library dependent lengths                                  F
 GLOBAL| Global print level                                                  LOW
 GLOBAL| MPI I/O enabled                                                       T
 GLOBAL| Total number of message passing processes                             1
 GLOBAL| Number of threads for this process                                   36
 GLOBAL| This output is from process                                           0
 GLOBAL| CPU model name                Intel(R) Xeon(R) CPU E5-2640 v4 @ 2.40GHz
 GLOBAL| CPUID                                                              1002
 GLOBAL| Compiled for CPUID                                                    0

 MEMORY| system memory details [Kb]
 MEMORY|                        rank 0           min           max       average
 MEMORY| MemTotal            131893056     131893056     131893056     131893056
 MEMORY| MemFree             118635988     118635988     118635988     118635988
 MEMORY| Buffers               2130788       2130788       2130788       2130788
 MEMORY| Cached                3629716       3629716       3629716       3629716
 MEMORY| Slab                  3322080       3322080       3322080       3322080
 MEMORY| SReclaimable          3107828       3107828       3107828       3107828
 MEMORY| MemLikelyFree       127504320     127504320     127504320     127504320


 GENERATE| WARNING:: No connections detected for Hydrogen - Atom Nr:        81 !
 GENERATE|  Preliminary Number of Bonds generated:                             0
 GENERATE|  Achieved consistency in connectivity generation.

 *******************************************************************************
 *******************************************************************************
 **                                                                           **
 **     #####                         ##              ##                      **
 **    ##   ##            ##          ##              ##                      **
 **   ##     ##                       ##            ######                    **
 **   ##     ##  ##   ##  ##   #####  ##  ##   ####   ##    #####    #####    **
 **   ##     ##  ##   ##  ##  ##      ## ##   ##      ##   ##   ##  ##   ##   **
 **   ##  ## ##  ##   ##  ##  ##      ####     ###    ##   ######   ######    **
 **    ##  ###   ##   ##  ##  ##      ## ##      ##   ##   ##       ##        **
 **     #######   #####   ##   #####  ##  ##  ####    ##    #####   ##        **
 **           ##                                                    ##        **
 **                                                                           **
 **                                                ... make the atoms dance   **
 **                                                                           **
 **            Copyright (C) by CP2K developers group (2000 - 2019)           **
 **                                                                           **
 *******************************************************************************


 TOTAL NUMBERS AND MAXIMUM NUMBERS

  Total number of            - Atomic kinds:                                   2
                             - Atoms:                                        192
                             - Shell sets:                                   384
                             - Shells:                                       704
                             - Primitive Cartesian functions:                960
                             - Cartesian basis functions:                   1536
                             - Spherical basis functions:                   1472

  Maximum angular momentum of- Orbital basis functions:                        2
                             - Local part of the GTH pseudopotential:          2
                             - Non-local part of the GTH pseudopotential:      0


 SCF PARAMETERS         Density guess:                                    ATOMIC
                        --------------------------------------------------------
                        max_scf:                                             300
                        max_scf_history:                                       0
                        max_diis:                                              4
                        --------------------------------------------------------
                        eps_scf:                                        1.00E-07
                        eps_scf_history:                                0.00E+00
                        eps_diis:                                       1.00E-01
                        eps_eigval:                                     1.00E-05
                        --------------------------------------------------------
                        level_shift [a.u.]:                                 0.00
                        --------------------------------------------------------
                        Mixing method:                            BROYDEN_MIXING
                                                charge density mixing in g-space
                        --------------------------------------------------------
                        No outer SCF

 Number of electrons:                                                        512
 Number of occupied orbitals:                                                256
 Number of molecular orbitals:                                               256

 Number of orbital functions:                                               1472
 Number of independent orbital functions:                                   1472

 Extrapolation method: initial_guess


 SCF WAVEFUNCTION OPTIMIZATION

  Step     Update method      Time    Convergence         Total energy    Change
  ------------------------------------------------------------------------------
     1 NoMix/Diag. 0.40E+00   10.4     0.68730817     -1063.8330698653 -1.06E+03
     2 Broy./Diag. 0.40E+00   15.4     1.92347600      -992.1597896747  7.17E+01
     3 Broy./Diag. 0.40E+00   17.6     1.92321995     -1277.0282298930 -2.85E+02
     4 Broy./Diag. 0.40E+00   17.8     1.70736923     -1140.2904932184  1.37E+02
     5 Broy./Diag. 0.40E+00   18.6     1.99168235     -1094.5996089577  4.57E+01
     6 Broy./Diag. 0.40E+00   19.8     1.91551305     -1098.0812825430 -3.48E+00
     7 Broy./Diag. 0.40E+00   20.4     1.79640913     -1098.0995609769 -1.83E-02
     8 Broy./Diag. 0.40E+00   21.4     1.88371690     -1091.4428646577  6.66E+00
     9 Broy./Diag. 0.40E+00   22.9     1.78737032     -1092.3367094498 -8.94E-01
    10 Broy./Diag. 0.40E+00   24.4     1.83233236     -1086.2870298717  6.05E+00
    11 Broy./Diag. 0.40E+00   23.4     1.62805389     -1073.9406881270  1.23E+01
    12 Broy./Diag. 0.40E+00   22.5     1.84602402     -1074.4651495323 -5.24E-01
    13 Broy./Diag. 0.40E+00   25.5     1.90818279     -1061.3512121940  1.31E+01
    14 Broy./Diag. 0.40E+00   24.4     1.64329720     -1085.8613446012 -2.45E+01
    15 Broy./Diag. 0.40E+00   23.4     1.59393623     -1081.8389945102  4.02E+00
    16 Broy./Diag. 0.40E+00   24.5     1.45096534     -1076.8275486695  5.01E+00
    17 Broy./Diag. 0.40E+00   25.1     1.15826682     -1077.2939804648 -4.66E-01
    18 Broy./Diag. 0.40E+00   22.8     1.53454849     -1076.0227368364  1.27E+00
    19 Broy./Diag. 0.40E+00   25.6     1.61562172     -1081.9546641381 -5.93E+00
    20 Broy./Diag. 0.40E+00   25.0     1.71467848     -1074.5376230995  7.42E+00
    21 Broy./Diag. 0.40E+00   24.4     1.79586392     -1080.1292709979 -5.59E+00
    22 Broy./Diag. 0.40E+00   24.0     1.72736815     -1075.3281016636  4.80E+00
    23 Broy./Diag. 0.40E+00   24.4     1.50140357     -1073.3368428667  1.99E+00
    24 Broy./Diag. 0.40E+00   24.7     1.75728867     -1083.3140307175 -9.98E+00
    25 Broy./Diag. 0.40E+00   25.8     1.76806069     -1075.0079958364  8.31E+00
    26 Broy./Diag. 0.40E+00   24.2     1.48154198     -1072.9935209697  2.01E+00
    27 Broy./Diag. 0.40E+00   23.2     1.50612694     -1076.0567953051 -3.06E+00
    28 Broy./Diag. 0.40E+00   21.6     1.52787708     -1075.6753891175  3.81E-01
    29 Broy./Diag. 0.40E+00   23.9     1.57877588     -1078.6306436689 -2.96E+00
    30 Broy./Diag. 0.40E+00   24.7     1.63550928     -1077.1675291139  1.46E+00
    31 Broy./Diag. 0.40E+00   24.4     1.61911216     -1076.4201801936  7.47E-01
    32 Broy./Diag. 0.40E+00   24.2     1.38556049     -1076.4512966625 -3.11E-02
    33 Broy./Diag. 0.40E+00   25.9     1.62750692     -1072.2779574712  4.17E+00
    34 Broy./Diag. 0.40E+00   25.5     1.72888923     -1078.5699143641 -6.29E+00
    35 Broy./Diag. 0.40E+00   24.1     1.81589146     -1079.0027618012 -4.33E-01
    36 Broy./Diag. 0.40E+00   23.9     1.71798172     -1074.5589983422  4.44E+00
    37 Broy./Diag. 0.40E+00   23.3     1.18329992     -1074.7337440181 -1.75E-01
    38 Broy./Diag. 0.40E+00   24.2     1.63224649     -1072.1364758030  2.60E+00
    39 Broy./Diag. 0.40E+00   25.5     1.70147845     -1076.8797811843 -4.74E+00
    40 Broy./Diag. 0.40E+00   23.8     1.53380862     -1074.9136706704  1.97E+00
    41 Broy./Diag. 0.40E+00   23.6     1.56752611     -1077.4244525159 -2.51E+00
    42 Broy./Diag. 0.40E+00   24.2     1.17915275     -1074.7102472133  2.71E+00
    43 Broy./Diag. 0.40E+00   24.7     1.40811189     -1075.7092715354 -9.99E-01
    44 Broy./Diag. 0.40E+00   24.4     1.74639696     -1074.7983260793  9.11E-01
    45 Broy./Diag. 0.40E+00   24.9     1.78879346     -1078.1973030683 -3.40E+00
    46 Broy./Diag. 0.40E+00   24.1     1.23201397     -1073.1750912526  5.02E+00
    47 Broy./Diag. 0.40E+00   25.1     1.30671172     -1079.6024682761 -6.43E+00
    48 Broy./Diag. 0.40E+00   24.3     1.40860000     -1075.8053315831  3.80E+00
    49 Broy./Diag. 0.40E+00   24.7     1.47123218     -1075.2757623031  5.30E-01
    50 Broy./Diag. 0.40E+00   24.6     1.36489573     -1077.3927632306 -2.12E+00
    51 Broy./Diag. 0.40E+00   26.3     1.71561141     -1075.2713689014  2.12E+00
    52 Broy./Diag. 0.40E+00   24.7     1.74378170     -1076.9373347017 -1.67E+00
    53 Broy./Diag. 0.40E+00   24.0     1.72540796     -1076.4069516929  5.30E-01
    54 Broy./Diag. 0.40E+00   21.8     1.73077699     -1072.5558500642  3.85E+00
    55 Broy./Diag. 0.40E+00   23.6     1.73587856     -1079.7766901035 -7.22E+00
    56 Broy./Diag. 0.40E+00   24.1     1.47174977     -1077.7013506428  2.08E+00
    57 Broy./Diag. 0.40E+00   22.9     1.54336980     -1073.5663929041  4.13E+00
    58 Broy./Diag. 0.40E+00   21.4     1.46267257     -1078.1371059936 -4.57E+00
    59 Broy./Diag. 0.40E+00   23.8     1.62655458     -1076.3594825294  1.78E+00
    60 Broy./Diag. 0.40E+00   23.9     1.67833118     -1077.5856665197 -1.23E+00
    61 Broy./Diag. 0.40E+00   23.5     1.74521199     -1076.4047460709  1.18E+00
    62 Broy./Diag. 0.40E+00   23.7     1.79792548     -1074.6103644017  1.79E+00
    63 Broy./Diag. 0.40E+00   24.3     1.75046717     -1074.3829995965  2.27E-01
    64 Broy./Diag. 0.40E+00   24.2     1.82549486     -1074.5734994617 -1.90E-01
    65 Broy./Diag. 0.40E+00   24.3     1.53477832     -1074.1458214132  4.28E-01
    66 Broy./Diag. 0.40E+00   24.4     1.60152588     -1077.5143680243 -3.37E+00
    67 Broy./Diag. 0.40E+00   24.6     1.57875959     -1072.5990235998  4.92E+00
    68 Broy./Diag. 0.40E+00   24.1     1.15175290     -1082.6176279119 -1.00E+01
    69 Broy./Diag. 0.40E+00   23.1     1.64500207     -1078.7043655717  3.91E+00
    70 Broy./Diag. 0.40E+00   24.7     1.70975484     -1078.2612079968  4.43E-01
    71 Broy./Diag. 0.40E+00   24.6     1.74040125     -1076.6873208419  1.57E+00
    72 Broy./Diag. 0.40E+00   24.4     1.83774059     -1075.2782145620  1.41E+00
    73 Broy./Diag. 0.40E+00   24.2     1.30393983     -1073.2612367345  2.02E+00
    74 Broy./Diag. 0.40E+00   24.2     1.42297142     -1073.0010935553  2.60E-01
    75 Broy./Diag. 0.40E+00   24.2     1.17697770     -1071.0912583353  1.91E+00
    76 Broy./Diag. 0.40E+00   24.1     1.33737001     -1077.6326687366 -6.54E+00
    77 Broy./Diag. 0.40E+00   23.2     1.35836309     -1076.9641774882  6.68E-01
    78 Broy./Diag. 0.40E+00   23.7     1.26366547     -1078.9660246584 -2.00E+00
    79 Broy./Diag. 0.40E+00   24.2     1.75744281     -1076.1629232658  2.80E+00
    80 Broy./Diag. 0.40E+00   24.5     1.74413892     -1075.7216170452  4.41E-01
    81 Broy./Diag. 0.40E+00   24.3     1.56819414     -1074.8119773581  9.10E-01
    82 Broy./Diag. 0.40E+00   24.0     1.65504494     -1074.9635945644 -1.52E-01
    83 Broy./Diag. 0.40E+00   24.4     1.04771547     -1072.7038439215  2.26E+00
    84 Broy./Diag. 0.40E+00   24.6     0.92975379     -1076.0256956241 -3.32E+00
    85 Broy./Diag. 0.40E+00   24.9     1.10104105     -1074.5941129455  1.43E+00
    86 Broy./Diag. 0.40E+00   24.1     1.61676103     -1076.5670534126 -1.97E+00
    87 Broy./Diag. 0.40E+00   24.3     1.66269618     -1077.5834289592 -1.02E+00
    88 Broy./Diag. 0.40E+00   24.5     1.52565423     -1075.7013684279  1.88E+00
    89 Broy./Diag. 0.40E+00   24.6     1.78303475     -1077.0466131396 -1.35E+00
    90 Broy./Diag. 0.40E+00   24.8     1.77531943     -1076.9132660914  1.33E-01
    91 Broy./Diag. 0.40E+00   24.6     1.57958041     -1073.1298037070  3.78E+00
    92 Broy./Diag. 0.40E+00   25.0     1.68395929     -1073.7718549680 -6.42E-01
    93 Broy./Diag. 0.40E+00   24.4     1.63808251     -1074.5746772427 -8.03E-01
    94 Broy./Diag. 0.40E+00   24.2     1.71296301     -1075.3935588899 -8.19E-01
    95 Broy./Diag. 0.40E+00   24.2     1.60715061     -1071.5475197857  3.85E+00
    96 Broy./Diag. 0.40E+00   24.4     1.69784923     -1080.2531254002 -8.71E+00
    97 Broy./Diag. 0.40E+00   24.4     1.24030241     -1077.0119967054  3.24E+00
    98 Broy./Diag. 0.40E+00   24.4     1.75797343     -1078.7981483491 -1.79E+00
    99 Broy./Diag. 0.40E+00   24.6     1.79249901     -1075.9653936005  2.83E+00
   100 Broy./Diag. 0.40E+00   24.6     1.74726882     -1074.2534419497  1.71E+00
   101 Broy./Diag. 0.40E+00   24.3     1.10044855     -1072.6715125062  1.58E+00
   102 Broy./Diag. 0.40E+00   24.6     1.09372436     -1076.4654230520 -3.79E+00
   103 Broy./Diag. 0.40E+00   24.1     1.01066915     -1074.5235856231  1.94E+00
   104 Broy./Diag. 0.40E+00   24.6     1.21314543     -1078.2585155812 -3.73E+00
   105 Broy./Diag. 0.40E+00   24.3     1.13194044     -1074.2614578349  4.00E+00
   106 Broy./Diag. 0.40E+00   24.3     1.30080378     -1074.9252887309 -6.64E-01
   107 Broy./Diag. 0.40E+00   23.0     1.36941611     -1078.9602820564 -4.03E+00
   108 Broy./Diag. 0.40E+00   24.7     1.74705744     -1075.3901518145  3.57E+00
   109 Broy./Diag. 0.40E+00   23.6     1.82291658     -1076.5406235130 -1.15E+00
   110 Broy./Diag. 0.40E+00   24.5     1.41999239     -1077.7586990839 -1.22E+00
   111 Broy./Diag. 0.40E+00   24.1     1.40601467     -1073.9288056670  3.83E+00
   112 Broy./Diag. 0.40E+00   23.3     1.66730013     -1075.8962599293 -1.97E+00
   113 Broy./Diag. 0.40E+00   23.7     1.67622530     -1076.8475094928 -9.51E-01
   114 Broy./Diag. 0.40E+00   24.2     1.59702422     -1078.2119489725 -1.36E+00
   115 Broy./Diag. 0.40E+00   24.2     1.61196649     -1074.2957047157  3.92E+00
   116 Broy./Diag. 0.40E+00   24.4     1.75062735     -1074.8898957825 -5.94E-01
   117 Broy./Diag. 0.40E+00   24.6     1.84995989     -1074.0778847743  8.12E-01
   118 Broy./Diag. 0.40E+00   24.2     1.74103882     -1074.6437259234 -5.66E-01
   119 Broy./Diag. 0.40E+00   24.6     1.82734847     -1076.5875563560 -1.94E+00
   120 Broy./Diag. 0.40E+00   24.4     1.59155300     -1072.2120864655  4.38E+00
   121 Broy./Diag. 0.40E+00   24.3     1.65091833     -1081.9119671358 -9.70E+00
   122 Broy./Diag. 0.40E+00   24.5     1.57534703     -1080.4176006329  1.49E+00
   123 Broy./Diag. 0.40E+00   24.3     1.60441850     -1078.1806170378  2.24E+00
   124 Broy./Diag. 0.40E+00   24.3     1.71802467     -1075.4554153192  2.73E+00
   125 Broy./Diag. 0.40E+00   24.5     1.73076799     -1078.1782226567 -2.72E+00
   126 Broy./Diag. 0.40E+00   24.6     1.52030340     -1076.9751541096  1.20E+00
   127 Broy./Diag. 0.40E+00   24.8     1.18070892     -1072.6130431349  4.36E+00
   128 Broy./Diag. 0.40E+00   24.5     1.72862333     -1078.0453975129 -5.43E+00
   129 Broy./Diag. 0.40E+00   24.5     1.79364753     -1075.5861290243  2.46E+00
   130 Broy./Diag. 0.40E+00   24.2     1.62639663     -1075.8727255150 -2.87E-01
   131 Broy./Diag. 0.40E+00   24.4     1.72102374     -1079.1215283947 -3.25E+00
   132 Broy./Diag. 0.40E+00   24.3     1.71939110     -1074.4145181616  4.71E+00
   133 Broy./Diag. 0.40E+00   24.0     1.63923753     -1077.9910444833 -3.58E+00
   134 Broy./Diag. 0.40E+00   24.0     1.70945040     -1073.4347391033  4.56E+00
   135 Broy./Diag. 0.40E+00   23.5     1.67156613     -1076.2896631538 -2.85E+00
   136 Broy./Diag. 0.40E+00   23.8     1.66211495     -1075.0193556025  1.27E+00
   137 Broy./Diag. 0.40E+00   24.3     1.69977071     -1077.4034267316 -2.38E+00
   138 Broy./Diag. 0.40E+00   24.3     1.74149438     -1077.6332543353 -2.30E-01
   139 Broy./Diag. 0.40E+00   24.5     1.82562369     -1076.0725506734  1.56E+00
   140 Broy./Diag. 0.40E+00   25.1     1.24044374     -1075.5431414419  5.29E-01
   141 Broy./Diag. 0.40E+00   24.1     1.62762274     -1073.7164838381  1.83E+00
   142 Broy./Diag. 0.40E+00   24.3     1.72574512     -1073.5999790807  1.17E-01
   143 Broy./Diag. 0.40E+00   24.9     1.66145070     -1076.8033156905 -3.20E+00
   144 Broy./Diag. 0.40E+00   24.7     1.44178455     -1075.6113741982  1.19E+00
   145 Broy./Diag. 0.40E+00   24.2     1.59686692     -1072.9956605460  2.62E+00
   146 Broy./Diag. 0.40E+00   24.3     1.63335305     -1074.1166007161 -1.12E+00
   147 Broy./Diag. 0.40E+00   24.4     1.75551351     -1078.1787248722 -4.06E+00
   148 Broy./Diag. 0.40E+00   24.6     1.73016825     -1077.9551066573  2.24E-01
   149 Broy./Diag. 0.40E+00   24.6     1.66024762     -1070.8545737269  7.10E+00
   150 Broy./Diag. 0.40E+00   24.5     1.68461265     -1078.1227776180 -7.27E+00
   151 Broy./Diag. 0.40E+00   24.5     1.54479746     -1076.1420337093  1.98E+00
   152 Broy./Diag. 0.40E+00   23.8     1.61188624     -1077.6511361985 -1.51E+00
   153 Broy./Diag. 0.40E+00   23.3     1.70429387     -1075.3547512150  2.30E+00
   154 Broy./Diag. 0.40E+00   24.4     1.26891229     -1076.6844237883 -1.33E+00
   155 Broy./Diag. 0.40E+00   22.2     1.27095691     -1074.1015496504  2.58E+00
   156 Broy./Diag. 0.40E+00   23.6     1.31206048     -1074.5693171381 -4.68E-01
   157 Broy./Diag. 0.40E+00   24.7     1.78982995     -1075.5894392785 -1.02E+00
   158 Broy./Diag. 0.40E+00   24.1     1.76914118     -1080.3043337728 -4.71E+00
   159 Broy./Diag. 0.40E+00   24.0     1.74632532     -1073.7705377128  6.53E+00
   160 Broy./Diag. 0.40E+00   24.1     1.73632631     -1080.0080247246 -6.24E+00
   161 Broy./Diag. 0.40E+00   24.3     1.20519767     -1074.8679271631  5.14E+00
   162 Broy./Diag. 0.40E+00   24.8     1.76347857     -1073.1765454052  1.69E+00
   163 Broy./Diag. 0.40E+00   25.3     1.77125742     -1080.1777125934 -7.00E+00
   164 Broy./Diag. 0.40E+00   24.4     1.76541631     -1078.4685331745  1.71E+00
   165 Broy./Diag. 0.40E+00   24.6     1.75258122     -1077.3059382731  1.16E+00
   166 Broy./Diag. 0.40E+00   24.6     1.22487064     -1072.7592948410  4.55E+00
   167 Broy./Diag. 0.40E+00   24.8     1.11325048     -1076.6407324054 -3.88E+00
   168 Broy./Diag. 0.40E+00   24.5     0.93701733     -1072.3961414422  4.24E+00
   169 Broy./Diag. 0.40E+00   24.7     1.63359322     -1076.1319269706 -3.74E+00
   170 Broy./Diag. 0.40E+00   24.7     1.75122316     -1076.5902492331 -4.58E-01
   171 Broy./Diag. 0.40E+00   24.5     1.68598279     -1075.6156330173  9.75E-01
   172 Broy./Diag. 0.40E+00   24.5     1.28829079     -1074.5697505384  1.05E+00
   173 Broy./Diag. 0.40E+00   24.7     1.25790277     -1078.2002880036 -3.63E+00
   174 Broy./Diag. 0.40E+00   24.9     1.80220906     -1078.1240732273  7.62E-02
   175 Broy./Diag. 0.40E+00   24.7     1.81543336     -1077.2330568831  8.91E-01
   176 Broy./Diag. 0.40E+00   24.4     1.28018899     -1070.7152484100  6.52E+00
   177 Broy./Diag. 0.40E+00   24.8     1.38908338     -1078.9653688272 -8.25E+00
   178 Broy./Diag. 0.40E+00   23.8     0.94473025     -1074.6391688738  4.33E+00
   179 Broy./Diag. 0.40E+00   22.5     1.62021387     -1075.5738977478 -9.35E-01
   180 Broy./Diag. 0.40E+00   22.7     1.70028613     -1075.1780467100  3.96E-01
   181 Broy./Diag. 0.40E+00   24.2     1.44932351     -1072.8896013581  2.29E+00
   182 Broy./Diag. 0.40E+00   24.2     1.75049886     -1076.5369065673 -3.65E+00
   183 Broy./Diag. 0.40E+00   24.1     1.78879299     -1078.4932131463 -1.96E+00
   184 Broy./Diag. 0.40E+00   23.7     1.75334789     -1073.8622823344  4.63E+00
   185 Broy./Diag. 0.40E+00   24.1     1.80181646     -1080.7461019068 -6.88E+00
   186 Broy./Diag. 0.40E+00   24.6     1.38380946     -1076.9707258357  3.78E+00
   187 Broy./Diag. 0.40E+00   24.0     1.08497075     -1074.7027580983  2.27E+00
   188 Broy./Diag. 0.40E+00   24.2     0.35114049     -1072.8769430193  1.83E+00
   189 Broy./Diag. 0.40E+00   25.0     0.42294359     -1075.2657834817 -2.39E+00
   190 Broy./Diag. 0.40E+00   24.6     1.61926132     -1073.7842842740  1.48E+00
   191 Broy./Diag. 0.40E+00   24.4     1.68006831     -1079.6373862388 -5.85E+00
   192 Broy./Diag. 0.40E+00   24.4     1.64511553     -1076.2017884295  3.44E+00
   193 Broy./Diag. 0.40E+00   24.3     1.62625388     -1073.1917297646  3.01E+00
   194 Broy./Diag. 0.40E+00   24.6     1.77329001     -1079.4385875075 -6.25E+00
   195 Broy./Diag. 0.40E+00   24.3     1.78562586     -1081.6832800018 -2.24E+00
   196 Broy./Diag. 0.40E+00   24.0     1.17987416     -1075.1591751938  6.52E+00
   197 Broy./Diag. 0.40E+00   25.3     1.30326162     -1076.6938370316 -1.53E+00
   198 Broy./Diag. 0.40E+00   24.1     1.38325390     -1073.7211481560  2.97E+00
   199 Broy./Diag. 0.40E+00   24.5     0.71430875     -1074.1557921927 -4.35E-01
   200 Broy./Diag. 0.40E+00   24.5     1.66649959     -1073.6155993278  5.40E-01
   201 Broy./Diag. 0.40E+00   24.5     1.66576826     -1078.5141690823 -4.90E+00
   202 Broy./Diag. 0.40E+00   24.6     1.67497899     -1077.8770512691  6.37E-01
   203 Broy./Diag. 0.40E+00   24.4     1.69989887     -1074.9240068192  2.95E+00
   204 Broy./Diag. 0.40E+00   23.9     1.78531989     -1074.9097134035  1.43E-02
   205 Broy./Diag. 0.40E+00   24.2     1.75342893     -1079.5504712136 -4.64E+00
   206 Broy./Diag. 0.40E+00   24.1     1.72629552     -1074.1757794885  5.37E+00
   207 Broy./Diag. 0.40E+00   24.3     1.77787091     -1075.5959015948 -1.42E+00
   208 Broy./Diag. 0.40E+00   23.3     1.43057431     -1073.8079855832  1.79E+00
   209 Broy./Diag. 0.40E+00   24.1     1.20516534     -1075.0780208835 -1.27E+00
   210 Broy./Diag. 0.40E+00   24.2     1.48201650     -1072.5528741797  2.53E+00
   211 Broy./Diag. 0.40E+00   23.2     1.56715427     -1081.3838883101 -8.83E+00
   212 Broy./Diag. 0.40E+00   24.0     1.75561230     -1078.4135941875  2.97E+00
   213 Broy./Diag. 0.40E+00   23.8     1.80010579     -1075.2864621980  3.13E+00
   214 Broy./Diag. 0.40E+00   24.4     1.15554119     -1073.1228534563  2.16E+00
   215 Broy./Diag. 0.40E+00   24.6     1.11506141     -1072.7180695767  4.05E-01
   216 Broy./Diag. 0.40E+00   23.0     1.30128981     -1079.5731790914 -6.86E+00
   217 Broy./Diag. 0.40E+00   24.1     1.39533598     -1076.2092494223  3.36E+00
   218 Broy./Diag. 0.40E+00   24.6     1.46822484     -1073.2584861957  2.95E+00
   219 Broy./Diag. 0.40E+00   24.4     1.60769194     -1077.4443403398 -4.19E+00
   220 Broy./Diag. 0.40E+00   24.6     1.62573971     -1078.7382675765 -1.29E+00
   221 Broy./Diag. 0.40E+00   24.3     1.75054951     -1074.4931561814  4.25E+00
   222 Broy./Diag. 0.40E+00   24.7     1.83034447     -1075.2539942994 -7.61E-01
   223 Broy./Diag. 0.40E+00   24.4     1.83067205     -1074.5841012082  6.70E-01
   224 Broy./Diag. 0.40E+00   23.4     1.22590725     -1073.9917697295  5.92E-01
   225 Broy./Diag. 0.40E+00   23.9     1.04285124     -1073.4720401902  5.20E-01
   226 Broy./Diag. 0.40E+00   24.1     1.23371982     -1075.6552596492 -2.18E+00
   227 Broy./Diag. 0.40E+00   24.9     1.61556524     -1075.5033699014  1.52E-01
   228 Broy./Diag. 0.40E+00   24.4     1.70801616     -1076.2967268497 -7.93E-01
   229 Broy./Diag. 0.40E+00   24.8     1.52355355     -1076.4910456033 -1.94E-01
   230 Broy./Diag. 0.40E+00   24.4     1.66698990     -1075.0034393675  1.49E+00
   231 Broy./Diag. 0.40E+00   24.7     1.73989509     -1073.1864423281  1.82E+00
   232 Broy./Diag. 0.40E+00   24.7     1.74722504     -1075.5008724775 -2.31E+00
   233 Broy./Diag. 0.40E+00   24.7     1.83776288     -1075.0405167063  4.60E-01
   234 Broy./Diag. 0.40E+00   24.6     1.24320154     -1074.8713687341  1.69E-01
   235 Broy./Diag. 0.40E+00   24.8     1.58874150     -1075.7207845606 -8.49E-01
   236 Broy./Diag. 0.40E+00   24.7     1.65431704     -1074.6559140234  1.06E+00
   237 Broy./Diag. 0.40E+00   24.7     1.30947033     -1076.4619041757 -1.81E+00
   238 Broy./Diag. 0.40E+00   24.5     1.73784790     -1072.9015582714  3.56E+00
   239 Broy./Diag. 0.40E+00   24.7     1.74716790     -1081.1657507261 -8.26E+00
   240 Broy./Diag. 0.40E+00   24.7     1.14927161     -1075.7131602174  5.45E+00
   241 Broy./Diag. 0.40E+00   24.6     1.05876243     -1073.5459644009  2.17E+00
   242 Broy./Diag. 0.40E+00   24.8     1.02908872     -1078.7411844656 -5.20E+00
   243 Broy./Diag. 0.40E+00   24.7     1.12810508     -1076.6916872672  2.05E+00
   244 Broy./Diag. 0.40E+00   24.5     1.18293392     -1076.1564565212  5.35E-01
   245 Broy./Diag. 0.40E+00   24.9     1.53285403     -1077.4499721339 -1.29E+00
   246 Broy./Diag. 0.40E+00   24.7     1.61208862     -1072.7427528419  4.71E+00
   247 Broy./Diag. 0.40E+00   24.9     1.64942897     -1076.8589896784 -4.12E+00
   248 Broy./Diag. 0.40E+00   24.6     1.75748492     -1076.9404151069 -8.14E-02
   249 Broy./Diag. 0.40E+00   24.0     1.80747310     -1078.3318383356 -1.39E+00
   250 Broy./Diag. 0.40E+00   23.6     1.50102426     -1076.2834535908  2.05E+00
   251 Broy./Diag. 0.40E+00   24.5     1.77318804     -1076.8334647006 -5.50E-01
   252 Broy./Diag. 0.40E+00   23.3     1.77467524     -1073.9428809277  2.89E+00
   253 Broy./Diag. 0.40E+00   23.0     1.78868150     -1074.3716881374 -4.29E-01
   254 Broy./Diag. 0.40E+00   23.9     1.72988316     -1082.7747082098 -8.40E+00
   255 Broy./Diag. 0.40E+00   24.0     1.67146906     -1078.5405660455  4.23E+00
   256 Broy./Diag. 0.40E+00   24.4     1.64739496     -1070.5718577801  7.97E+00
   257 Broy./Diag. 0.40E+00   24.3     1.66086229     -1077.6726834187 -7.10E+00
   258 Broy./Diag. 0.40E+00   24.2     1.53541304     -1074.6967657416  2.98E+00
   259 Broy./Diag. 0.40E+00   23.7     1.61259333     -1074.5962784553  1.00E-01
   260 Broy./Diag. 0.40E+00   24.3     1.66452887     -1074.3476539940  2.49E-01
   261 Broy./Diag. 0.40E+00   24.2     1.13676136     -1072.4931769844  1.85E+00
   262 Broy./Diag. 0.40E+00   25.4     1.62541622     -1076.3349776532 -3.84E+00
   263 Broy./Diag. 0.40E+00   25.6     1.74510154     -1078.6811273119 -2.35E+00
   264 Broy./Diag. 0.40E+00   24.2     1.80595810     -1078.7963582744 -1.15E-01
   265 Broy./Diag. 0.40E+00   23.8     1.69266394     -1076.2113752744  2.58E+00
   266 Broy./Diag. 0.40E+00   24.2     1.64660363     -1076.2051277895  6.25E-03
   267 Broy./Diag. 0.40E+00   24.6     1.66134725     -1074.6776282368  1.53E+00
   268 Broy./Diag. 0.40E+00   22.6     1.70053386     -1074.7704048899 -9.28E-02
   269 Broy./Diag. 0.40E+00   24.3     1.71412827     -1076.3495229682 -1.58E+00
   270 Broy./Diag. 0.40E+00   25.0     1.79725396     -1073.7741601079  2.58E+00
   271 Broy./Diag. 0.40E+00   22.3     1.63443381     -1071.6563450366  2.12E+00
   272 Broy./Diag. 0.40E+00   24.8     1.62749147     -1080.3265095295 -8.67E+00
   273 Broy./Diag. 0.40E+00   25.0     1.09001772     -1076.4611991059  3.87E+00
   274 Broy./Diag. 0.40E+00   25.3     1.12081561     -1076.9142448652 -4.53E-01
   275 Broy./Diag. 0.40E+00   24.6     1.04615967     -1074.4284312094  2.49E+00
   276 Broy./Diag. 0.40E+00   24.8     1.06104788     -1072.9103164185  1.52E+00
   277 Broy./Diag. 0.40E+00   24.1     1.09624174     -1076.8451460135 -3.93E+00
   278 Broy./Diag. 0.40E+00   24.5     1.11825020     -1076.0611177016  7.84E-01
   279 Broy./Diag. 0.40E+00   24.8     1.76579422     -1074.4407999774  1.62E+00
   280 Broy./Diag. 0.40E+00   23.9     1.74648240     -1078.3627189323 -3.92E+00
   281 Broy./Diag. 0.40E+00   24.5     1.32801481     -1075.7204576188  2.64E+00
   282 Broy./Diag. 0.40E+00   24.9     1.62316357     -1075.5092938552  2.11E-01
   283 Broy./Diag. 0.40E+00   22.6     1.71213999     -1074.2870226765  1.22E+00
   284 Broy./Diag. 0.40E+00   23.0     1.17874290     -1074.8272247399 -5.40E-01
   285 Broy./Diag. 0.40E+00   24.0     1.75209381     -1074.3081275654  5.19E-01
   286 Broy./Diag. 0.40E+00   24.7     1.78427137     -1076.2714060803 -1.96E+00
   287 Broy./Diag. 0.40E+00   24.5     1.21623929     -1075.1030138385  1.17E+00
   288 Broy./Diag. 0.40E+00   23.4     1.62023901     -1075.1725458533 -6.95E-02
   289 Broy./Diag. 0.40E+00   23.0     1.69061169     -1076.6773625190 -1.50E+00
   290 Broy./Diag. 0.40E+00   24.8     1.61829386     -1076.2180273237  4.59E-01
   291 Broy./Diag. 0.40E+00   22.9     1.61161076     -1069.8341444151  6.38E+00
   292 Broy./Diag. 0.40E+00   25.0     1.70075043     -1079.3711994857 -9.54E+00
   293 Broy./Diag. 0.40E+00   24.7     1.62985663     -1078.5240723919  8.47E-01
   294 Broy./Diag. 0.40E+00   24.8     1.75031316     -1080.4481241316 -1.92E+00
   295 Broy./Diag. 0.40E+00   24.6     1.84897723     -1074.5311453293  5.92E+00
   296 Broy./Diag. 0.40E+00   24.2     1.83708258     -1075.4187978642 -8.88E-01
   297 Broy./Diag. 0.40E+00   24.5     1.38281986     -1074.2023368465  1.22E+00
   298 Broy./Diag. 0.40E+00   22.5     1.24285738     -1072.9561505972  1.25E+00
   299 Broy./Diag. 0.40E+00   23.8     0.49175749     -1073.1471848869 -1.91E-01
   300 Broy./Diag. 0.40E+00   24.7     1.59085917     -1073.1408238708  6.36E-03

  Leaving inner SCF loop after reaching   300 steps.


  Electronic density on regular grids:       -511.9992634377        0.0007365623
  Core density on regular grids:              512.0000839141        0.0000839141
  Total charge density on r-space grids:        0.0008204764
  Total charge density g-space grids:           0.0008204764

  Overlap energy of the core charge distribution:               0.00000000000000
  Self energy of the core charge distribution:              -2838.21791979120962
  Core Hamiltonian energy:                                    762.60706620686949
  Hartree energy:                                            1240.76523455062647
  Exchange-correlation energy:                               -238.29520483713009

  Total energy:                                             -1073.14082387084363

 *** WARNING in qs_scf.F:542 :: SCF run NOT converged ***


 ENERGY| Total FORCE_EVAL ( QS ) energy (a.u.):            -1068.927087275157874


 ATOMIC FORCES in [a.u.]

 # Atom   Kind   Element          X              Y              Z
      1      1      O           0.05788367    -0.14146323     0.10315088
      2      2      H          -0.06253956     0.05465475     0.02328151
      3      2      H           0.03735162     0.04887573    -0.00547652
      4      1      O          -0.08468326     0.04081338     0.02575643
      5      2      H           0.00728501    -0.03194773     0.03523111
      6      2      H           0.04108406     0.06361526    -0.02240667
      7      1      O           0.05548764     0.05167461     0.19448747
      8      2      H          -0.03392771     0.08244665    -0.11298341
      9      2      H           0.01638286    -0.06193424    -0.00219388
     10      1      O          -0.07709663    -0.09115046    -0.12354551
     11      2      H           0.05821718    -0.02543388     0.07133385
     12      2      H          -0.01045348     0.13027841     0.00860696
     13      1      O          -0.00157475     0.10350447     0.16031713
     14      2      H          -0.00778846     0.01220339    -0.10429040
     15      2      H          -0.01110366    -0.09975509    -0.01822182
     16      1      O           0.08887983    -0.10614286     0.15690288
     17      2      H          -0.09521609    -0.02789618    -0.04769176
     18      2      H          -0.00723933     0.12025891     0.03148229
     19      1      O           0.08741634     0.04625684     0.02227536
     20      2      H          -0.03080794    -0.05543553    -0.07708357
     21      2      H          -0.04691645     0.04415112     0.10200809
     22      1      O           0.14050802    -0.04190662    -0.07212971
     23      2      H          -0.10362527    -0.08923077    -0.01447606
     24      2      H          -0.03646975     0.11304465    -0.04688190
     25      1      O           0.21360741    -0.00965730    -0.13470997
     26      2      H          -0.02039718     0.03610689    -0.04514723
     27      2      H          -0.14764489    -0.07125138     0.13250445
     28      1      O          -0.04160960     0.02996348     0.09420012
     29      2      H           0.01854933     0.03753930    -0.04386773
     30      2      H           0.02730433    -0.05922266     0.00758837
     31      1      O          -0.08384982     0.07511682    -0.04402960
     32      2      H           0.02868943     0.04842152     0.12843787
     33      2      H           0.07295910    -0.00531451    -0.01377839
     34      1      O          -0.11146990     0.02900180     0.03386915
     35      2      H           0.09392190    -0.04458319    -0.00405018
     36      2      H          -0.01651047     0.02599981    -0.00729916
     37      1      O          -0.00495274     0.04871945    -0.07820413
     38      2      H           0.03784449    -0.03995695     0.08566210
     39      2      H          -0.06786940    -0.06258477    -0.04780876
     40      1      O           0.08648115    -0.02252624     0.03002587
     41      2      H          -0.00046810    -0.05337120     0.10154116
     42      2      H          -0.07018172     0.04372204     0.02451072
     43      1      O          -0.04048428     0.12366253    -0.04886198
     44      2      H          -0.03486180    -0.02941291     0.05464623
     45      2      H           0.03538380    -0.07821264    -0.06446080
     46      1      O           0.05786590     0.12758595     0.14121787
     47      2      H           0.02554184    -0.11066756     0.00686765
     48      2      H          -0.09168359    -0.00328166    -0.01518470
     49      1      O           0.08332478     0.13882274     0.03518663
     50      2      H           0.01132287    -0.06106656    -0.01575795
     51      2      H          -0.07132171     0.00879414     0.06225733
     52      1      O           0.05709336    -0.10814959     0.04471108
     53      2      H           0.02289444     0.03781740     0.03626158
     54      2      H          -0.07282476    -0.03077623    -0.01461125
     55      1      O          -0.09799994     0.07849660     0.00627238
     56      2      H           0.03763087    -0.06788951     0.00915103
     57      2      H           0.03014263    -0.00143104     0.03118582
     58      1      O          -0.05111652    -0.04852422    -0.09772574
     59      2      H           0.01985502    -0.01539782    -0.00335790
     60      2      H          -0.00438089    -0.01961692    -0.01144324
     61      1      O          -0.00088308    -0.07359757     0.06025482
     62      2      H           0.00976561     0.03519736    -0.01485992
     63      2      H           0.03853929    -0.03605319     0.05862041
     64      1      O          -0.00908079     0.14913404     0.11181705
     65      2      H           0.07412444    -0.02744120    -0.09393644
     66      2      H          -0.07594057    -0.03420694    -0.01252288
     67      1      O          -0.03907493     0.02300815     0.07652140
     68      2      H          -0.04295756    -0.01939243    -0.07216130
     69      2      H           0.08510601     0.00428922    -0.05936972
     70      1      O          -0.07434977    -0.06275225     0.03476089
     71      2      H           0.09990317    -0.04149062     0.03253142
     72      2      H          -0.01785417     0.07430274    -0.02150682
     73      1      O          -0.02557938     0.05367906     0.00445288
     74      2      H           0.07006929     0.01290194     0.04366684
     75      2      H          -0.01942078    -0.02212283     0.05866886
     76      1      O          -0.10095417    -0.03384648     0.10631035
     77      2      H           0.05376265    -0.04050907    -0.00703930
     78      2      H           0.03168056     0.05379999    -0.02873444
     79      1      O          -0.05326810    -0.31648430    -0.05793562
     80      2      H           0.09098218     0.19249930     0.11815857
     81      2      H          -0.03123725     0.01233408    -0.01135040
     82      1      O          -0.03003287     0.09319378     0.02479846
     83      2      H           0.03228587    -0.03023123     0.07189367
     84      2      H          -0.00404527    -0.02611653    -0.03236145
     85      1      O          -0.01095004    -0.00748699     0.09519440
     86      2      H           0.07054755     0.01949807    -0.06770511
     87      2      H          -0.03780208    -0.06225766    -0.02066912
     88      1      O           0.00761724     0.04661407     0.05171606
     89      2      H           0.00306040     0.02362344    -0.04940123
     90      2      H          -0.02654919    -0.03475344    -0.05661688
     91      1      O           0.08504150    -0.02449096     0.08164105
     92      2      H          -0.03628923    -0.04401200    -0.03263197
     93      2      H          -0.02693312     0.03950636    -0.09087164
     94      1      O           0.02205744     0.11752328    -0.08555949
     95      2      H          -0.04326543    -0.03345875    -0.03941715
     96      2      H           0.05590749     0.03373636     0.06386940
     97      1      O          -0.07741035     0.07346368    -0.13365312
     98      2      H           0.06069115     0.00803474    -0.00425240
     99      2      H          -0.00141010    -0.08913497    -0.00951691
    100      1      O           0.04399035    -0.02475983    -0.00540385
    101      2      H          -0.01458325     0.07266401    -0.04976366
    102      2      H           0.02903554     0.00248732    -0.00907397
    103      1      O           0.06362742     0.07955121     0.01197578
    104      2      H          -0.01994900    -0.06278321     0.03455989
    105      2      H          -0.08292154     0.00420290    -0.05441351
    106      1      O          -0.05837328    -0.04469836    -0.04922340
    107      2      H          -0.03755858     0.08375184    -0.00687792
    108      2      H           0.08082254     0.01693765    -0.05504110
    109      1      O          -0.05303984     0.04227284     0.09367476
    110      2      H           0.02310256     0.04796531    -0.03531211
    111      2      H           0.03728580    -0.03802329     0.06767418
    112      1      O           0.06538042    -0.04983560     0.14745829
    113      2      H          -0.03270167     0.10566047    -0.02498972
    114      2      H          -0.00088526    -0.01386645    -0.07058319
    115      1      O           0.02699417     0.02690739     0.08915571
    116      2      H           0.03458523    -0.06036296     0.01200267
    117      2      H          -0.06010951     0.01058087    -0.01428567
    118      1      O           0.02237978     0.03363893     0.11942719
    119      2      H          -0.00829492    -0.01118104    -0.08672783
    120      2      H          -0.04932613    -0.06850684     0.04534669
    121      1      O          -0.07710583     0.04290892    -0.01457618
    122      2      H           0.07159197    -0.02332683     0.03717424
    123      2      H          -0.01566945    -0.06616126    -0.14382965
    124      1      O           0.05136785    -0.15945586    -0.08144783
    125      2      H          -0.11441771     0.09723296     0.07571978
    126      2      H           0.05817384    -0.01279094     0.09473080
    127      1      O          -0.11950197    -0.00965356     0.08528882
    128      2      H           0.07898282    -0.02490137     0.09485773
    129      2      H           0.07047302     0.02300849    -0.05079076
    130      1      O          -0.03219957     0.11219870    -0.09392132
    131      2      H          -0.00940720    -0.02776571     0.00762478
    132      2      H           0.08731071    -0.02740012    -0.03267634
    133      1      O          -0.06051109    -0.10754840     0.10594564
    134      2      H           0.05739581    -0.01429876     0.08345642
    135      2      H          -0.02370899     0.03143880    -0.01952818
    136      1      O           0.11172262     0.01306583     0.06719224
    137      2      H          -0.05131542    -0.05556613    -0.01777607
    138      2      H          -0.06404420     0.02312282    -0.06056266
    139      1      O           0.02834504    -0.06393798    -0.03270316
    140      2      H           0.03916263    -0.03471109     0.06315187
    141      2      H          -0.08448640    -0.01349168     0.00530404
    142      1      O           0.06144675    -0.04426386    -0.12362381
    143      2      H          -0.00169959    -0.01745991     0.02701550
    144      2      H          -0.05545319     0.01083259    -0.05625729
    145      1      O           0.04534634     0.00654226    -0.02294233
    146      2      H          -0.05567985     0.08777889    -0.06992945
    147      2      H          -0.03549485    -0.04826841    -0.02844505
    148      1      O          -0.01783935     0.04442004    -0.00905362
    149      2      H           0.06244094    -0.02046191    -0.04948481
    150      2      H          -0.03894868    -0.01656018    -0.05853810
    151      1      O           0.02869956     0.05466280     0.09332103
    152      2      H           0.01193328     0.01857236     0.01527710
    153      2      H           0.00315724     0.01609070    -0.00236887
    154      1      O           0.02662726     0.14019435     0.05694976
    155      2      H          -0.00449309    -0.08962939     0.02089413
    156      2      H           0.00792922     0.01039496    -0.11079045
    157      1      O           0.05919445     0.08436118    -0.00832369
    158      2      H          -0.07070865    -0.02166529    -0.03558374
    159      2      H           0.02723281    -0.04609955    -0.05431191
    160      1      O          -0.04931530     0.04223334     0.01019241
    161      2      H           0.00494810    -0.01155034    -0.08677824
    162      2      H           0.02117209    -0.01081142     0.03930026
    163      1      O           0.05408730    -0.06939973     0.09749367
    164      2      H          -0.08094587    -0.03783771    -0.02105094
    165      2      H           0.00586977     0.02695169     0.05786877
    166      1      O          -0.01302914    -0.03741357    -0.11999215
    167      2      H           0.07795096     0.07289356    -0.00476971
    168      2      H          -0.07273013     0.02815209    -0.01742905
    169      1      O          -0.00853935    -0.03729266     0.04044606
    170      2      H           0.05335191     0.05069373     0.04782261
    171      2      H          -0.01408081     0.10395849    -0.05820383
    172      1      O           0.05964548     0.15035445     0.17377219
    173      2      H          -0.09315113    -0.03390938     0.01571302
    174      2      H           0.04862303    -0.02113059    -0.07325283
    175      1      O           0.10471807     0.06670997     0.00484531
    176      2      H           0.01994098     0.02972978    -0.10319176
    177      2      H          -0.08207351     0.01632635     0.05326611
    178      1      O           0.03790718     0.13676147    -0.09823581
    179      2      H           0.00019830    -0.02859545     0.11395412
    180      2      H           0.00881505    -0.11478222    -0.05035603
    181      1      O          -0.09105983    -0.07960789     0.13048774
    182      2      H          -0.02109143    -0.04483191    -0.13505519
    183      2      H           0.06975192     0.07186811    -0.01138423
    184      1      O          -0.04181576    -0.03233140    -0.13252688
    185      2      H           0.04804085     0.06297854    -0.02229667
    186      2      H          -0.02743732     0.03544584     0.05925919
    187      1      O           0.07541847    -0.04675899    -0.10270575
    188      2      H          -0.02345527     0.02667495     0.02512612
    189      2      H          -0.00919586    -0.08997040    -0.01286396
    190      1      O          -0.06053469     0.06237480     0.03538484
    191      2      H           0.04793721     0.00806371    -0.01845695
    192      2      H           0.01246255    -0.01732241     0.01909427
 SUM OF ATOMIC FORCES           0.14538652     0.39549386     0.52754925     0.67517468

 -------------------------------------------------------------------------------
 -                                                                             -
 -                                DBCSR STATISTICS                             -
 -                                                                             -
 -------------------------------------------------------------------------------
 COUNTER                                    TOTAL       BLAS       SMM       ACC
 flops     5 x     5 x   256           3687129600       0.0%    100.0%      0.0%
 flops    13 x     5 x   256           4377551360       0.0%    100.0%      0.0%
 flops     5 x    13 x   256           4497758720       0.0%    100.0%      0.0%
 flops    13 x    13 x   256           6433097216       0.0%    100.0%      0.0%
 flops inhomo. stacks                           0       0.0%      0.0%      0.0%
 flops total                        18.995537E+09       0.0%    100.0%      0.0%
 flops max/rank                     18.995537E+09       0.0%    100.0%      0.0%
 matmuls inhomo. stacks                         0       0.0%      0.0%      0.0%
 matmuls total                             629090       0.0%    100.0%      0.0%
 number of processed stacks                 42140       0.0%    100.0%      0.0%
 average stack size                                     0.0      14.9       0.0
 marketing flops                   333.927416E+09
 -------------------------------------------------------------------------------
 # multiplications                            301
 max memory usage/rank              30.519427E+09
 # max total images/rank                        1
 # max 3D layers                                1
 # MPI messages exchanged                       0
 MPI messages size (bytes):
  total size                         0.000000E+00
  min size                           0.000000E+00
  max size                           0.000000E+00
  average size                       0.000000E+00
 MPI breakdown and total messages size (bytes):
             size <=      128                   0                        0
       128 < size <=     8192                   0                        0
      8192 < size <=    32768                   0                        0
     32768 < size <=   131072                   0                        0
    131072 < size <=  4194304                   0                        0
   4194304 < size <= 16777216                   0                        0
  16777216 < size                               0                        0
 -------------------------------------------------------------------------------

 MEMORY| Estimated peak process memory [MiB]                               29103

 -------------------------------------------------------------------------------
 -                                                                             -
 -                           R E F E R E N C E S                               -
 -                                                                             -
 -------------------------------------------------------------------------------
 
 CP2K version 7.1, the CP2K developers group (2019).
 CP2K is freely available from https://www.cp2k.org/ .

 Schuett, Ole; Messmer, Peter; Hutter, Juerg; VandeVondele, Joost. 
 Electronic Structure Calculations on Graphics Processing Units, John
 Wiley & Sons, Ltd, 173-190 (2016). 
 GPU-Accelerated Sparse Matrix-Matrix Multiplication for
 Linear Scaling Density Functional Theory.
 https://dx.doi.org/10.1002/9781118670712.ch8

 Borstnik, U; VandeVondele, J; Weber, V; Hutter, J. 
 PARALLEL COMPUTING, 40 (5-6), 47-58 (2014). 
 Sparse matrix multiplication: The distributed block-compressed sparse
 row library.
 https://dx.doi.org/10.1016/j.parco.2014.03.012

 Hutter, J; Iannuzzi, M; Schiffmann, F; VandeVondele, J. 
 WIREs Comput Mol Sci., 4 (1), 15-25 (2014). 
 CP2K: atomistic simulations of condensed matter systems.
 https://dx.doi.org/10.1002/wcms.1159

 Krack, M. 
 THEORETICAL CHEMISTRY ACCOUNTS, 114 (1-3), 145-152 (2005). 
 Pseudopotentials for H to Kr optimized for gradient-corrected
 exchange-correlation functionals.
 https://dx.doi.org/10.1007/s00214-005-0655-y

 VandeVondele, J; Krack, M; Mohamed, F; Parrinello, M; Chassaing, T;
 Hutter, J. COMPUTER PHYSICS COMMUNICATIONS, 167 (2), 103-128 (2005). 
 QUICKSTEP: Fast and accurate density functional calculations using a
 mixed Gaussian and plane waves approach.
 https://dx.doi.org/10.1016/j.cpc.2004.12.014

 Frigo, M; Johnson, SG. 
 PROCEEDINGS OF THE IEEE, 93 (2), 216-231 (2005). 
 The design and implementation of FFTW3.
 https://dx.doi.org/10.1109/JPROC.2004.840301

 Hartwigsen, C; Goedecker, S; Hutter, J. 
 PHYSICAL REVIEW B, 58 (7), 3641-3662 (1998). 
 Relativistic separable dual-space Gaussian pseudopotentials from H to Rn.
 https://dx.doi.org/10.1103/PhysRevB.58.3641

 Lippert, G; Hutter, J; Parrinello, M. 
 MOLECULAR PHYSICS, 92 (3), 477-487 (1997). 
 A hybrid Gaussian and plane wave density functional scheme.
 https://dx.doi.org/10.1080/002689797170220

 Goedecker, S; Teter, M; Hutter, J. 
 PHYSICAL REVIEW B, 54 (3), 1703-1710 (1996). 
 Separable dual-space Gaussian pseudopotentials.
 https://dx.doi.org/10.1103/PhysRevB.54.1703


 -------------------------------------------------------------------------------
 -                                                                             -
 -                                T I M I N G                                  -
 -                                                                             -
 -------------------------------------------------------------------------------
 SUBROUTINE                       CALLS  ASD         SELF TIME        TOTAL TIME
                                MAXIMUM       AVERAGE  MAXIMUM  AVERAGE  MAXIMUM
 CP2K                                 1  1.0    0.969    0.969 7255.098 7255.098
 qs_forces                            1  2.0    0.000    0.000 7243.828 7243.828
 qs_energies                          1  3.0    0.000    0.000 7240.487 7240.487
 scf_env_do_scf                       1  4.0    0.001    0.001 7228.970 7228.970
 scf_env_do_scf_inner_loop          300  5.0    0.053    0.053 7228.969 7228.969
 gspace_mixing                      299  6.0   42.325   42.325 2994.331 2994.331
 broyden_mixing                     299  7.0 2704.523 2704.523 2704.527 2704.527
 qs_scf_new_mos                     300  6.0    0.008    0.008 1979.022 1979.022
 eigensolver                        300  7.0    0.031    0.031 1908.027 1908.027
 cp_fm_syevd                        300  8.0 1275.326 1275.326 1276.601 1276.601
 pw_transfer                       3912  9.9    0.388    0.388 1190.882 1190.882
 rebuild_ks_matrix                  301  7.0    0.001    0.001 1170.999 1170.999
 qs_ks_build_kohn_sham_matrix       301  8.0    0.093    0.093 1170.998 1170.998
 qs_ks_update_qs_env                300  6.0    0.004    0.004 1168.091 1168.091
 fft_wrap_pw1pw2                   3310 10.9    0.054    0.054 1158.233 1158.233
 qs_rho_update_rho                  301  6.0    0.004    0.004 1088.643 1088.643
 calculate_rho_elec                 301  7.0  532.653  532.653 1088.639 1088.639
 fft_wrap_pw1pw2_70                1504 11.2   91.249   91.249 1049.551 1049.551
 cp_fm_cholesky_restore             900  8.0  630.322  630.322  630.322  630.322
 fft3d_s                           3311 12.9  555.422  555.422  555.455  555.455
 density_rs2pw                      301  8.0    0.029    0.029  545.988  545.988
 pw_scatter_s                      1804 13.2  411.238  411.238  411.238  411.238
 pw_poisson_solve                   301  9.0  333.525  333.525  366.140  366.140
 sum_up_and_integrate               301  9.0   17.962   17.962  342.115  342.115
 integrate_v_rspace                 301 10.0   10.601   10.601  324.153  324.153
 potential_pw2rs                    301 11.0    2.505    2.505  288.203  288.203
 qs_vxc_create                      301  9.0    0.009    0.009  167.496  167.496
 xc_vxc_pw_create                   301 10.0   42.466   42.466  167.487  167.487
 -------------------------------------------------------------------------------

 The number of warnings for this run is : 1
 
 -------------------------------------------------------------------------------
  **** **** ******  **  PROGRAM ENDED AT                 2020-05-30 13:12:56.340
 ***** ** ***  *** **   PROGRAM RAN ON                                   gnode44
 **    ****   ******    PROGRAM RAN BY                               mayank.modi
 ***** **    ** ** **   PROGRAM PROCESS ID                                  9417
  **** **  *******  **  PROGRAM STOPPED IN /home/mayank.modi/ab-initio-thermodyn
                                           amics-of-water/mayank/cp2k_energy_cal
                                           culations
