 DBCSR| CPU Multiplication driver                                           XSMM
 DBCSR| Multrec recursion limit                                              512
 DBCSR| Multiplication stack size                                           1000
 DBCSR| Maximum elements for images                                    UNLIMITED
 DBCSR| Multiplicative factor virtual images                                   1
 DBCSR| Use multiplication densification                                       T
 DBCSR| Multiplication size stacks                                             3


  **** **** ******  **  PROGRAM STARTED AT               2020-05-28 23:07:29.804
 ***** ** ***  *** **   PROGRAM STARTED ON                               gnode44
 **    ****   ******    PROGRAM STARTED BY                           mayank.modi
 ***** **    ** ** **   PROGRAM PROCESS ID                                 22485
  **** **  *******  **  PROGRAM STARTED IN /home/mayank.modi/ab-initio-thermodyn
                                           amics-of-water/mayank/cp2k_energy_cal
                                           culations

 CP2K| version string:                                          CP2K version 7.1
 CP2K| source code revision number:                                  git:e635599
 CP2K| cp2kflags: omp libint fftw3 libxc xsmm spglib                            
 CP2K| is freely available from                            https://www.cp2k.org/
 CP2K| Program compiled at                          Mon Dec 23 19:23:12 CET 2019
 CP2K| Program compiled on                                                pc9404
 CP2K| Program compiled for                                Linux-x86-64-gfortran
 CP2K| Data directory path                                        /opt/cp2k/data
 CP2K| Input file name                                 input_training/input28.in

 GLOBAL| Force Environment number                                              1
 GLOBAL| Basis set file name                                           BASIS_SET
 GLOBAL| Potential file name                                      GTH_POTENTIALS
 GLOBAL| MM Potential file name                                     MM_POTENTIAL
 GLOBAL| Coordinate file name                                      __STD_INPUT__
 GLOBAL| Method name                                                        CP2K
 GLOBAL| Project name                                                   H2O_bulk
 GLOBAL| Preferred FFT library                                             FFTW3
 GLOBAL| Preferred diagonalization lib.                                       SL
 GLOBAL| Run type                                                   ENERGY_FORCE
 GLOBAL| All-to-all communication in single precision                          F
 GLOBAL| FFTs using library dependent lengths                                  F
 GLOBAL| Global print level                                                  LOW
 GLOBAL| MPI I/O enabled                                                       T
 GLOBAL| Total number of message passing processes                             1
 GLOBAL| Number of threads for this process                                   36
 GLOBAL| This output is from process                                           0
 GLOBAL| CPU model name                Intel(R) Xeon(R) CPU E5-2640 v4 @ 2.40GHz
 GLOBAL| CPUID                                                              1002
 GLOBAL| Compiled for CPUID                                                    0

 MEMORY| system memory details [Kb]
 MEMORY|                        rank 0           min           max       average
 MEMORY| MemTotal            131893056     131893056     131893056     131893056
 MEMORY| MemFree             119201364     119201364     119201364     119201364
 MEMORY| Buffers               2120612       2120612       2120612       2120612
 MEMORY| Cached                3087224       3087224       3087224       3087224
 MEMORY| Slab                  3310248       3310248       3310248       3310248
 MEMORY| SReclaimable          3100616       3100616       3100616       3100616
 MEMORY| MemLikelyFree       127509816     127509816     127509816     127509816


 GENERATE| WARNING:: No connections detected for Hydrogen - Atom Nr:       192 !
 GENERATE|  Preliminary Number of Bonds generated:                             0
 GENERATE|  Achieved consistency in connectivity generation.

 *******************************************************************************
 *******************************************************************************
 **                                                                           **
 **     #####                         ##              ##                      **
 **    ##   ##            ##          ##              ##                      **
 **   ##     ##                       ##            ######                    **
 **   ##     ##  ##   ##  ##   #####  ##  ##   ####   ##    #####    #####    **
 **   ##     ##  ##   ##  ##  ##      ## ##   ##      ##   ##   ##  ##   ##   **
 **   ##  ## ##  ##   ##  ##  ##      ####     ###    ##   ######   ######    **
 **    ##  ###   ##   ##  ##  ##      ## ##      ##   ##   ##       ##        **
 **     #######   #####   ##   #####  ##  ##  ####    ##    #####   ##        **
 **           ##                                                    ##        **
 **                                                                           **
 **                                                ... make the atoms dance   **
 **                                                                           **
 **            Copyright (C) by CP2K developers group (2000 - 2019)           **
 **                                                                           **
 *******************************************************************************


 TOTAL NUMBERS AND MAXIMUM NUMBERS

  Total number of            - Atomic kinds:                                   2
                             - Atoms:                                        192
                             - Shell sets:                                   384
                             - Shells:                                       704
                             - Primitive Cartesian functions:                960
                             - Cartesian basis functions:                   1536
                             - Spherical basis functions:                   1472

  Maximum angular momentum of- Orbital basis functions:                        2
                             - Local part of the GTH pseudopotential:          2
                             - Non-local part of the GTH pseudopotential:      0


 SCF PARAMETERS         Density guess:                                    ATOMIC
                        --------------------------------------------------------
                        max_scf:                                             300
                        max_scf_history:                                       0
                        max_diis:                                              4
                        --------------------------------------------------------
                        eps_scf:                                        1.00E-07
                        eps_scf_history:                                0.00E+00
                        eps_diis:                                       1.00E-01
                        eps_eigval:                                     1.00E-05
                        --------------------------------------------------------
                        level_shift [a.u.]:                                 0.00
                        --------------------------------------------------------
                        Mixing method:                            BROYDEN_MIXING
                                                charge density mixing in g-space
                        --------------------------------------------------------
                        No outer SCF

 Number of electrons:                                                        512
 Number of occupied orbitals:                                                256
 Number of molecular orbitals:                                               256

 Number of orbital functions:                                               1472
 Number of independent orbital functions:                                   1472

 Extrapolation method: initial_guess


 SCF WAVEFUNCTION OPTIMIZATION

  Step     Update method      Time    Convergence         Total energy    Change
  ------------------------------------------------------------------------------
     1 NoMix/Diag. 0.40E+00   10.4     0.68728931     -1064.1262306669 -1.06E+03
     2 Broy./Diag. 0.40E+00   16.5     1.93916143      -994.6145703377  6.95E+01
     3 Broy./Diag. 0.40E+00   17.2     1.96106998     -1268.1059278440 -2.73E+02
     4 Broy./Diag. 0.40E+00   17.9     1.86718850     -1123.5125991140  1.45E+02
     5 Broy./Diag. 0.40E+00   17.4     1.77175080     -1098.6718300811  2.48E+01
     6 Broy./Diag. 0.40E+00   19.4     1.89614676     -1102.1111791537 -3.44E+00
     7 Broy./Diag. 0.40E+00   20.8     1.88145075     -1099.4784273348  2.63E+00
     8 Broy./Diag. 0.40E+00   20.9     1.89482295     -1085.9285024117  1.35E+01
     9 Broy./Diag. 0.40E+00   21.8     1.27994602     -1077.9555525593  7.97E+00
    10 Broy./Diag. 0.40E+00   21.5     1.68214480     -1071.9741989227  5.98E+00
    11 Broy./Diag. 0.40E+00   23.0     1.75295887     -1077.1055068866 -5.13E+00
    12 Broy./Diag. 0.40E+00   23.6     1.32439333     -1071.6470625680  5.46E+00
    13 Broy./Diag. 0.40E+00   23.8     1.75490920     -1070.1918335500  1.46E+00
    14 Broy./Diag. 0.40E+00   24.2     1.80228035     -1076.8935711962 -6.70E+00
    15 Broy./Diag. 0.40E+00   23.1     1.79547252     -1073.0928405593  3.80E+00
    16 Broy./Diag. 0.40E+00   23.7     1.84133038     -1079.5312401362 -6.44E+00
    17 Broy./Diag. 0.40E+00   24.2     1.67103323     -1077.9566121437  1.57E+00
    18 Broy./Diag. 0.40E+00   24.6     1.68522067     -1077.5395539197  4.17E-01
    19 Broy./Diag. 0.40E+00   24.0     0.98562318     -1073.9343497550  3.61E+00
    20 Broy./Diag. 0.40E+00   23.9     1.70810256     -1073.1394250089  7.95E-01
    21 Broy./Diag. 0.40E+00   22.9     1.71081267     -1079.1111149308 -5.97E+00
    22 Broy./Diag. 0.40E+00   23.3     1.12349831     -1076.8184766867  2.29E+00
    23 Broy./Diag. 0.40E+00   24.3     1.33879246     -1076.3249134541  4.94E-01
    24 Broy./Diag. 0.40E+00   23.3     1.70053035     -1076.2719803474  5.29E-02
    25 Broy./Diag. 0.40E+00   23.8     1.79074633     -1075.7013329474  5.71E-01
    26 Broy./Diag. 0.40E+00   24.1     1.84094414     -1078.7568714388 -3.06E+00
    27 Broy./Diag. 0.40E+00   23.4     0.99736132     -1074.3620117372  4.39E+00
    28 Broy./Diag. 0.40E+00   23.7     0.98688275     -1074.9074951162 -5.45E-01
    29 Broy./Diag. 0.40E+00   23.8     1.70331358     -1073.8123157235  1.10E+00
    30 Broy./Diag. 0.40E+00   24.2     1.71187294     -1079.6777922153 -5.87E+00
    31 Broy./Diag. 0.40E+00   24.3     1.69244363     -1074.3781765015  5.30E+00
    32 Broy./Diag. 0.40E+00   23.2     1.69297530     -1076.7490388975 -2.37E+00
    33 Broy./Diag. 0.40E+00   23.8     1.29634148     -1077.3484855448 -5.99E-01
    34 Broy./Diag. 0.40E+00   23.8     1.26754399     -1077.2602113983  8.83E-02
    35 Broy./Diag. 0.40E+00   24.2     1.30322090     -1077.0973933817  1.63E-01
    36 Broy./Diag. 0.40E+00   24.4     1.31567229     -1074.8146606398  2.28E+00
    37 Broy./Diag. 0.40E+00   24.4     1.21989876     -1076.5019906814 -1.69E+00
    38 Broy./Diag. 0.40E+00   24.2     1.24814182     -1076.3254362279  1.77E-01
    39 Broy./Diag. 0.40E+00   24.2     1.70797023     -1073.5645321436  2.76E+00
    40 Broy./Diag. 0.40E+00   24.3     1.76438775     -1079.0557142889 -5.49E+00
    41 Broy./Diag. 0.40E+00   24.3     1.82366231     -1078.4362579252  6.19E-01
    42 Broy./Diag. 0.40E+00   24.3     1.67270304     -1076.8491652258  1.59E+00
    43 Broy./Diag. 0.40E+00   24.5     1.35593909     -1076.0608640613  7.88E-01
    44 Broy./Diag. 0.40E+00   24.1     1.35315275     -1073.8065099827  2.25E+00
    45 Broy./Diag. 0.40E+00   24.6     1.06213632     -1077.2822277004 -3.48E+00
    46 Broy./Diag. 0.40E+00   24.5     0.77809296     -1075.6787431197  1.60E+00
    47 Broy./Diag. 0.40E+00   24.2     1.32070849     -1073.8538876886  1.82E+00
    48 Broy./Diag. 0.40E+00   23.7     1.19643199     -1077.4384241444 -3.58E+00
    49 Broy./Diag. 0.40E+00   23.0     1.49871907     -1077.5357674351 -9.73E-02
    50 Broy./Diag. 0.40E+00   24.2     1.58413394     -1075.9187598723  1.62E+00
    51 Broy./Diag. 0.40E+00   24.6     1.64562661     -1077.5197038540 -1.60E+00
    52 Broy./Diag. 0.40E+00   24.2     1.30718724     -1077.1517546876  3.68E-01
    53 Broy./Diag. 0.40E+00   22.7     1.29528746     -1074.2693684343  2.88E+00
    54 Broy./Diag. 0.40E+00   23.9     1.20953382     -1077.0757199701 -2.81E+00
    55 Broy./Diag. 0.40E+00   24.1     1.27973107     -1076.9726391116  1.03E-01
    56 Broy./Diag. 0.40E+00   24.1     1.32291027     -1073.9335531994  3.04E+00
    57 Broy./Diag. 0.40E+00   24.1     1.31539531     -1078.6214711428 -4.69E+00
    58 Broy./Diag. 0.40E+00   25.3     1.29290283     -1078.2263392583  3.95E-01
    59 Broy./Diag. 0.40E+00   24.6     1.71157906     -1074.6528717394  3.57E+00
    60 Broy./Diag. 0.40E+00   24.2     1.78053608     -1078.6191241833 -3.97E+00
    61 Broy./Diag. 0.40E+00   24.8     1.80800798     -1077.1526869203  1.47E+00
    62 Broy./Diag. 0.40E+00   24.0     1.24942534     -1076.3666813766  7.86E-01
    63 Broy./Diag. 0.40E+00   23.9     1.28598012     -1076.4877066060 -1.21E-01
    64 Broy./Diag. 0.40E+00   23.7     1.64404086     -1074.2109625785  2.28E+00
    65 Broy./Diag. 0.40E+00   23.9     1.64826543     -1076.2958452652 -2.08E+00
    66 Broy./Diag. 0.40E+00   23.8     1.29956564     -1074.6882602477  1.61E+00
    67 Broy./Diag. 0.40E+00   24.4     1.31369863     -1077.2413803367 -2.55E+00
    68 Broy./Diag. 0.40E+00   24.9     1.31374469     -1077.0331740518  2.08E-01
    69 Broy./Diag. 0.40E+00   22.2     1.70350499     -1074.4168070984  2.62E+00
    70 Broy./Diag. 0.40E+00   24.0     1.72184510     -1079.7173262084 -5.30E+00
    71 Broy./Diag. 0.40E+00   24.8     1.18492577     -1077.4555488632  2.26E+00
    72 Broy./Diag. 0.40E+00   24.5     1.29174081     -1076.9678529345  4.88E-01
    73 Broy./Diag. 0.40E+00   24.7     1.30389310     -1076.4799046194  4.88E-01
    74 Broy./Diag. 0.40E+00   24.7     1.78441084     -1074.1514559514  2.33E+00
    75 Broy./Diag. 0.40E+00   24.6     1.78543602     -1079.7221762450 -5.57E+00
    76 Broy./Diag. 0.40E+00   25.0     1.29034613     -1074.4348475291  5.29E+00
    77 Broy./Diag. 0.40E+00   25.0     1.20339826     -1077.4088638275 -2.97E+00
    78 Broy./Diag. 0.40E+00   24.3     1.13778473     -1077.0429010794  3.66E-01
    79 Broy./Diag. 0.40E+00   25.2     1.70986084     -1077.5000148106 -4.57E-01
    80 Broy./Diag. 0.40E+00   24.1     1.73067104     -1077.6569246516 -1.57E-01
    81 Broy./Diag. 0.40E+00   24.0     1.58417182     -1077.2024119253  4.55E-01
    82 Broy./Diag. 0.40E+00   23.6     1.69161580     -1076.5267167324  6.76E-01
    83 Broy./Diag. 0.40E+00   23.9     1.30694444     -1076.1789883221  3.48E-01
    84 Broy./Diag. 0.40E+00   24.0     1.28828529     -1075.6009910568  5.78E-01
    85 Broy./Diag. 0.40E+00   23.5     1.29103613     -1076.9782638313 -1.38E+00
    86 Broy./Diag. 0.40E+00   23.8     0.99317296     -1072.4905400428  4.49E+00
    87 Broy./Diag. 0.40E+00   24.4     1.69892852     -1077.7987506590 -5.31E+00
    88 Broy./Diag. 0.40E+00   24.7     1.73292401     -1079.2632426670 -1.46E+00
    89 Broy./Diag. 0.40E+00   25.0     1.41447074     -1074.4664090609  4.80E+00
    90 Broy./Diag. 0.40E+00   23.4     1.48086699     -1076.5564531380 -2.09E+00
    91 Broy./Diag. 0.40E+00   22.6     1.32903172     -1076.5249972885  3.15E-02
    92 Broy./Diag. 0.40E+00   24.2     1.25613268     -1076.4300333852  9.50E-02
    93 Broy./Diag. 0.40E+00   24.0     1.70973830     -1073.9090384812  2.52E+00
    94 Broy./Diag. 0.40E+00   24.0     1.71403252     -1080.6306587255 -6.72E+00
    95 Broy./Diag. 0.40E+00   24.0     1.29601240     -1077.0603542587  3.57E+00
    96 Broy./Diag. 0.40E+00   23.8     1.42710583     -1077.4794660792 -4.19E-01
    97 Broy./Diag. 0.40E+00   24.6     1.78705828     -1076.1240129562  1.36E+00
    98 Broy./Diag. 0.40E+00   24.1     1.81169738     -1077.1778734224 -1.05E+00
    99 Broy./Diag. 0.40E+00   24.6     1.71428543     -1073.3275102886  3.85E+00
   100 Broy./Diag. 0.40E+00   24.7     1.72238714     -1078.4259623327 -5.10E+00
   101 Broy./Diag. 0.40E+00   24.4     1.50391006     -1078.8399542949 -4.14E-01
   102 Broy./Diag. 0.40E+00   24.6     1.51155127     -1077.3646715342  1.48E+00
   103 Broy./Diag. 0.40E+00   23.9     1.63282869     -1074.4697245172  2.89E+00
   104 Broy./Diag. 0.40E+00   24.3     1.69113619     -1076.4459760048 -1.98E+00
   105 Broy./Diag. 0.40E+00   23.9     1.28704669     -1076.4666254912 -2.06E-02
   106 Broy./Diag. 0.40E+00   23.1     1.33571534     -1076.2446141220  2.22E-01
   107 Broy./Diag. 0.40E+00   24.5     1.31840169     -1074.3535646605  1.89E+00
   108 Broy./Diag. 0.40E+00   24.9     1.18647418     -1077.8258772103 -3.47E+00
   109 Broy./Diag. 0.40E+00   24.3     1.69675829     -1077.2629091024  5.63E-01
   110 Broy./Diag. 0.40E+00   24.6     1.79496676     -1075.7433266899  1.52E+00
   111 Broy./Diag. 0.40E+00   24.3     1.81450832     -1077.1104371090 -1.37E+00
   112 Broy./Diag. 0.40E+00   24.6     1.29487789     -1076.5151116555  5.95E-01
   113 Broy./Diag. 0.40E+00   24.6     1.30357987     -1074.0984165323  2.42E+00
   114 Broy./Diag. 0.40E+00   24.3     1.19831261     -1078.1030014242 -4.00E+00
   115 Broy./Diag. 0.40E+00   24.8     1.28686718     -1077.8032284867  3.00E-01
   116 Broy./Diag. 0.40E+00   24.5     1.32285782     -1074.3624513299  3.44E+00
   117 Broy./Diag. 0.40E+00   24.4     1.32144092     -1077.5668694358 -3.20E+00
   118 Broy./Diag. 0.40E+00   24.6     1.49066347     -1076.3925317748  1.17E+00
   119 Broy./Diag. 0.40E+00   24.4     1.50100901     -1077.4197257813 -1.03E+00
   120 Broy./Diag. 0.40E+00   24.3     1.78057769     -1077.1655835335  2.54E-01
   121 Broy./Diag. 0.40E+00   23.8     1.81376167     -1077.2440714675 -7.85E-02
   122 Broy./Diag. 0.40E+00   24.0     1.74047996     -1077.9766123237 -7.33E-01
   123 Broy./Diag. 0.40E+00   24.3     1.63896812     -1076.1972214917  1.78E+00
   124 Broy./Diag. 0.40E+00   22.7     1.73343766     -1074.7011370884  1.50E+00
   125 Broy./Diag. 0.40E+00   24.5     1.71524941     -1073.1765786335  1.52E+00
   126 Broy./Diag. 0.40E+00   22.6     1.72579462     -1080.1768867523 -7.00E+00
   127 Broy./Diag. 0.40E+00   24.0     1.66053143     -1077.3544561158  2.82E+00
   128 Broy./Diag. 0.40E+00   23.5     1.32229688     -1074.0872278326  3.27E+00
   129 Broy./Diag. 0.40E+00   23.5     1.18355168     -1078.5373417238 -4.45E+00
   130 Broy./Diag. 0.40E+00   23.6     1.28602151     -1076.5827380655  1.95E+00
   131 Broy./Diag. 0.40E+00   22.5     1.28532137     -1076.9256688361 -3.43E-01
   132 Broy./Diag. 0.40E+00   22.3     1.68237771     -1074.0844309861  2.84E+00
   133 Broy./Diag. 0.40E+00   23.9     1.67321707     -1080.0597684527 -5.98E+00
   134 Broy./Diag. 0.40E+00   23.9     1.69109961     -1077.0360481677  3.02E+00
   135 Broy./Diag. 0.40E+00   24.6     1.24352232     -1076.6927237783  3.43E-01
   136 Broy./Diag. 0.40E+00   25.2     1.30965656     -1076.3311750371  3.62E-01
   137 Broy./Diag. 0.40E+00   24.4     1.09072577     -1075.7256202292  6.06E-01
   138 Broy./Diag. 0.40E+00   24.7     1.29767308     -1073.7918296041  1.93E+00
   139 Broy./Diag. 0.40E+00   24.6     1.78315178     -1077.6491481368 -3.86E+00
   140 Broy./Diag. 0.40E+00   24.2     1.80102962     -1077.8368071233 -1.88E-01
   141 Broy./Diag. 0.40E+00   24.8     1.71367014     -1074.0354034180  3.80E+00
   142 Broy./Diag. 0.40E+00   24.4     1.72797646     -1079.6343410207 -5.60E+00
   143 Broy./Diag. 0.40E+00   24.3     1.34595317     -1077.5459440736  2.09E+00
   144 Broy./Diag. 0.40E+00   23.9     1.33663889     -1074.1960501814  3.35E+00
   145 Broy./Diag. 0.40E+00   25.5     1.46850996     -1076.4796193624 -2.28E+00
   146 Broy./Diag. 0.40E+00   24.2     1.47105948     -1076.6596227852 -1.80E-01
   147 Broy./Diag. 0.40E+00   24.5     1.62668337     -1074.3675583428  2.29E+00
   148 Broy./Diag. 0.40E+00   24.3     1.66106518     -1076.9896432589 -2.62E+00
   149 Broy./Diag. 0.40E+00   23.7     1.31133297     -1076.7081025117  2.82E-01
   150 Broy./Diag. 0.40E+00   24.2     1.29450129     -1074.8469810594  1.86E+00
   151 Broy./Diag. 0.40E+00   24.5     1.29503441     -1076.9459283849 -2.10E+00
   152 Broy./Diag. 0.40E+00   24.4     0.91348374     -1075.5963734098  1.35E+00
   153 Broy./Diag. 0.40E+00   24.6     1.29016441     -1073.9875709824  1.61E+00
   154 Broy./Diag. 0.40E+00   24.5     1.26076881     -1078.6428723215 -4.66E+00
   155 Broy./Diag. 0.40E+00   24.6     1.55960039     -1077.5680492690  1.07E+00
   156 Broy./Diag. 0.40E+00   24.4     1.58467254     -1075.9010868481  1.67E+00
   157 Broy./Diag. 0.40E+00   24.3     1.64923557     -1077.4522657496 -1.55E+00
   158 Broy./Diag. 0.40E+00   24.6     1.06449342     -1074.6214302084  2.83E+00
   159 Broy./Diag. 0.40E+00   24.8     1.31735460     -1075.1887550977 -5.67E-01
   160 Broy./Diag. 0.40E+00   24.6     1.26102410     -1076.7373356246 -1.55E+00
   161 Broy./Diag. 0.40E+00   24.3     1.33208917     -1076.4986737566  2.39E-01
   162 Broy./Diag. 0.40E+00   24.4     1.67042739     -1074.0670031506  2.43E+00
   163 Broy./Diag. 0.40E+00   24.6     1.68335645     -1079.7100241138 -5.64E+00
   164 Broy./Diag. 0.40E+00   24.5     1.29540458     -1077.9703630674  1.74E+00
   165 Broy./Diag. 0.40E+00   24.6     1.30665589     -1074.6383855647  3.33E+00
   166 Broy./Diag. 0.40E+00   24.3     1.24290435     -1076.9781171037 -2.34E+00
   167 Broy./Diag. 0.40E+00   24.4     1.23311472     -1076.9816055912 -3.49E-03
   168 Broy./Diag. 0.40E+00   24.5     1.29189893     -1076.8284769041  1.53E-01
   169 Broy./Diag. 0.40E+00   24.6     1.30045580     -1075.7552019247  1.07E+00
   170 Broy./Diag. 0.40E+00   24.7     1.76462250     -1076.9032973691 -1.15E+00
   171 Broy./Diag. 0.40E+00   25.0     1.81361603     -1076.4154527788  4.88E-01
   172 Broy./Diag. 0.40E+00   24.5     1.66671351     -1073.0482314720  3.37E+00
   173 Broy./Diag. 0.40E+00   24.4     1.71877517     -1077.9485518986 -4.90E+00
   174 Broy./Diag. 0.40E+00   24.5     1.74411797     -1080.0886689683 -2.14E+00
   175 Broy./Diag. 0.40E+00   24.7     1.36250405     -1074.6560124634  5.43E+00
   176 Broy./Diag. 0.40E+00   24.7     1.25478164     -1078.2784409199 -3.62E+00
   177 Broy./Diag. 0.40E+00   24.8     1.34676970     -1076.2063233716  2.07E+00
   178 Broy./Diag. 0.40E+00   24.6     1.25132398     -1076.0244471273  1.82E-01
   179 Broy./Diag. 0.40E+00   24.3     1.25816393     -1076.8670496086 -8.43E-01
   180 Broy./Diag. 0.40E+00   24.7     1.26512887     -1076.4641703350  4.03E-01
   181 Broy./Diag. 0.40E+00   24.2     1.76714998     -1076.3397987910  1.24E-01
   182 Broy./Diag. 0.40E+00   23.6     1.80946626     -1077.7333833164 -1.39E+00
   183 Broy./Diag. 0.40E+00   24.1     1.71423476     -1073.9257055415  3.81E+00
   184 Broy./Diag. 0.40E+00   24.6     1.72330538     -1079.9166348583 -5.99E+00
   185 Broy./Diag. 0.40E+00   22.5     1.18429179     -1077.2968648003  2.62E+00
   186 Broy./Diag. 0.40E+00   22.5     1.29141182     -1076.4422257712  8.55E-01
   187 Broy./Diag. 0.40E+00   24.1     1.41450236     -1074.7348542363  1.71E+00
   188 Broy./Diag. 0.40E+00   24.4     1.52088755     -1076.5199230893 -1.79E+00
   189 Broy./Diag. 0.40E+00   23.9     1.42181298     -1073.4814001491  3.04E+00
   190 Broy./Diag. 0.40E+00   23.5     1.42795531     -1077.9066278356 -4.43E+00
   191 Broy./Diag. 0.40E+00   24.1     1.77543164     -1078.0603349439 -1.54E-01
   192 Broy./Diag. 0.40E+00   24.7     1.80775684     -1077.9143072712  1.46E-01
   193 Broy./Diag. 0.40E+00   22.7     1.70722729     -1074.0542990627  3.86E+00
   194 Broy./Diag. 0.40E+00   24.4     1.29399472     -1079.0288923648 -4.97E+00
   195 Broy./Diag. 0.40E+00   22.7     1.13462225     -1077.6565629661  1.37E+00
   196 Broy./Diag. 0.40E+00   23.5     1.63567512     -1077.6021337216  5.44E-02
   197 Broy./Diag. 0.40E+00   24.3     1.69583497     -1075.7920078488  1.81E+00
   198 Broy./Diag. 0.40E+00   23.8     1.12172017     -1073.8613804184  1.93E+00
   199 Broy./Diag. 0.40E+00   24.5     1.17211587     -1076.4600576880 -2.60E+00
   200 Broy./Diag. 0.40E+00   24.2     1.58463771     -1077.0025506687 -5.42E-01
   201 Broy./Diag. 0.40E+00   23.4     1.79633071     -1076.9928764906  9.67E-03
   202 Broy./Diag. 0.40E+00   24.2     1.83007612     -1077.4590992353 -4.66E-01
   203 Broy./Diag. 0.40E+00   23.8     1.69326873     -1073.3862504988  4.07E+00
   204 Broy./Diag. 0.40E+00   23.4     1.71645266     -1079.6431514477 -6.26E+00
   205 Broy./Diag. 0.40E+00   24.5     1.71032456     -1079.3872140360  2.56E-01
   206 Broy./Diag. 0.40E+00   24.5     1.72965028     -1078.8478349083  5.39E-01
   207 Broy./Diag. 0.40E+00   24.4     1.76459938     -1076.3080449995  2.54E+00
   208 Broy./Diag. 0.40E+00   24.4     1.30042110     -1073.4860576891  2.82E+00
   209 Broy./Diag. 0.40E+00   24.3     1.25833164     -1076.7940357723 -3.31E+00
   210 Broy./Diag. 0.40E+00   24.8     1.16724222     -1076.4200257535  3.74E-01
   211 Broy./Diag. 0.40E+00   24.8     1.78596088     -1073.4663184882  2.95E+00
   212 Broy./Diag. 0.40E+00   24.5     1.80295264     -1077.9767741975 -4.51E+00
   213 Broy./Diag. 0.40E+00   24.9     1.55999416     -1077.2591427156  7.18E-01
   214 Broy./Diag. 0.40E+00   24.4     1.66255447     -1075.8124071513  1.45E+00
   215 Broy./Diag. 0.40E+00   24.5     1.26229249     -1077.5134161429 -1.70E+00
   216 Broy./Diag. 0.40E+00   23.4     1.28289205     -1075.5710431173  1.94E+00
   217 Broy./Diag. 0.40E+00   24.2     1.72105203     -1073.5169293400  2.05E+00
   218 Broy./Diag. 0.40E+00   22.9     1.72154088     -1078.9258002242 -5.41E+00
   219 Broy./Diag. 0.40E+00   23.5     1.29039383     -1077.4025271113  1.52E+00
   220 Broy./Diag. 0.40E+00   24.6     1.33361677     -1077.0630752267  3.39E-01
   221 Broy./Diag. 0.40E+00   24.0     1.79485588     -1075.4189250462  1.64E+00
   222 Broy./Diag. 0.40E+00   24.7     1.83855418     -1077.4172908923 -2.00E+00
   223 Broy./Diag. 0.40E+00   25.6     1.71567333     -1073.0686721838  4.35E+00
   224 Broy./Diag. 0.40E+00   25.4     1.71751715     -1079.7801227944 -6.71E+00
   225 Broy./Diag. 0.40E+00   24.2     1.64159885     -1074.6775727217  5.10E+00
   226 Broy./Diag. 0.40E+00   24.3     1.67643778     -1076.2416074508 -1.56E+00
   227 Broy./Diag. 0.40E+00   25.1     1.01707630     -1076.2789755553 -3.74E-02
   228 Broy./Diag. 0.40E+00   22.4     1.21129739     -1076.2424864446  3.65E-02
   229 Broy./Diag. 0.40E+00   23.7     1.28943649     -1077.0936325295 -8.51E-01
   230 Broy./Diag. 0.40E+00   24.1     0.55506625     -1074.6314733047  2.46E+00
   231 Broy./Diag. 0.40E+00   24.3     1.29927166     -1075.2059916780 -5.75E-01
   232 Broy./Diag. 0.40E+00   22.9     1.75468177     -1077.6355551315 -2.43E+00
   233 Broy./Diag. 0.40E+00   24.4     1.80931589     -1077.8531401186 -2.18E-01
   234 Broy./Diag. 0.40E+00   23.3     1.73269694     -1078.0953278204 -2.42E-01
   235 Broy./Diag. 0.40E+00   23.8     1.68495423     -1076.4831154802  1.61E+00
   236 Broy./Diag. 0.40E+00   24.3     1.71434969     -1076.1694843517  3.14E-01
   237 Broy./Diag. 0.40E+00   24.2     1.71328596     -1073.0288260601  3.14E+00
   238 Broy./Diag. 0.40E+00   23.1     1.72247516     -1079.0768843124 -6.05E+00
   239 Broy./Diag. 0.40E+00   24.2     1.27536422     -1077.4984217280  1.58E+00
   240 Broy./Diag. 0.40E+00   22.9     1.71181778     -1074.2637900098  3.23E+00
   241 Broy./Diag. 0.40E+00   22.1     1.71289646     -1078.7588452348 -4.50E+00
   242 Broy./Diag. 0.40E+00   21.7     1.78129616     -1073.9378766610  4.82E+00
   243 Broy./Diag. 0.40E+00   23.2     1.80416219     -1078.4131317280 -4.48E+00
   244 Broy./Diag. 0.40E+00   22.7     1.25696962     -1077.2372025414  1.18E+00
   245 Broy./Diag. 0.40E+00   25.5     1.69005871     -1077.4669584037 -2.30E-01
   246 Broy./Diag. 0.40E+00   24.7     1.69243728     -1077.4524004462  1.46E-02
   247 Broy./Diag. 0.40E+00   25.0     0.95891546     -1074.8022919454  2.65E+00
   248 Broy./Diag. 0.40E+00   24.3     1.00835268     -1075.1880821253 -3.86E-01
   249 Broy./Diag. 0.40E+00   24.6     1.30805369     -1073.4254429236  1.76E+00
   250 Broy./Diag. 0.40E+00   24.9     1.71291614     -1079.2663848569 -5.84E+00
   251 Broy./Diag. 0.40E+00   24.9     1.73818794     -1077.6345041973  1.63E+00
   252 Broy./Diag. 0.40E+00   24.6     1.79476322     -1077.5232019057  1.11E-01
   253 Broy./Diag. 0.40E+00   24.5     1.84689396     -1077.3438124684  1.79E-01
   254 Broy./Diag. 0.40E+00   24.7     1.32603124     -1078.5111744173 -1.17E+00
   255 Broy./Diag. 0.40E+00   24.5     1.39609422     -1075.7238847002  2.79E+00
   256 Broy./Diag. 0.40E+00   24.7     1.69887763     -1072.8742644032  2.85E+00
   257 Broy./Diag. 0.40E+00   24.6     1.72245875     -1079.2747272415 -6.40E+00
   258 Broy./Diag. 0.40E+00   24.4     1.72072227     -1074.7005089513  4.57E+00
   259 Broy./Diag. 0.40E+00   24.5     1.71922581     -1078.6923675760 -3.99E+00
   260 Broy./Diag. 0.40E+00   24.4     1.21884935     -1076.8639110422  1.83E+00
   261 Broy./Diag. 0.40E+00   24.7     1.24307349     -1073.7041054952  3.16E+00
   262 Broy./Diag. 0.40E+00   24.4     1.77294423     -1077.9051728152 -4.20E+00
   263 Broy./Diag. 0.40E+00   24.5     1.80642001     -1078.0670092914 -1.62E-01
   264 Broy./Diag. 0.40E+00   24.6     1.64629212     -1074.1319220792  3.94E+00
   265 Broy./Diag. 0.40E+00   25.0     1.67033383     -1077.6103387114 -3.48E+00
   266 Broy./Diag. 0.40E+00   24.9     1.69600207     -1077.6052761954  5.06E-03
   267 Broy./Diag. 0.40E+00   24.9     1.71274844     -1077.6699541582 -6.47E-02
   268 Broy./Diag. 0.40E+00   24.7     1.41449488     -1075.9340893454  1.74E+00
   269 Broy./Diag. 0.40E+00   24.6     1.48356479     -1076.6733068761 -7.39E-01
   270 Broy./Diag. 0.40E+00   24.4     1.71825392     -1073.6274231465  3.05E+00
   271 Broy./Diag. 0.40E+00   24.3     1.71621362     -1079.4546832102 -5.83E+00
   272 Broy./Diag. 0.40E+00   25.2     1.30540409     -1077.6345717643  1.82E+00
   273 Broy./Diag. 0.40E+00   24.6     1.33764451     -1074.4414679518  3.19E+00
   274 Broy./Diag. 0.40E+00   23.0     1.32825411     -1076.5524566035 -2.11E+00
   275 Broy./Diag. 0.40E+00   24.3     1.29275285     -1074.6355818930  1.92E+00
   276 Broy./Diag. 0.40E+00   23.5     1.70614972     -1077.1095929803 -2.47E+00
   277 Broy./Diag. 0.40E+00   24.2     1.70947954     -1076.7129985174  3.97E-01
   278 Broy./Diag. 0.40E+00   24.0     1.26993923     -1076.2663452334  4.47E-01
   279 Broy./Diag. 0.40E+00   24.1     1.31076996     -1074.3549207612  1.91E+00
   280 Broy./Diag. 0.40E+00   24.7     1.70885913     -1078.3453148047 -3.99E+00
   281 Broy./Diag. 0.40E+00   22.7     1.72688664     -1079.8471487945 -1.50E+00
   282 Broy./Diag. 0.40E+00   24.0     1.66367732     -1077.3283583274  2.52E+00
   283 Broy./Diag. 0.40E+00   23.7     1.35894402     -1076.6496265445  6.79E-01
   284 Broy./Diag. 0.40E+00   23.8     1.28757231     -1075.9009139007  7.49E-01
   285 Broy./Diag. 0.40E+00   24.3     1.71066821     -1074.4075032235  1.49E+00
   286 Broy./Diag. 0.40E+00   24.6     1.71030580     -1076.2212411940 -1.81E+00
   287 Broy./Diag. 0.40E+00   24.9     1.64832668     -1077.2845741529 -1.06E+00
   288 Broy./Diag. 0.40E+00   24.5     1.32335533     -1074.1704065336  3.11E+00
   289 Broy./Diag. 0.40E+00   25.0     1.67845012     -1077.7221260019 -3.55E+00
   290 Broy./Diag. 0.40E+00   25.3     1.33110215     -1079.0851227056 -1.36E+00
   291 Broy./Diag. 0.40E+00   24.7     1.72533561     -1079.1647432178 -7.96E-02
   292 Broy./Diag. 0.40E+00   24.8     1.30833128     -1077.2216798273  1.94E+00
   293 Broy./Diag. 0.40E+00   24.3     1.71779093     -1074.0157679543  3.21E+00
   294 Broy./Diag. 0.40E+00   24.1     1.78792414     -1078.7732451549 -4.76E+00
   295 Broy./Diag. 0.40E+00   23.9     1.81112757     -1077.4091285859  1.36E+00
   296 Broy./Diag. 0.40E+00   24.8     1.32199629     -1073.5843224753  3.82E+00
   297 Broy./Diag. 0.40E+00   22.3     1.04514177     -1078.3375226806 -4.75E+00
   298 Broy./Diag. 0.40E+00   23.0     1.30340669     -1077.9592139084  3.78E-01
   299 Broy./Diag. 0.40E+00   23.5     1.33923513     -1074.7095849217  3.25E+00
   300 Broy./Diag. 0.40E+00   22.2     1.69314750     -1076.6983807527 -1.99E+00

  Leaving inner SCF loop after reaching   300 steps.


  Electronic density on regular grids:       -511.9997262783        0.0002737217
  Core density on regular grids:              511.9997482968       -0.0002517032
  Total charge density on r-space grids:        0.0000220186
  Total charge density g-space grids:           0.0000220186

  Overlap energy of the core charge distribution:               0.00000000000000
  Self energy of the core charge distribution:              -2838.21791979120962
  Core Hamiltonian energy:                                    759.17400863108412
  Hartree energy:                                            1240.86305324828049
  Exchange-correlation energy:                               -238.51752284081044

  Total energy:                                             -1076.69838075265534

 *** WARNING in qs_scf.F:542 :: SCF run NOT converged ***


 ENERGY| Total FORCE_EVAL ( QS ) energy (a.u.):            -1075.140061857832961


 ATOMIC FORCES in [a.u.]

 # Atom   Kind   Element          X              Y              Z
      1      1      O          -0.01296884     0.03159537    -0.02878302
      2      2      H           0.06409705     0.03299113    -0.00333528
      3      2      H          -0.06131856     0.05288826     0.08456264
      4      1      O          -0.00509960    -0.09782585     0.07324510
      5      2      H          -0.05807151     0.04475268     0.02817332
      6      2      H           0.05584311     0.06059943    -0.00523131
      7      1      O           0.01470805     0.13736930     0.02249807
      8      2      H           0.06982772    -0.07925695    -0.03232236
      9      2      H          -0.05764164     0.01533037     0.07975610
     10      1      O          -0.00179841     0.04749155    -0.12837682
     11      2      H           0.04761776     0.07476289     0.05130676
     12      2      H          -0.00182156    -0.01637615     0.06561501
     13      1      O          -0.08550933    -0.11583776     0.05013116
     14      2      H          -0.00527864     0.06934138     0.04273570
     15      2      H           0.05632879     0.02066660    -0.00236161
     16      1      O          -0.07391286     0.01963667    -0.09796552
     17      2      H           0.06092165     0.04485032     0.05497277
     18      2      H           0.03823078    -0.07618488    -0.02709748
     19      1      O          -0.05524362     0.02134215    -0.15693893
     20      2      H           0.02039987    -0.04936808     0.02871872
     21      2      H           0.03691971     0.06233230     0.04375449
     22      1      O          -0.00727206    -0.02673623     0.10777193
     23      2      H          -0.05275392     0.06096598     0.08593448
     24      2      H           0.01855350     0.05376173    -0.06966397
     25      1      O           0.05240695     0.01368151    -0.06795705
     26      2      H          -0.02362532     0.03165659     0.08535255
     27      2      H          -0.02969941    -0.01334544    -0.07108417
     28      1      O          -0.06170233     0.03813858    -0.14005086
     29      2      H           0.00558013     0.00322693     0.13926445
     30      2      H           0.05828465     0.06017568    -0.03906091
     31      1      O          -0.04419732     0.00844090     0.01668119
     32      2      H           0.01894987     0.03384213    -0.03236278
     33      2      H           0.04757554    -0.04478206     0.00611792
     34      1      O          -0.02953198    -0.00208127     0.01787040
     35      2      H           0.01885522     0.07371901    -0.06660785
     36      2      H          -0.02526457    -0.03236075    -0.02348260
     37      1      O          -0.07816745    -0.08611153    -0.06241091
     38      2      H           0.02694260     0.02424146     0.07462120
     39      2      H           0.05994396     0.04714935    -0.11914919
     40      1      O           0.03488612     0.02312638    -0.08994015
     41      2      H           0.00077810     0.08601326     0.04972555
     42      2      H          -0.05650921    -0.06097549     0.05309208
     43      1      O          -0.02768070    -0.00892320     0.07676003
     44      2      H           0.01294453    -0.04038556    -0.11250706
     45      2      H          -0.01964313     0.10653396    -0.03156510
     46      1      O          -0.05723213     0.00856089    -0.04359038
     47      2      H           0.04314460     0.04774704     0.00116928
     48      2      H           0.04581499    -0.06124584    -0.00779181
     49      1      O          -0.01206576    -0.13792746     0.06470697
     50      2      H           0.04795470     0.01844931     0.10010371
     51      2      H          -0.03120282     0.03472469    -0.08315987
     52      1      O           0.00480825    -0.14344280    -0.07147667
     53      2      H           0.04415377     0.08697767     0.00947490
     54      2      H          -0.01677920     0.02303275     0.02866708
     55      1      O          -0.06970217     0.06607914     0.09956337
     56      2      H           0.02491621     0.01715974    -0.08116329
     57      2      H           0.05447769     0.03329564     0.06633974
     58      1      O          -0.06023790    -0.11999002    -0.10460505
     59      2      H          -0.02880648     0.06641214    -0.03444541
     60      2      H           0.08438262    -0.01381272     0.02482501
     61      1      O          -0.05044205    -0.06150922    -0.03096065
     62      2      H          -0.00948280     0.10285523     0.01132821
     63      2      H           0.03929263     0.00564254     0.05672329
     64      1      O           0.02156528    -0.05299036     0.08158403
     65      2      H          -0.02902047     0.04460405     0.06021194
     66      2      H           0.00506816    -0.00313588    -0.09886573
     67      1      O          -0.00754161    -0.07289232    -0.12833752
     68      2      H          -0.03211299     0.09472244    -0.02470953
     69      2      H           0.01620022    -0.01272326     0.07729071
     70      1      O           0.01804058    -0.02410578     0.04637437
     71      2      H          -0.03356076     0.03202859    -0.06846688
     72      2      H           0.02692112    -0.03989994     0.00676086
     73      1      O           0.04447760     0.04855985     0.11461756
     74      2      H           0.03744263    -0.06750488    -0.01303540
     75      2      H          -0.06300520     0.02668782    -0.07926387
     76      1      O          -0.03242656    -0.01109242    -0.00007370
     77      2      H           0.04421316    -0.02064933     0.00419329
     78      2      H           0.00772063     0.01711053    -0.03135672
     79      1      O          -0.00205007     0.16563287    -0.18582401
     80      2      H          -0.03532327    -0.08164712     0.05670996
     81      2      H           0.06434400    -0.01808246     0.00933940
     82      1      O          -0.00817223     0.04439437    -0.09401596
     83      2      H           0.04869243    -0.07780830    -0.03483523
     84      2      H          -0.01093453     0.01723766     0.04480295
     85      1      O           0.04404265    -0.12792570    -0.08840624
     86      2      H           0.02684021     0.06353623     0.02121689
     87      2      H          -0.05434854     0.05020121    -0.01737775
     88      1      O          -0.05424833     0.11498395     0.03023473
     89      2      H          -0.04685973    -0.06220567     0.01385355
     90      2      H           0.07500701     0.00872340     0.00634098
     91      1      O          -0.05888812    -0.13173342    -0.11043094
     92      2      H          -0.00330853     0.12327657    -0.04193166
     93      2      H           0.01708572    -0.04752177     0.08679756
     94      1      O          -0.00440824     0.03679889     0.01132623
     95      2      H           0.02001556    -0.03299494    -0.02728144
     96      2      H          -0.06075334    -0.00154128    -0.08973425
     97      1      O          -0.04042641     0.04947692    -0.02305191
     98      2      H           0.00525187    -0.03189314     0.10362054
     99      2      H           0.04953115    -0.05724463    -0.06332969
    100      1      O          -0.06239218     0.10392604     0.05849044
    101      2      H           0.05328337    -0.02762966    -0.05095612
    102      2      H           0.04835627    -0.01963558     0.03284655
    103      1      O          -0.06792124    -0.01249977    -0.07601062
    104      2      H           0.09298406    -0.01371642     0.02790628
    105      2      H          -0.03063870     0.01721621     0.04185030
    106      1      O          -0.04166499    -0.09029935    -0.09646735
    107      2      H           0.01650406     0.04575509    -0.02355524
    108      2      H           0.03487307    -0.04792205     0.01331009
    109      1      O           0.07367308    -0.02757951    -0.12453637
    110      2      H           0.01463527     0.04739210     0.00027932
    111      2      H          -0.08887686     0.04679710    -0.03632598
    112      1      O          -0.04366211    -0.08873435    -0.03964020
    113      2      H           0.06932249    -0.03747167    -0.01274791
    114      2      H          -0.01867203     0.04338407    -0.02916199
    115      1      O           0.08402295     0.00994663    -0.08043765
    116      2      H          -0.06990614    -0.05032963     0.02496202
    117      2      H          -0.00986971     0.03303325     0.07935904
    118      1      O          -0.08829832     0.00400936    -0.01222914
    119      2      H           0.05687898     0.01008781    -0.06171577
    120      2      H           0.01310683     0.04724090     0.02246347
    121      1      O          -0.10096951     0.01322318     0.04437603
    122      2      H           0.04658509    -0.05891931    -0.06037821
    123      2      H           0.02755572     0.06614050     0.03862998
    124      1      O          -0.03375889     0.05777487    -0.08424812
    125      2      H           0.02976813    -0.07692615     0.00323105
    126      2      H           0.03300373     0.01843809     0.04741131
    127      1      O          -0.07432104    -0.05573073    -0.02157461
    128      2      H           0.05022445    -0.03097660     0.03361514
    129      2      H           0.01602594     0.06090396    -0.02564845
    130      1      O          -0.07004455    -0.06211314    -0.04743416
    131      2      H           0.06843002    -0.05287194     0.01696273
    132      2      H          -0.01490495     0.07381780    -0.00217711
    133      1      O          -0.05238783     0.00712997    -0.06706832
    134      2      H           0.03832141     0.05811585    -0.02560683
    135      2      H          -0.01898588    -0.03239954     0.09577910
    136      1      O           0.07444141    -0.10997053    -0.01442811
    137      2      H          -0.10538570    -0.00136331     0.04152544
    138      2      H           0.02233454     0.07861142    -0.04212014
    139      1      O           0.00395570    -0.14669509    -0.14555419
    140      2      H           0.05891439     0.06777940     0.04781730
    141      2      H          -0.06726420     0.07694346    -0.05317014
    142      1      O           0.07764455    -0.11226797    -0.03353908
    143      2      H          -0.00472217     0.03806813    -0.03144611
    144      2      H          -0.07371088    -0.01982796    -0.03695075
    145      1      O           0.05930030    -0.04422099     0.06128319
    146      2      H          -0.04810566    -0.01862123    -0.01551882
    147      2      H          -0.04065365     0.01603723     0.09304488
    148      1      O          -0.05298606    -0.04153469    -0.07063796
    149      2      H           0.03505454     0.04696631    -0.03955455
    150      2      H           0.05172709    -0.08618220     0.04615882
    151      1      O          -0.03119736     0.01155678     0.08620566
    152      2      H           0.00133024    -0.04017204     0.05929955
    153      2      H           0.05965615     0.01896941    -0.07077090
    154      1      O           0.05753732    -0.09209348    -0.01612529
    155      2      H          -0.06014558     0.02654418    -0.00953152
    156      2      H           0.01428810     0.00602322     0.01907306
    157      1      O           0.08092111    -0.09690406    -0.15146665
    158      2      H          -0.00279376     0.07480252     0.10308001
    159      2      H          -0.06557108    -0.00043655     0.01252472
    160      1      O           0.01096986     0.10659289    -0.05080343
    161      2      H           0.04333792    -0.03147428     0.02962893
    162      2      H          -0.03299890    -0.01227754    -0.05091982
    163      1      O           0.00663797     0.10567205    -0.00207190
    164      2      H           0.05380430    -0.01047540     0.02157305
    165      2      H          -0.06810716    -0.06658444     0.01437642
    166      1      O          -0.02740262     0.08288164    -0.03401709
    167      2      H          -0.02395296    -0.03904534     0.01459320
    168      2      H           0.05647233    -0.00230705     0.06903729
    169      1      O          -0.08110469    -0.02058675    -0.12431368
    170      2      H           0.00119055     0.04914570     0.12278246
    171      2      H           0.06444134     0.04482779    -0.06320410
    172      1      O           0.05749298    -0.10681769     0.11477158
    173      2      H          -0.07514851    -0.05078007    -0.02392139
    174      2      H          -0.01501031     0.05258098     0.03022267
    175      1      O          -0.06725452    -0.03369704     0.12063143
    176      2      H           0.08418257    -0.00736975    -0.01465191
    177      2      H          -0.03047326     0.05192202    -0.05599725
    178      1      O          -0.07162725     0.05126350    -0.15297658
    179      2      H           0.07748372    -0.01082285     0.08383224
    180      2      H          -0.03553071    -0.10968672     0.06976446
    181      1      O           0.02781613    -0.14896054    -0.12789442
    182      2      H           0.03785841     0.04231467     0.04781295
    183      2      H          -0.01553141     0.05123348     0.00356327
    184      1      O          -0.04607430    -0.07619047    -0.14757492
    185      2      H          -0.04709678    -0.00795502     0.11035251
    186      2      H           0.06135874    -0.00648079    -0.02988756
    187      1      O          -0.01989149     0.08270178     0.15932990
    188      2      H           0.05584614     0.03496412    -0.00866547
    189      2      H          -0.02793113    -0.06352695    -0.08058489
    190      1      O          -0.08483518     0.03368400    -0.18607071
    191      2      H           0.09550297    -0.02765178     0.07872269
    192      2      H          -0.00052760     0.02802658    -0.00366136
 SUM OF ATOMIC FORCES          -0.01730465     0.20117419    -1.13240808     1.15026891

 -------------------------------------------------------------------------------
 -                                                                             -
 -                                DBCSR STATISTICS                             -
 -                                                                             -
 -------------------------------------------------------------------------------
 COUNTER                                    TOTAL       BLAS       SMM       ACC
 flops     5 x     5 x   256           3482931200       0.0%    100.0%      0.0%
 flops     5 x    13 x   256           4247326720       0.0%    100.0%      0.0%
 flops    13 x     5 x   256           4267361280       0.0%    100.0%      0.0%
 flops    13 x    13 x   256           6172647936       0.0%    100.0%      0.0%
 flops inhomo. stacks                           0       0.0%      0.0%      0.0%
 flops total                        18.170267E+09       0.0%    100.0%      0.0%
 flops max/rank                     18.170267E+09       0.0%    100.0%      0.0%
 matmuls inhomo. stacks                         0       0.0%      0.0%      0.0%
 matmuls total                             599291       0.0%    100.0%      0.0%
 number of processed stacks                 42140       0.0%    100.0%      0.0%
 average stack size                                     0.0      14.2       0.0
 marketing flops                   333.927416E+09
 -------------------------------------------------------------------------------
 # multiplications                            301
 max memory usage/rank              30.520037E+09
 # max total images/rank                        1
 # max 3D layers                                1
 # MPI messages exchanged                       0
 MPI messages size (bytes):
  total size                         0.000000E+00
  min size                           0.000000E+00
  max size                           0.000000E+00
  average size                       0.000000E+00
 MPI breakdown and total messages size (bytes):
             size <=      128                   0                        0
       128 < size <=     8192                   0                        0
      8192 < size <=    32768                   0                        0
     32768 < size <=   131072                   0                        0
    131072 < size <=  4194304                   0                        0
   4194304 < size <= 16777216                   0                        0
  16777216 < size                               0                        0
 -------------------------------------------------------------------------------

 MEMORY| Estimated peak process memory [MiB]                               29101

 -------------------------------------------------------------------------------
 -                                                                             -
 -                           R E F E R E N C E S                               -
 -                                                                             -
 -------------------------------------------------------------------------------
 
 CP2K version 7.1, the CP2K developers group (2019).
 CP2K is freely available from https://www.cp2k.org/ .

 Schuett, Ole; Messmer, Peter; Hutter, Juerg; VandeVondele, Joost. 
 Electronic Structure Calculations on Graphics Processing Units, John
 Wiley & Sons, Ltd, 173-190 (2016). 
 GPU-Accelerated Sparse Matrix-Matrix Multiplication for
 Linear Scaling Density Functional Theory.
 https://dx.doi.org/10.1002/9781118670712.ch8

 Borstnik, U; VandeVondele, J; Weber, V; Hutter, J. 
 PARALLEL COMPUTING, 40 (5-6), 47-58 (2014). 
 Sparse matrix multiplication: The distributed block-compressed sparse
 row library.
 https://dx.doi.org/10.1016/j.parco.2014.03.012

 Hutter, J; Iannuzzi, M; Schiffmann, F; VandeVondele, J. 
 WIREs Comput Mol Sci., 4 (1), 15-25 (2014). 
 CP2K: atomistic simulations of condensed matter systems.
 https://dx.doi.org/10.1002/wcms.1159

 Krack, M. 
 THEORETICAL CHEMISTRY ACCOUNTS, 114 (1-3), 145-152 (2005). 
 Pseudopotentials for H to Kr optimized for gradient-corrected
 exchange-correlation functionals.
 https://dx.doi.org/10.1007/s00214-005-0655-y

 VandeVondele, J; Krack, M; Mohamed, F; Parrinello, M; Chassaing, T;
 Hutter, J. COMPUTER PHYSICS COMMUNICATIONS, 167 (2), 103-128 (2005). 
 QUICKSTEP: Fast and accurate density functional calculations using a
 mixed Gaussian and plane waves approach.
 https://dx.doi.org/10.1016/j.cpc.2004.12.014

 Frigo, M; Johnson, SG. 
 PROCEEDINGS OF THE IEEE, 93 (2), 216-231 (2005). 
 The design and implementation of FFTW3.
 https://dx.doi.org/10.1109/JPROC.2004.840301

 Hartwigsen, C; Goedecker, S; Hutter, J. 
 PHYSICAL REVIEW B, 58 (7), 3641-3662 (1998). 
 Relativistic separable dual-space Gaussian pseudopotentials from H to Rn.
 https://dx.doi.org/10.1103/PhysRevB.58.3641

 Lippert, G; Hutter, J; Parrinello, M. 
 MOLECULAR PHYSICS, 92 (3), 477-487 (1997). 
 A hybrid Gaussian and plane wave density functional scheme.
 https://dx.doi.org/10.1080/002689797170220

 Goedecker, S; Teter, M; Hutter, J. 
 PHYSICAL REVIEW B, 54 (3), 1703-1710 (1996). 
 Separable dual-space Gaussian pseudopotentials.
 https://dx.doi.org/10.1103/PhysRevB.54.1703


 -------------------------------------------------------------------------------
 -                                                                             -
 -                                T I M I N G                                  -
 -                                                                             -
 -------------------------------------------------------------------------------
 SUBROUTINE                       CALLS  ASD         SELF TIME        TOTAL TIME
                                MAXIMUM       AVERAGE  MAXIMUM  AVERAGE  MAXIMUM
 CP2K                                 1  1.0    1.076    1.076 7220.806 7220.806
 qs_forces                            1  2.0    0.000    0.000 7209.363 7209.363
 qs_energies                          1  3.0    0.000    0.000 7205.152 7205.152
 scf_env_do_scf                       1  4.0    0.001    0.001 7193.669 7193.669
 scf_env_do_scf_inner_loop          300  5.0    0.237    0.237 7193.668 7193.668
 gspace_mixing                      299  6.0   42.058   42.058 2973.984 2973.984
 broyden_mixing                     299  7.0 2685.078 2685.078 2685.082 2685.082
 qs_scf_new_mos                     300  6.0    0.008    0.008 1951.937 1951.937
 eigensolver                        300  7.0    0.034    0.034 1880.677 1880.677
 cp_fm_syevd                        300  8.0 1264.416 1264.416 1265.615 1265.615
 pw_transfer                       3912  9.9    0.388    0.388 1189.303 1189.303
 rebuild_ks_matrix                  301  7.0    0.001    0.001 1167.621 1167.621
 qs_ks_build_kohn_sham_matrix       301  8.0    0.116    0.116 1167.620 1167.620
 qs_ks_update_qs_env                300  6.0    0.004    0.004 1163.932 1163.932
 fft_wrap_pw1pw2                   3310 10.9    0.048    0.048 1156.626 1156.626
 qs_rho_update_rho                  301  6.0    0.003    0.003 1104.160 1104.160
 calculate_rho_elec                 301  7.0  556.071  556.071 1104.157 1104.157
 fft_wrap_pw1pw2_70                1504 11.2   91.074   91.074 1046.833 1046.833
 cp_fm_cholesky_restore             900  8.0  613.948  613.948  613.948  613.948
 fft3d_s                           3311 12.9  555.672  555.672  555.709  555.709
 density_rs2pw                      301  8.0    0.035    0.035  538.517  538.517
 pw_scatter_s                      1804 13.2  410.449  410.449  410.449  410.449
 pw_poisson_solve                   301  9.0  331.021  331.021  363.659  363.659
 sum_up_and_integrate               301  9.0   17.369   17.369  342.784  342.784
 integrate_v_rspace                 301 10.0   10.511   10.511  325.415  325.415
 potential_pw2rs                    301 11.0    2.545    2.545  290.348  290.348
 qs_vxc_create                      301  9.0    0.007    0.007  165.306  165.306
 xc_vxc_pw_create                   301 10.0   42.260   42.260  165.298  165.298
 -------------------------------------------------------------------------------

 The number of warnings for this run is : 1
 
 -------------------------------------------------------------------------------
  **** **** ******  **  PROGRAM ENDED AT                 2020-05-29 01:07:51.008
 ***** ** ***  *** **   PROGRAM RAN ON                                   gnode44
 **    ****   ******    PROGRAM RAN BY                               mayank.modi
 ***** **    ** ** **   PROGRAM PROCESS ID                                 22485
  **** **  *******  **  PROGRAM STOPPED IN /home/mayank.modi/ab-initio-thermodyn
                                           amics-of-water/mayank/cp2k_energy_cal
                                           culations
