 DBCSR| CPU Multiplication driver                                           XSMM
 DBCSR| Multrec recursion limit                                              512
 DBCSR| Multiplication stack size                                           1000
 DBCSR| Maximum elements for images                                    UNLIMITED
 DBCSR| Multiplicative factor virtual images                                   1
 DBCSR| Use multiplication densification                                       T
 DBCSR| Multiplication size stacks                                             3


  **** **** ******  **  PROGRAM STARTED AT               2020-05-30 07:07:28.575
 ***** ** ***  *** **   PROGRAM STARTED ON                               gnode44
 **    ****   ******    PROGRAM STARTED BY                           mayank.modi
 ***** **    ** ** **   PROGRAM PROCESS ID                                  6228
  **** **  *******  **  PROGRAM STARTED IN /home/mayank.modi/ab-initio-thermodyn
                                           amics-of-water/mayank/cp2k_energy_cal
                                           culations

 CP2K| version string:                                          CP2K version 7.1
 CP2K| source code revision number:                                  git:e635599
 CP2K| cp2kflags: omp libint fftw3 libxc xsmm spglib                            
 CP2K| is freely available from                            https://www.cp2k.org/
 CP2K| Program compiled at                          Mon Dec 23 19:23:12 CET 2019
 CP2K| Program compiled on                                                pc9404
 CP2K| Program compiled for                                Linux-x86-64-gfortran
 CP2K| Data directory path                                        /opt/cp2k/data
 CP2K| Input file name                                 input_training/input44.in

 GLOBAL| Force Environment number                                              1
 GLOBAL| Basis set file name                                           BASIS_SET
 GLOBAL| Potential file name                                      GTH_POTENTIALS
 GLOBAL| MM Potential file name                                     MM_POTENTIAL
 GLOBAL| Coordinate file name                                      __STD_INPUT__
 GLOBAL| Method name                                                        CP2K
 GLOBAL| Project name                                                   H2O_bulk
 GLOBAL| Preferred FFT library                                             FFTW3
 GLOBAL| Preferred diagonalization lib.                                       SL
 GLOBAL| Run type                                                   ENERGY_FORCE
 GLOBAL| All-to-all communication in single precision                          F
 GLOBAL| FFTs using library dependent lengths                                  F
 GLOBAL| Global print level                                                  LOW
 GLOBAL| MPI I/O enabled                                                       T
 GLOBAL| Total number of message passing processes                             1
 GLOBAL| Number of threads for this process                                   36
 GLOBAL| This output is from process                                           0
 GLOBAL| CPU model name                Intel(R) Xeon(R) CPU E5-2640 v4 @ 2.40GHz
 GLOBAL| CPUID                                                              1002
 GLOBAL| Compiled for CPUID                                                    0

 MEMORY| system memory details [Kb]
 MEMORY|                        rank 0           min           max       average
 MEMORY| MemTotal            131893056     131893056     131893056     131893056
 MEMORY| MemFree             120719376     120719376     120719376     120719376
 MEMORY| Buffers               2129536       2129536       2129536       2129536
 MEMORY| Cached                3474560       3474560       3474560       3474560
 MEMORY| Slab                  3310916       3310916       3310916       3310916
 MEMORY| SReclaimable          3107112       3107112       3107112       3107112
 MEMORY| MemLikelyFree       129430584     129430584     129430584     129430584


 GENERATE|  Preliminary Number of Bonds generated:                             0
 GENERATE|  Achieved consistency in connectivity generation.

 *******************************************************************************
 *******************************************************************************
 **                                                                           **
 **     #####                         ##              ##                      **
 **    ##   ##            ##          ##              ##                      **
 **   ##     ##                       ##            ######                    **
 **   ##     ##  ##   ##  ##   #####  ##  ##   ####   ##    #####    #####    **
 **   ##     ##  ##   ##  ##  ##      ## ##   ##      ##   ##   ##  ##   ##   **
 **   ##  ## ##  ##   ##  ##  ##      ####     ###    ##   ######   ######    **
 **    ##  ###   ##   ##  ##  ##      ## ##      ##   ##   ##       ##        **
 **     #######   #####   ##   #####  ##  ##  ####    ##    #####   ##        **
 **           ##                                                    ##        **
 **                                                                           **
 **                                                ... make the atoms dance   **
 **                                                                           **
 **            Copyright (C) by CP2K developers group (2000 - 2019)           **
 **                                                                           **
 *******************************************************************************


 TOTAL NUMBERS AND MAXIMUM NUMBERS

  Total number of            - Atomic kinds:                                   2
                             - Atoms:                                        192
                             - Shell sets:                                   384
                             - Shells:                                       704
                             - Primitive Cartesian functions:                960
                             - Cartesian basis functions:                   1536
                             - Spherical basis functions:                   1472

  Maximum angular momentum of- Orbital basis functions:                        2
                             - Local part of the GTH pseudopotential:          2
                             - Non-local part of the GTH pseudopotential:      0


 SCF PARAMETERS         Density guess:                                    ATOMIC
                        --------------------------------------------------------
                        max_scf:                                             300
                        max_scf_history:                                       0
                        max_diis:                                              4
                        --------------------------------------------------------
                        eps_scf:                                        1.00E-07
                        eps_scf_history:                                0.00E+00
                        eps_diis:                                       1.00E-01
                        eps_eigval:                                     1.00E-05
                        --------------------------------------------------------
                        level_shift [a.u.]:                                 0.00
                        --------------------------------------------------------
                        Mixing method:                            BROYDEN_MIXING
                                                charge density mixing in g-space
                        --------------------------------------------------------
                        No outer SCF

 Number of electrons:                                                        512
 Number of occupied orbitals:                                                256
 Number of molecular orbitals:                                               256

 Number of orbital functions:                                               1472
 Number of independent orbital functions:                                   1472

 Extrapolation method: initial_guess


 SCF WAVEFUNCTION OPTIMIZATION

  Step     Update method      Time    Convergence         Total energy    Change
  ------------------------------------------------------------------------------
     1 NoMix/Diag. 0.40E+00   10.3     0.61271030     -1064.1294262936 -1.06E+03
     2 Broy./Diag. 0.40E+00   15.2     1.92313016      -996.7189944196  6.74E+01
     3 Broy./Diag. 0.40E+00   17.3     1.94740138     -1261.9888796078 -2.65E+02
     4 Broy./Diag. 0.40E+00   17.5     1.94714463     -1110.0944796890  1.52E+02
     5 Broy./Diag. 0.40E+00   18.2     1.95747210     -1100.7514854450  9.34E+00
     6 Broy./Diag. 0.40E+00   19.0     0.80727655     -1097.0934282210  3.66E+00
     7 Broy./Diag. 0.40E+00   20.4     0.55939111     -1084.2370632136  1.29E+01
     8 Broy./Diag. 0.40E+00   21.8     1.74898394     -1077.0446301314  7.19E+00
     9 Broy./Diag. 0.40E+00   21.7     1.76037451     -1081.6926914196 -4.65E+00
    10 Broy./Diag. 0.40E+00   23.7     1.32906477     -1079.6363844269  2.06E+00
    11 Broy./Diag. 0.40E+00   23.3     1.42025443     -1079.8138967402 -1.78E-01
    12 Broy./Diag. 0.40E+00   24.3     1.36698034     -1079.0810596051  7.33E-01
    13 Broy./Diag. 0.40E+00   24.1     1.06644192     -1076.7944275456  2.29E+00
    14 Broy./Diag. 0.40E+00   23.7     1.10609962     -1073.5809483992  3.21E+00
    15 Broy./Diag. 0.40E+00   24.7     1.10262590     -1077.4824618435 -3.90E+00
    16 Broy./Diag. 0.40E+00   23.0     1.46680037     -1076.0234225175  1.46E+00
    17 Broy./Diag. 0.40E+00   22.3     1.40553880     -1075.8722735431  1.51E-01
    18 Broy./Diag. 0.40E+00   23.1     0.76102034     -1075.0512692024  8.21E-01
    19 Broy./Diag. 0.40E+00   24.1     0.84179525     -1077.4093542666 -2.36E+00
    20 Broy./Diag. 0.40E+00   24.7     0.95713375     -1074.8621441077  2.55E+00
    21 Broy./Diag. 0.40E+00   23.0     1.18836626     -1078.0728316816 -3.21E+00
    22 Broy./Diag. 0.40E+00   25.0     1.21878857     -1077.5723590235  5.00E-01
    23 Broy./Diag. 0.40E+00   24.3     1.32786784     -1077.2491138401  3.23E-01
    24 Broy./Diag. 0.40E+00   24.2     1.36344194     -1076.9218608346  3.27E-01
    25 Broy./Diag. 0.40E+00   24.6     0.19162335     -1075.1614871827  1.76E+00
    26 Broy./Diag. 0.40E+00   23.9     0.29770685     -1075.1033307846  5.82E-02
    27 Broy./Diag. 0.40E+00   23.9     1.06888925     -1075.8155414139 -7.12E-01
    28 Broy./Diag. 0.40E+00   24.6     1.37046034     -1077.4358882684 -1.62E+00
    29 Broy./Diag. 0.40E+00   22.3     1.24722947     -1077.2906393424  1.45E-01
    30 Broy./Diag. 0.40E+00   23.5     1.23861013     -1075.3606316859  1.93E+00
    31 Broy./Diag. 0.40E+00   23.7     1.25165264     -1076.9576121138 -1.60E+00
    32 Broy./Diag. 0.40E+00   23.4     1.24382507     -1077.0008385436 -4.32E-02
    33 Broy./Diag. 0.40E+00   23.4     0.80613334     -1076.0471925499  9.54E-01
    34 Broy./Diag. 0.40E+00   23.6     0.12840041     -1075.7048299846  3.42E-01
    35 Broy./Diag. 0.40E+00   23.2     0.11519008     -1075.2612371604  4.44E-01
    36 Broy./Diag. 0.40E+00   24.1     0.60702419     -1075.3433717953 -8.21E-02
    37 Broy./Diag. 0.40E+00   23.7     1.40180246     -1076.4646731185 -1.12E+00
    38 Broy./Diag. 0.40E+00   22.9     1.37947380     -1077.3864420296 -9.22E-01
    39 Broy./Diag. 0.40E+00   22.5     1.52265378     -1075.4970304282  1.89E+00
    40 Broy./Diag. 0.40E+00   23.2     1.55821023     -1077.4461243753 -1.95E+00
    41 Broy./Diag. 0.40E+00   24.5     1.26778864     -1077.2842451914  1.62E-01
    42 Broy./Diag. 0.40E+00   23.8     0.87467731     -1077.2616001546  2.26E-02
    43 Broy./Diag. 0.40E+00   23.4     0.82629736     -1075.1219839655  2.14E+00
    44 Broy./Diag. 0.40E+00   20.9     0.88943560     -1077.4797285096 -2.36E+00
    45 Broy./Diag. 0.40E+00   21.9     1.30786057     -1075.4411920348  2.04E+00
    46 Broy./Diag. 0.40E+00   20.8     1.33281370     -1077.1362770155 -1.70E+00
    47 Broy./Diag. 0.40E+00   22.1     1.09613774     -1077.0524159427  8.39E-02
    48 Broy./Diag. 0.40E+00   23.9     0.39841393     -1075.0132495492  2.04E+00
    49 Broy./Diag. 0.40E+00   25.1     1.33835494     -1076.1755369489 -1.16E+00
    50 Broy./Diag. 0.40E+00   24.0     1.74816613     -1077.0483506905 -8.73E-01
    51 Broy./Diag. 0.40E+00   23.5     1.27947943     -1077.4160103342 -3.68E-01
    52 Broy./Diag. 0.40E+00   24.2     0.38235644     -1075.3335332181  2.08E+00
    53 Broy./Diag. 0.40E+00   23.8     0.39854179     -1076.2165347178 -8.83E-01
    54 Broy./Diag. 0.40E+00   24.7     1.01189619     -1075.5832580072  6.33E-01
    55 Broy./Diag. 0.40E+00   23.8     1.32423966     -1077.2673596626 -1.68E+00
    56 Broy./Diag. 0.40E+00   23.9     1.77161624     -1077.2941441489 -2.68E-02
    57 Broy./Diag. 0.40E+00   22.5     1.78303718     -1078.6977607236 -1.40E+00
    58 Broy./Diag. 0.40E+00   24.0     1.37677231     -1076.7714184031  1.93E+00
    59 Broy./Diag. 0.40E+00   24.1     1.36971398     -1076.3104411292  4.61E-01
    60 Broy./Diag. 0.40E+00   22.2     1.38622405     -1076.2111165396  9.93E-02
    61 Broy./Diag. 0.40E+00   25.4     0.16643338     -1075.0812296726  1.13E+00
    62 Broy./Diag. 0.40E+00   23.8     1.16873824     -1075.5892742664 -5.08E-01
    63 Broy./Diag. 0.40E+00   24.1     1.13104527     -1077.3014189791 -1.71E+00
    64 Broy./Diag. 0.40E+00   23.8     1.51904038     -1075.6720448637  1.63E+00
    65 Broy./Diag. 0.40E+00   23.1     1.57877726     -1077.4341202680 -1.76E+00
    66 Broy./Diag. 0.40E+00   21.0     1.24578929     -1075.1556931894  2.28E+00
    67 Broy./Diag. 0.40E+00   23.8     1.25327968     -1077.5203709206 -2.36E+00
    68 Broy./Diag. 0.40E+00   24.7     1.22671704     -1077.5219663888 -1.60E-03
    69 Broy./Diag. 0.40E+00   22.5     1.29481094     -1077.0973099343  4.25E-01
    70 Broy./Diag. 0.40E+00   22.0     1.31740716     -1077.2535679865 -1.56E-01
    71 Broy./Diag. 0.40E+00   23.5     1.34989910     -1077.2255666632  2.80E-02
    72 Broy./Diag. 0.40E+00   23.7     0.11042817     -1075.0836825359  2.14E+00
    73 Broy./Diag. 0.40E+00   23.0     0.76796575     -1075.3664062104 -2.83E-01
    74 Broy./Diag. 0.40E+00   23.5     1.22596690     -1076.9472276967 -1.58E+00
    75 Broy./Diag. 0.40E+00   24.8     1.42785957     -1077.4652310843 -5.18E-01
    76 Broy./Diag. 0.40E+00   24.7     1.25193396     -1075.4875210392  1.98E+00
    77 Broy./Diag. 0.40E+00   24.0     1.26487041     -1077.1183206296 -1.63E+00
    78 Broy./Diag. 0.40E+00   23.9     1.09259767     -1077.1321919785 -1.39E-02
    79 Broy./Diag. 0.40E+00   22.9     0.04962612     -1075.1976994994  1.93E+00
    80 Broy./Diag. 0.40E+00   24.1     0.82044897     -1075.3050627837 -1.07E-01
    81 Broy./Diag. 0.40E+00   24.6     1.31736247     -1077.4910612934 -2.19E+00
    82 Broy./Diag. 0.40E+00   24.2     1.36050078     -1077.4547711173  3.63E-02
    83 Broy./Diag. 0.40E+00   25.2     1.74363644     -1075.4008963588  2.05E+00
    84 Broy./Diag. 0.40E+00   23.7     1.78373552     -1078.6183477940 -3.22E+00
    85 Broy./Diag. 0.40E+00   23.5     1.11180720     -1077.0604527685  1.56E+00
    86 Broy./Diag. 0.40E+00   23.7     1.25848691     -1076.7568367878  3.04E-01
    87 Broy./Diag. 0.40E+00   23.9     1.34219563     -1076.6018334332  1.55E-01
    88 Broy./Diag. 0.40E+00   24.3     1.42334184     -1074.5177835568  2.08E+00
    89 Broy./Diag. 0.40E+00   24.8     1.25056062     -1077.8648529247 -3.35E+00
    90 Broy./Diag. 0.40E+00   24.7     0.72167991     -1076.8228991396  1.04E+00
    91 Broy./Diag. 0.40E+00   23.7     0.80485811     -1075.0176738463  1.81E+00
    92 Broy./Diag. 0.40E+00   23.8     1.00452986     -1077.1718354335 -2.15E+00
    93 Broy./Diag. 0.40E+00   22.6     0.84252968     -1076.3187322997  8.53E-01
    94 Broy./Diag. 0.40E+00   23.9     0.15931008     -1075.1883259281  1.13E+00
    95 Broy./Diag. 0.40E+00   24.1     0.26251595     -1075.0585090150  1.30E-01
    96 Broy./Diag. 0.40E+00   22.4     0.82296206     -1076.0342492858 -9.76E-01
    97 Broy./Diag. 0.40E+00   23.7     1.31554028     -1077.5951935480 -1.56E+00
    98 Broy./Diag. 0.40E+00   23.7     1.35846244     -1077.5002646451  9.49E-02
    99 Broy./Diag. 0.40E+00   23.7     0.45754562     -1076.0733706951  1.43E+00
   100 Broy./Diag. 0.40E+00   23.5     1.48600438     -1075.2254031104  8.48E-01
   101 Broy./Diag. 0.40E+00   24.7     1.46409525     -1077.4057521714 -2.18E+00
   102 Broy./Diag. 0.40E+00   23.9     0.92576939     -1076.6298938284  7.76E-01
   103 Broy./Diag. 0.40E+00   22.6     1.06522568     -1075.2422780754  1.39E+00
   104 Broy./Diag. 0.40E+00   21.5     1.15994476     -1077.1802436597 -1.94E+00
   105 Broy./Diag. 0.40E+00   23.8     1.26566508     -1076.8537459905  3.26E-01
   106 Broy./Diag. 0.40E+00   23.8     1.27085976     -1077.2233352975 -3.70E-01
   107 Broy./Diag. 0.40E+00   24.8     1.35552987     -1075.0915778476  2.13E+00
   108 Broy./Diag. 0.40E+00   22.2     1.35037440     -1077.6430645771 -2.55E+00
   109 Broy./Diag. 0.40E+00   24.5     1.15302900     -1077.3878268728  2.55E-01
   110 Broy./Diag. 0.40E+00   24.1     1.76591814     -1075.4912415785  1.90E+00
   111 Broy./Diag. 0.40E+00   23.7     1.77572812     -1078.9671524130 -3.48E+00
   112 Broy./Diag. 0.40E+00   23.8     1.36920242     -1077.2371978273  1.73E+00
   113 Broy./Diag. 0.40E+00   22.7     1.36592766     -1076.9652180050  2.72E-01
   114 Broy./Diag. 0.40E+00   24.0     1.10397142     -1075.1975098715  1.77E+00
   115 Broy./Diag. 0.40E+00   23.0     1.09564102     -1076.9458802710 -1.75E+00
   116 Broy./Diag. 0.40E+00   22.7     0.17521313     -1075.1153390548  1.83E+00
   117 Broy./Diag. 0.40E+00   23.3     1.23925085     -1075.7668105899 -6.51E-01
   118 Broy./Diag. 0.40E+00   23.6     1.26286806     -1077.3390266765 -1.57E+00
   119 Broy./Diag. 0.40E+00   23.7     1.25398275     -1077.3247440022  1.43E-02
   120 Broy./Diag. 0.40E+00   23.6     1.24444174     -1077.1504962823  1.74E-01
   121 Broy./Diag. 0.40E+00   24.1     0.84682200     -1075.0436388475  2.11E+00
   122 Broy./Diag. 0.40E+00   24.6     1.31495743     -1077.4665370100 -2.42E+00
   123 Broy./Diag. 0.40E+00   22.9     1.35390769     -1077.6392828993 -1.73E-01
   124 Broy./Diag. 0.40E+00   22.2     0.61713570     -1075.7443942237  1.89E+00
   125 Broy./Diag. 0.40E+00   24.1     0.87869028     -1076.2502792513 -5.06E-01
   126 Broy./Diag. 0.40E+00   25.2     1.05748999     -1077.1360171459 -8.86E-01
   127 Broy./Diag. 0.40E+00   22.7     1.24721451     -1075.5297865102  1.61E+00
   128 Broy./Diag. 0.40E+00   22.8     1.52206177     -1077.2098094568 -1.68E+00
   129 Broy./Diag. 0.40E+00   23.3     1.53098957     -1077.1359686211  7.38E-02
   130 Broy./Diag. 0.40E+00   23.9     1.30808562     -1077.0813633152  5.46E-02
   131 Broy./Diag. 0.40E+00   23.8     0.73740688     -1074.9833773100  2.10E+00
   132 Broy./Diag. 0.40E+00   24.1     0.73371823     -1077.5917372206 -2.61E+00
   133 Broy./Diag. 0.40E+00   22.4     1.06517772     -1075.3994277583  2.19E+00
   134 Broy./Diag. 0.40E+00   23.2     1.08280409     -1077.1568144917 -1.76E+00
   135 Broy./Diag. 0.40E+00   23.7     1.33688706     -1075.4482790545  1.71E+00
   136 Broy./Diag. 0.40E+00   23.6     1.33671374     -1077.5117108838 -2.06E+00
   137 Broy./Diag. 0.40E+00   22.5     1.04014788     -1077.3425810064  1.69E-01
   138 Broy./Diag. 0.40E+00   23.6     0.52860497     -1075.1872969933  2.16E+00
   139 Broy./Diag. 0.40E+00   24.5     0.81784465     -1075.9012761752 -7.14E-01
   140 Broy./Diag. 0.40E+00   22.5     0.83965005     -1077.3287250228 -1.43E+00
   141 Broy./Diag. 0.40E+00   23.4     1.24900345     -1075.5831197229  1.75E+00
   142 Broy./Diag. 0.40E+00   23.7     1.25833724     -1077.4893213170 -1.91E+00
   143 Broy./Diag. 0.40E+00   24.2     1.11764857     -1077.0637005974  4.26E-01
   144 Broy./Diag. 0.40E+00   22.8     1.15944414     -1076.9687430401  9.50E-02
   145 Broy./Diag. 0.40E+00   21.2     0.11687574     -1074.9605105143  2.01E+00
   146 Broy./Diag. 0.40E+00   22.5     1.70696390     -1075.5792349688 -6.19E-01
   147 Broy./Diag. 0.40E+00   23.4     1.18807282     -1078.7974064308 -3.22E+00
   148 Broy./Diag. 0.40E+00   24.1     1.39448362     -1077.2317084804  1.57E+00
   149 Broy./Diag. 0.40E+00   24.0     1.37511485     -1077.2849019880 -5.32E-02
   150 Broy./Diag. 0.40E+00   23.3     1.07426950     -1075.0969510414  2.19E+00
   151 Broy./Diag. 0.40E+00   22.4     1.25184667     -1077.2486784783 -2.15E+00
   152 Broy./Diag. 0.40E+00   22.8     1.69770146     -1077.3486124817 -9.99E-02
   153 Broy./Diag. 0.40E+00   24.1     1.70594366     -1077.0766629020  2.72E-01
   154 Broy./Diag. 0.40E+00   24.1     0.84761791     -1075.3621242519  1.71E+00
   155 Broy./Diag. 0.40E+00   23.5     0.85913193     -1077.1169277945 -1.75E+00
   156 Broy./Diag. 0.40E+00   22.8     1.17824959     -1074.9635718367  2.15E+00
   157 Broy./Diag. 0.40E+00   22.7     1.14835449     -1077.7824239483 -2.82E+00
   158 Broy./Diag. 0.40E+00   24.4     1.47006900     -1075.4037047584  2.38E+00
   159 Broy./Diag. 0.40E+00   24.9     1.22961335     -1077.3628904061 -1.96E+00
   160 Broy./Diag. 0.40E+00   24.2     1.37370712     -1077.2763959697  8.65E-02
   161 Broy./Diag. 0.40E+00   23.8     1.06314643     -1077.1959471276  8.04E-02
   162 Broy./Diag. 0.40E+00   23.5     1.13502157     -1075.0798765232  2.12E+00
   163 Broy./Diag. 0.40E+00   24.9     1.13439294     -1077.4915763731 -2.41E+00
   164 Broy./Diag. 0.40E+00   24.3     1.34536090     -1075.8875324723  1.60E+00
   165 Broy./Diag. 0.40E+00   24.3     1.34227446     -1077.3546081238 -1.47E+00
   166 Broy./Diag. 0.40E+00   23.8     1.23232864     -1077.1726137287  1.82E-01
   167 Broy./Diag. 0.40E+00   23.3     1.76296472     -1074.9767493902  2.20E+00
   168 Broy./Diag. 0.40E+00   24.0     1.76357362     -1078.8897652343 -3.91E+00
   169 Broy./Diag. 0.40E+00   22.6     1.42156256     -1077.3606214467  1.53E+00
   170 Broy./Diag. 0.40E+00   22.6     1.36035408     -1077.0539677836  3.07E-01
   171 Broy./Diag. 0.40E+00   20.9     0.84344865     -1075.5949381166  1.46E+00
   172 Broy./Diag. 0.40E+00   23.6     1.00126100     -1076.6819078160 -1.09E+00
   173 Broy./Diag. 0.40E+00   23.6     0.78697720     -1075.2344140486  1.45E+00
   174 Broy./Diag. 0.40E+00   22.9     1.33293761     -1077.1190859619 -1.88E+00
   175 Broy./Diag. 0.40E+00   24.4     1.35712542     -1077.4885618323 -3.69E-01
   176 Broy./Diag. 0.40E+00   24.1     0.83472045     -1076.0223929408  1.47E+00
   177 Broy./Diag. 0.40E+00   23.6     1.31565960     -1077.0473006183 -1.02E+00
   178 Broy./Diag. 0.40E+00   23.0     1.32619911     -1077.0215049291  2.58E-02
   179 Broy./Diag. 0.40E+00   23.9     1.06522696     -1075.1290588492  1.89E+00
   180 Broy./Diag. 0.40E+00   24.0     1.06511383     -1077.5296078504 -2.40E+00
   181 Broy./Diag. 0.40E+00   23.8     1.06593746     -1075.3743508781  2.16E+00
   182 Broy./Diag. 0.40E+00   23.7     1.41974342     -1077.2841357877 -1.91E+00
   183 Broy./Diag. 0.40E+00   22.8     1.25453790     -1077.3274064064 -4.33E-02
   184 Broy./Diag. 0.40E+00   21.7     0.43223542     -1075.7719758136  1.56E+00
   185 Broy./Diag. 0.40E+00   21.7     1.23220765     -1075.2933879314  4.79E-01
   186 Broy./Diag. 0.40E+00   22.1     1.25800364     -1077.3952746865 -2.10E+00
   187 Broy./Diag. 0.40E+00   24.0     1.76508024     -1075.3321833687  2.06E+00
   188 Broy./Diag. 0.40E+00   24.7     1.77170591     -1078.7923096355 -3.46E+00
   189 Broy./Diag. 0.40E+00   24.0     1.35310977     -1077.1260243288  1.67E+00
   190 Broy./Diag. 0.40E+00   25.1     1.40794999     -1076.8968834509  2.29E-01
   191 Broy./Diag. 0.40E+00   24.3     1.40005882     -1076.6261415651  2.71E-01
   192 Broy./Diag. 0.40E+00   23.8     1.33137437     -1075.2393935683  1.39E+00
   193 Broy./Diag. 0.40E+00   23.7     1.26869632     -1077.3559363864 -2.12E+00
   194 Broy./Diag. 0.40E+00   23.7     1.33594603     -1075.3656893319  1.99E+00
   195 Broy./Diag. 0.40E+00   23.8     1.33801355     -1077.6015555101 -2.24E+00
   196 Broy./Diag. 0.40E+00   25.3     1.62826834     -1077.5382524998  6.33E-02
   197 Broy./Diag. 0.40E+00   22.0     1.66042323     -1077.2314435359  3.07E-01
   198 Broy./Diag. 0.40E+00   22.7     0.10650039     -1074.6930318768  2.54E+00
   199 Broy./Diag. 0.40E+00   23.0     0.24283187     -1075.5685728933 -8.76E-01
   200 Broy./Diag. 0.40E+00   22.6     0.40751863     -1075.7489229641 -1.80E-01
   201 Broy./Diag. 0.40E+00   21.9     0.54916524     -1076.4036547115 -6.55E-01
   202 Broy./Diag. 0.40E+00   23.2     0.14968419     -1075.7738507389  6.30E-01
   203 Broy./Diag. 0.40E+00   24.1     1.73742415     -1075.6178779051  1.56E-01
   204 Broy./Diag. 0.40E+00   23.3     1.74668556     -1077.4891386513 -1.87E+00
   205 Broy./Diag. 0.40E+00   23.9     1.35562782     -1077.8704209578 -3.81E-01
   206 Broy./Diag. 0.40E+00   23.9     0.88795065     -1077.7254170562  1.45E-01
   207 Broy./Diag. 0.40E+00   24.2     0.68516053     -1075.4074592964  2.32E+00
   208 Broy./Diag. 0.40E+00   24.1     0.71453038     -1076.3560778774 -9.49E-01
   209 Broy./Diag. 0.40E+00   22.3     1.24636708     -1075.0049487791  1.35E+00
   210 Broy./Diag. 0.40E+00   23.6     1.25560766     -1077.6584044062 -2.65E+00
   211 Broy./Diag. 0.40E+00   23.8     0.85394222     -1077.4463932727  2.12E-01
   212 Broy./Diag. 0.40E+00   23.6     0.68674913     -1075.2890648989  2.16E+00
   213 Broy./Diag. 0.40E+00   23.6     0.67801946     -1076.4494059048 -1.16E+00
   214 Broy./Diag. 0.40E+00   24.1     1.33536418     -1075.1848212805  1.26E+00
   215 Broy./Diag. 0.40E+00   24.6     1.34762434     -1077.7476519367 -2.56E+00
   216 Broy./Diag. 0.40E+00   24.4     1.56338993     -1075.8757629723  1.87E+00
   217 Broy./Diag. 0.40E+00   24.7     1.67535670     -1076.9981952080 -1.12E+00
   218 Broy./Diag. 0.40E+00   23.4     1.14769191     -1076.9585378013  3.97E-02
   219 Broy./Diag. 0.40E+00   21.9     1.26468230     -1076.5579323169  4.01E-01
   220 Broy./Diag. 0.40E+00   24.0     1.29283480     -1077.1238039990 -5.66E-01
   221 Broy./Diag. 0.40E+00   24.5     1.76418655     -1075.0109380195  2.11E+00
   222 Broy./Diag. 0.40E+00   23.5     1.78163082     -1079.0942904757 -4.08E+00
   223 Broy./Diag. 0.40E+00   24.0     1.36822218     -1077.3728768521  1.72E+00
   224 Broy./Diag. 0.40E+00   23.3     1.12828052     -1076.8554454769  5.17E-01
   225 Broy./Diag. 0.40E+00   23.1     0.35760720     -1075.2575288607  1.60E+00
   226 Broy./Diag. 0.40E+00   22.1     1.50568712     -1075.7615987547 -5.04E-01
   227 Broy./Diag. 0.40E+00   22.6     1.49477012     -1076.8581947075 -1.10E+00
   228 Broy./Diag. 0.40E+00   24.0     1.17603047     -1074.9741849384  1.88E+00
   229 Broy./Diag. 0.40E+00   23.3     1.44720693     -1077.7366403292 -2.76E+00
   230 Broy./Diag. 0.40E+00   24.1     1.68489658     -1077.6309746257  1.06E-01
   231 Broy./Diag. 0.40E+00   24.9     1.22255326     -1077.2579593404  3.73E-01
   232 Broy./Diag. 0.40E+00   21.6     0.82044627     -1075.0749221030  2.18E+00
   233 Broy./Diag. 0.40E+00   22.8     1.32012942     -1077.4147465667 -2.34E+00
   234 Broy./Diag. 0.40E+00   21.8     1.34682178     -1077.5371178785 -1.22E-01
   235 Broy./Diag. 0.40E+00   21.4     1.25596694     -1077.1659677380  3.71E-01
   236 Broy./Diag. 0.40E+00   21.5     1.28670175     -1077.9030873815 -7.37E-01
   237 Broy./Diag. 0.40E+00   21.7     0.34624052     -1075.4710208000  2.43E+00
   238 Broy./Diag. 0.40E+00   23.7     0.17473854     -1074.3680548231  1.10E+00
   239 Broy./Diag. 0.40E+00   24.9     1.73868041     -1075.4698227604 -1.10E+00
   240 Broy./Diag. 0.40E+00   23.9     1.76909403     -1077.3259824350 -1.86E+00
   241 Broy./Diag. 0.40E+00   22.3     1.09988707     -1077.3771023099 -5.11E-02
   242 Broy./Diag. 0.40E+00   23.4     1.08871230     -1077.2883511373  8.88E-02
   243 Broy./Diag. 0.40E+00   23.7     1.32571021     -1075.1416849011  2.15E+00
   244 Broy./Diag. 0.40E+00   24.0     1.34381481     -1077.3790317520 -2.24E+00
   245 Broy./Diag. 0.40E+00   22.6     1.27156586     -1077.1819919529  1.97E-01
   246 Broy./Diag. 0.40E+00   23.4     1.30103018     -1077.4154649445 -2.33E-01
   247 Broy./Diag. 0.40E+00   23.4     0.11957619     -1075.0605644876  2.35E+00
   248 Broy./Diag. 0.40E+00   23.3     0.60562795     -1075.1959473223 -1.35E-01
   249 Broy./Diag. 0.40E+00   23.8     0.56849979     -1076.1691503681 -9.73E-01
   250 Broy./Diag. 0.40E+00   23.6     1.38322459     -1075.4119873819  7.57E-01
   251 Broy./Diag. 0.40E+00   24.3     1.43205117     -1077.2890091269 -1.88E+00
   252 Broy./Diag. 0.40E+00   24.5     1.22047781     -1077.5413435899 -2.52E-01
   253 Broy./Diag. 0.40E+00   23.7     0.74917926     -1076.9589718123  5.82E-01
   254 Broy./Diag. 0.40E+00   23.1     1.33019990     -1075.2684457589  1.69E+00
   255 Broy./Diag. 0.40E+00   24.9     1.34189385     -1077.4190330013 -2.15E+00
   256 Broy./Diag. 0.40E+00   24.1     0.80668335     -1075.3738183366  2.05E+00
   257 Broy./Diag. 0.40E+00   23.8     1.08828746     -1077.2289897274 -1.86E+00
   258 Broy./Diag. 0.40E+00   23.1     1.10812488     -1076.9539128723  2.75E-01
   259 Broy./Diag. 0.40E+00   24.5     1.62035196     -1075.0991208561  1.85E+00
   260 Broy./Diag. 0.40E+00   22.7     1.62150624     -1077.7238699625 -2.62E+00
   261 Broy./Diag. 0.40E+00   22.9     1.16346399     -1077.1401845612  5.84E-01
   262 Broy./Diag. 0.40E+00   22.9     1.14214123     -1077.1530723454 -1.29E-02
   263 Broy./Diag. 0.40E+00   23.7     1.59262480     -1075.0056011561  2.15E+00
   264 Broy./Diag. 0.40E+00   23.1     1.60223327     -1077.3961703211 -2.39E+00
   265 Broy./Diag. 0.40E+00   23.8     1.26869929     -1077.6027213110 -2.07E-01
   266 Broy./Diag. 0.40E+00   24.1     0.85437103     -1075.3747466037  2.23E+00
   267 Broy./Diag. 0.40E+00   24.6     1.27823304     -1076.8815660024 -1.51E+00
   268 Broy./Diag. 0.40E+00   24.1     1.30749027     -1077.3150034193 -4.33E-01
   269 Broy./Diag. 0.40E+00   22.0     1.32761482     -1075.0430497188  2.27E+00
   270 Broy./Diag. 0.40E+00   23.4     1.76636664     -1077.6457044576 -2.60E+00
   271 Broy./Diag. 0.40E+00   23.7     1.78577483     -1078.9733075666 -1.33E+00
   272 Broy./Diag. 0.40E+00   24.1     1.13838993     -1077.3011120762  1.67E+00
   273 Broy./Diag. 0.40E+00   24.6     0.95136534     -1076.9129670287  3.88E-01
   274 Broy./Diag. 0.40E+00   24.9     1.74306756     -1074.6576249920  2.26E+00
   275 Broy./Diag. 0.40E+00   23.5     1.75327458     -1077.4702620314 -2.81E+00
   276 Broy./Diag. 0.40E+00   24.3     1.30246037     -1077.3978576937  7.24E-02
   277 Broy./Diag. 0.40E+00   25.3     1.00630910     -1076.5280294852  8.70E-01
   278 Broy./Diag. 0.40E+00   21.9     0.18686615     -1075.4333214062  1.09E+00
   279 Broy./Diag. 0.40E+00   22.7     0.25389559     -1075.0952158846  3.38E-01
   280 Broy./Diag. 0.40E+00   23.9     0.37112806     -1075.8711802894 -7.76E-01
   281 Broy./Diag. 0.40E+00   23.7     1.31616813     -1076.0595216748 -1.88E-01
   282 Broy./Diag. 0.40E+00   24.1     1.33742010     -1077.3100347210 -1.25E+00
   283 Broy./Diag. 0.40E+00   24.9     1.41446052     -1077.2982894025  1.17E-02
   284 Broy./Diag. 0.40E+00   22.3     1.43814209     -1077.0465102435  2.52E-01
   285 Broy./Diag. 0.40E+00   21.8     1.25382575     -1075.0778748544  1.97E+00
   286 Broy./Diag. 0.40E+00   24.2     1.26619547     -1077.5244193375 -2.45E+00
   287 Broy./Diag. 0.40E+00   22.5     1.06350862     -1075.3046054926  2.22E+00
   288 Broy./Diag. 0.40E+00   22.8     1.08863291     -1077.2718776774 -1.97E+00
   289 Broy./Diag. 0.40E+00   23.9     1.05336013     -1075.2377549131  2.03E+00
   290 Broy./Diag. 0.40E+00   24.9     0.89142648     -1077.2819378285 -2.04E+00
   291 Broy./Diag. 0.40E+00   23.7     1.32501190     -1077.2607379061  2.12E-02
   292 Broy./Diag. 0.40E+00   23.2     1.35740877     -1077.3437753918 -8.30E-02
   293 Broy./Diag. 0.40E+00   24.0     1.73406968     -1075.3132815157  2.03E+00
   294 Broy./Diag. 0.40E+00   24.2     1.77356368     -1079.0134815011 -3.70E+00
   295 Broy./Diag. 0.40E+00   23.7     1.34634727     -1077.4318934704  1.58E+00
   296 Broy./Diag. 0.40E+00   24.2     1.70898714     -1077.1318143860  3.00E-01
   297 Broy./Diag. 0.40E+00   23.7     1.72865983     -1076.7600738018  3.72E-01
   298 Broy./Diag. 0.40E+00   22.6     0.15009376     -1075.2039279207  1.56E+00
   299 Broy./Diag. 0.40E+00   22.4     1.14900933     -1075.1673559391  3.66E-02
   300 Broy./Diag. 0.40E+00   23.9     1.05271237     -1077.2204958785 -2.05E+00

  Leaving inner SCF loop after reaching   300 steps.


  Electronic density on regular grids:       -511.9996676676        0.0003323324
  Core density on regular grids:              512.0000130954        0.0000130954
  Total charge density on r-space grids:        0.0003454278
  Total charge density g-space grids:           0.0003454278

  Overlap energy of the core charge distribution:               0.00000000000000
  Self energy of the core charge distribution:              -2838.21791979120962
  Core Hamiltonian energy:                                    758.45524176336517
  Hartree energy:                                            1241.10127064399262
  Exchange-correlation energy:                               -238.55908849469779

  Total energy:                                             -1077.22049587854940

 *** WARNING in qs_scf.F:542 :: SCF run NOT converged ***


 ENERGY| Total FORCE_EVAL ( QS ) energy (a.u.):            -1075.965800150524274


 ATOMIC FORCES in [a.u.]

 # Atom   Kind   Element          X              Y              Z
      1      1      O          -0.09211918     0.02318262     0.07890888
      2      2      H           0.06078404    -0.02873323    -0.07646200
      3      2      H           0.02340920     0.06153451     0.06176330
      4      1      O          -0.12123146     0.01910312    -0.13457083
      5      2      H           0.05237445    -0.07579133     0.02866857
      6      2      H           0.04187423     0.02796360    -0.00141618
      7      1      O          -0.09525380    -0.04295857    -0.08340777
      8      2      H           0.01147386     0.08709603     0.06911212
      9      2      H           0.07319359    -0.03557701     0.02596891
     10      1      O           0.03532898    -0.04270580    -0.10679772
     11      2      H           0.02744284    -0.06452774     0.04242977
     12      2      H          -0.05771203    -0.00900916    -0.01798363
     13      1      O           0.02762999    -0.02292373     0.09506662
     14      2      H           0.00714184     0.05463889    -0.05532705
     15      2      H          -0.01539668    -0.02869331    -0.07667372
     16      1      O          -0.07769329    -0.01968659     0.10456131
     17      2      H           0.05453257     0.00965706    -0.02255677
     18      2      H          -0.00776114    -0.01570799    -0.02981696
     19      1      O          -0.01852812     0.08948848     0.15833958
     20      2      H           0.03276623    -0.06053015    -0.00425676
     21      2      H           0.02954075     0.03821469    -0.11700662
     22      1      O           0.00186195    -0.11619212    -0.01179588
     23      2      H           0.05629400    -0.03158212     0.01972133
     24      2      H          -0.07163731     0.06594734    -0.01495289
     25      1      O          -0.05507646    -0.11580388     0.02109266
     26      2      H          -0.00645457     0.07147342     0.07960050
     27      2      H           0.06676234    -0.00671105    -0.02708941
     28      1      O           0.02825088     0.12466101    -0.00926948
     29      2      H          -0.07162764     0.00474229    -0.05217584
     30      2      H           0.04532055    -0.01814653    -0.05349360
     31      1      O          -0.09017820    -0.06184851     0.01926126
     32      2      H           0.02965973     0.03432314     0.08389896
     33      2      H           0.07426675     0.02941169    -0.08245452
     34      1      O          -0.02440862    -0.01779057     0.01588269
     35      2      H          -0.05022324     0.04173435    -0.06414689
     36      2      H           0.06593883     0.02833674    -0.08033598
     37      1      O           0.01911161    -0.07343572    -0.13574678
     38      2      H          -0.03941127    -0.01103869    -0.01570826
     39      2      H          -0.00977163    -0.05737916     0.10115180
     40      1      O           0.08623285    -0.06428149     0.00000642
     41      2      H          -0.04608051    -0.04386564    -0.08863845
     42      2      H          -0.02854894    -0.01909930     0.10594171
     43      1      O           0.02657359    -0.10203538     0.08280699
     44      2      H          -0.08293916     0.03114235     0.06686982
     45      2      H           0.07352794     0.07463447    -0.04221294
     46      1      O          -0.02272715     0.00739406     0.02312897
     47      2      H           0.01094654     0.00176988    -0.11078074
     48      2      H           0.03145340     0.04467929     0.07296699
     49      1      O          -0.08377444    -0.07088531     0.07315599
     50      2      H           0.05947786     0.00758346    -0.07919347
     51      2      H          -0.01338112     0.04733312     0.01482964
     52      1      O          -0.06427035     0.01907575     0.04686421
     53      2      H           0.07330064    -0.01349108    -0.05853327
     54      2      H           0.01452134     0.02141119     0.07936757
     55      1      O           0.01829401     0.04908071    -0.00997544
     56      2      H          -0.02570578    -0.06448070    -0.01068134
     57      2      H           0.03409504     0.02236291    -0.07895912
     58      1      O          -0.07016273     0.04203140    -0.00180760
     59      2      H          -0.02280685    -0.06818151    -0.04594551
     60      2      H           0.06377678     0.02972167    -0.06410551
     61      1      O          -0.06082164    -0.02650012    -0.08441734
     62      2      H           0.04241314     0.02720213    -0.04831366
     63      2      H          -0.02522199     0.00785457     0.04777802
     64      1      O          -0.07778485     0.02061108    -0.04594346
     65      2      H           0.05594892    -0.03616992     0.08779627
     66      2      H           0.02947371     0.03021773    -0.07014314
     67      1      O          -0.04948975    -0.02034879    -0.15416382
     68      2      H           0.05429679    -0.05890864    -0.01500114
     69      2      H          -0.02678898    -0.01737233     0.10268199
     70      1      O          -0.04104516    -0.00280716     0.04596835
     71      2      H          -0.04962531    -0.05923536    -0.00697391
     72      2      H           0.07833450     0.00145880     0.05601776
     73      1      O           0.00242345    -0.07416264    -0.10256439
     74      2      H          -0.06078202     0.02554520     0.02736973
     75      2      H           0.05034340    -0.03201526     0.02765538
     76      1      O          -0.03666310     0.03510720     0.12024242
     77      2      H           0.06680149     0.04794717     0.06111155
     78      2      H           0.01393438     0.01200559    -0.07727891
     79      1      O          -0.07955763    -0.04486328     0.10733729
     80      2      H           0.00531721     0.08584977    -0.01903345
     81      2      H           0.04177440    -0.05068029    -0.08187572
     82      1      O          -0.01275818    -0.00892977    -0.00033017
     83      2      H          -0.03255173    -0.02505246     0.06615818
     84      2      H           0.06890108     0.01056865     0.04157783
     85      1      O           0.03249156     0.11113789     0.00955033
     86      2      H          -0.06048522    -0.00698735    -0.03883305
     87      2      H           0.04218074    -0.03108487    -0.03257212
     88      1      O           0.01966471    -0.04779499     0.05149598
     89      2      H          -0.04681281    -0.03766844    -0.08006080
     90      2      H           0.05454834     0.02595663    -0.03681627
     91      1      O           0.09409288     0.02304966    -0.15494685
     92      2      H          -0.01891909    -0.05123091     0.05050955
     93      2      H          -0.07275435     0.04840120    -0.01752380
     94      1      O           0.09848708    -0.01059073    -0.06920765
     95      2      H          -0.05463139     0.01621951     0.08926388
     96      2      H          -0.02597683    -0.07486108    -0.02754955
     97      1      O           0.04968926    -0.06582716    -0.09785020
     98      2      H           0.03093602    -0.02682262     0.05072525
     99      2      H          -0.04826086     0.05915425    -0.05021394
    100      1      O           0.00719034    -0.11512123     0.07258950
    101      2      H          -0.01327552     0.04261729    -0.04882620
    102      2      H           0.02509700     0.03190291     0.10049457
    103      1      O           0.08001888     0.00287327    -0.12265695
    104      2      H          -0.08716877    -0.00870747     0.01180176
    105      2      H          -0.00274725     0.07819239     0.01424211
    106      1      O          -0.02963691     0.05180331    -0.11733288
    107      2      H           0.08378033     0.00591409    -0.03789126
    108      2      H          -0.02352559     0.02357629     0.11146794
    109      1      O           0.06548740     0.00459151    -0.15108508
    110      2      H           0.03050066     0.01049547     0.07373502
    111      2      H          -0.07209626    -0.01315967    -0.00771135
    112      1      O          -0.03073422    -0.07913686    -0.04571678
    113      2      H           0.00766872     0.00790192    -0.07737581
    114      2      H           0.06291196     0.00274094     0.04938904
    115      1      O          -0.04627285    -0.08428142    -0.05902899
    116      2      H           0.08717799     0.03995285     0.05546899
    117      2      H          -0.02968434     0.05310727     0.05296576
    118      1      O          -0.05147905    -0.08214440     0.13122056
    119      2      H           0.00118449     0.01364621    -0.03439468
    120      2      H           0.07732109    -0.02587152     0.00957683
    121      1      O          -0.01510475     0.05288299     0.02688818
    122      2      H          -0.05155509    -0.03882051     0.00145766
    123      2      H           0.03910294     0.00206173    -0.07226826
    124      1      O          -0.09608949     0.03644535     0.09006241
    125      2      H           0.02381447    -0.08051298     0.05568662
    126      2      H           0.05275686     0.00268524     0.03373593
    127      1      O          -0.04682362     0.06722527     0.09375818
    128      2      H          -0.03185438    -0.05614646     0.01224441
    129      2      H           0.09135192     0.02926880    -0.03529134
    130      1      O          -0.09005371     0.05004277     0.12373019
    131      2      H           0.03005950    -0.07376340    -0.00516353
    132      2      H           0.02455367     0.00948542    -0.02872616
    133      1      O          -0.09153406     0.08224361    -0.08220099
    134      2      H           0.03976861     0.01870826     0.03451369
    135      2      H           0.05269339    -0.07319263    -0.06447202
    136      1      O           0.02489596     0.08794008     0.04389121
    137      2      H           0.04487888    -0.00951023     0.08000039
    138      2      H          -0.06405764     0.01104611     0.01200746
    139      1      O          -0.01500826    -0.06253337     0.11559601
    140      2      H           0.00411496    -0.05137217    -0.06264004
    141      2      H          -0.02623571     0.09118853     0.02035313
    142      1      O          -0.09341773     0.07078721     0.05745854
    143      2      H           0.05047767     0.00519325    -0.01602306
    144      2      H           0.03462037    -0.01221054     0.03393917
    145      1      O          -0.06552219     0.08648551    -0.08069198
    146      2      H           0.06586486    -0.00778278    -0.04556978
    147      2      H          -0.00258642    -0.09417276     0.00850605
    148      1      O           0.03907246    -0.13039920     0.09080310
    149      2      H          -0.08011327    -0.02076319     0.05327651
    150      2      H           0.04336363     0.09349810    -0.05209160
    151      1      O          -0.05443849    -0.07415041    -0.06313334
    152      2      H           0.02397166    -0.04590784     0.02422844
    153      2      H           0.05532980     0.07325045    -0.04386564
    154      1      O          -0.10128561    -0.06508221    -0.08282394
    155      2      H           0.03993438    -0.05573540    -0.07218086
    156      2      H           0.04434540     0.05815955    -0.01423507
    157      1      O          -0.05271510    -0.04408373     0.06761752
    158      2      H           0.05814341    -0.07423950    -0.05938216
    159      2      H           0.02030160     0.03023063     0.09558650
    160      1      O           0.00167265     0.05063466    -0.08076761
    161      2      H           0.07105576     0.00734306    -0.06743030
    162      2      H          -0.04296622    -0.08086351     0.05250364
    163      1      O          -0.05096129    -0.07922242    -0.00293096
    164      2      H          -0.01196240    -0.01366619     0.11615792
    165      2      H           0.07949055    -0.01857346     0.01314323
    166      1      O          -0.04029429    -0.13701261    -0.03610284
    167      2      H          -0.04762692     0.05674462    -0.02026171
    168      2      H           0.03591642     0.03942083    -0.07555209
    169      1      O          -0.09895006     0.05151672    -0.15257700
    170      2      H           0.02146655    -0.04654597     0.07774951
    171      2      H           0.04449298     0.03607728    -0.01855727
    172      1      O          -0.04672412    -0.04245190    -0.08862988
    173      2      H          -0.00304858     0.08818035    -0.00663644
    174      2      H           0.05184663    -0.05099916    -0.07028145
    175      1      O           0.01193920    -0.03474310     0.14172978
    176      2      H           0.03085607     0.04045859    -0.04475544
    177      2      H          -0.06430087    -0.01788897    -0.09312496
    178      1      O          -0.04369857     0.01663428    -0.16314939
    179      2      H          -0.01059355    -0.01415582     0.05456843
    180      2      H           0.03592420     0.06872296     0.02127086
    181      1      O          -0.05888277     0.08670514     0.10238408
    182      2      H           0.06872681    -0.00412144     0.03277090
    183      2      H          -0.01133765    -0.09452199    -0.00370310
    184      1      O          -0.05406487    -0.09176676    -0.02914902
    185      2      H           0.03397907     0.07260983     0.02888029
    186      2      H           0.04914861     0.01538699    -0.02836399
    187      1      O          -0.10492633     0.10699652    -0.04285949
    188      2      H           0.07452209    -0.02354280     0.07053964
    189      2      H           0.01003237    -0.03747408    -0.10279612
    190      1      O           0.00107547    -0.10814642     0.05502596
    191      2      H          -0.00043599     0.08600782    -0.07221902
    192      2      H           0.02102247     0.02964421     0.10396433
 SUM OF ATOMIC FORCES           0.06253214    -0.60826131    -0.61493176     0.86719846

 -------------------------------------------------------------------------------
 -                                                                             -
 -                                DBCSR STATISTICS                             -
 -                                                                             -
 -------------------------------------------------------------------------------
 COUNTER                                    TOTAL       BLAS       SMM       ACC
 flops     5 x     5 x   256           3721804800       0.0%    100.0%      0.0%
 flops    13 x     5 x   256           4517793280       0.0%    100.0%      0.0%
 flops     5 x    13 x   256           4517793280       0.0%    100.0%      0.0%
 flops    13 x    13 x   256           6354962432       0.0%    100.0%      0.0%
 flops inhomo. stacks                           0       0.0%      0.0%      0.0%
 flops total                        19.112354E+09       0.0%    100.0%      0.0%
 flops max/rank                     19.112354E+09       0.0%    100.0%      0.0%
 matmuls inhomo. stacks                         0       0.0%      0.0%      0.0%
 matmuls total                             635712       0.0%    100.0%      0.0%
 number of processed stacks                 42140       0.0%    100.0%      0.0%
 average stack size                                     0.0      15.1       0.0
 marketing flops                   333.927416E+09
 -------------------------------------------------------------------------------
 # multiplications                            301
 max memory usage/rank              30.523724E+09
 # max total images/rank                        1
 # max 3D layers                                1
 # MPI messages exchanged                       0
 MPI messages size (bytes):
  total size                         0.000000E+00
  min size                           0.000000E+00
  max size                           0.000000E+00
  average size                       0.000000E+00
 MPI breakdown and total messages size (bytes):
             size <=      128                   0                        0
       128 < size <=     8192                   0                        0
      8192 < size <=    32768                   0                        0
     32768 < size <=   131072                   0                        0
    131072 < size <=  4194304                   0                        0
   4194304 < size <= 16777216                   0                        0
  16777216 < size                               0                        0
 -------------------------------------------------------------------------------

 MEMORY| Estimated peak process memory [MiB]                               29129

 -------------------------------------------------------------------------------
 -                                                                             -
 -                           R E F E R E N C E S                               -
 -                                                                             -
 -------------------------------------------------------------------------------
 
 CP2K version 7.1, the CP2K developers group (2019).
 CP2K is freely available from https://www.cp2k.org/ .

 Schuett, Ole; Messmer, Peter; Hutter, Juerg; VandeVondele, Joost. 
 Electronic Structure Calculations on Graphics Processing Units, John
 Wiley & Sons, Ltd, 173-190 (2016). 
 GPU-Accelerated Sparse Matrix-Matrix Multiplication for
 Linear Scaling Density Functional Theory.
 https://dx.doi.org/10.1002/9781118670712.ch8

 Borstnik, U; VandeVondele, J; Weber, V; Hutter, J. 
 PARALLEL COMPUTING, 40 (5-6), 47-58 (2014). 
 Sparse matrix multiplication: The distributed block-compressed sparse
 row library.
 https://dx.doi.org/10.1016/j.parco.2014.03.012

 Hutter, J; Iannuzzi, M; Schiffmann, F; VandeVondele, J. 
 WIREs Comput Mol Sci., 4 (1), 15-25 (2014). 
 CP2K: atomistic simulations of condensed matter systems.
 https://dx.doi.org/10.1002/wcms.1159

 Krack, M. 
 THEORETICAL CHEMISTRY ACCOUNTS, 114 (1-3), 145-152 (2005). 
 Pseudopotentials for H to Kr optimized for gradient-corrected
 exchange-correlation functionals.
 https://dx.doi.org/10.1007/s00214-005-0655-y

 VandeVondele, J; Krack, M; Mohamed, F; Parrinello, M; Chassaing, T;
 Hutter, J. COMPUTER PHYSICS COMMUNICATIONS, 167 (2), 103-128 (2005). 
 QUICKSTEP: Fast and accurate density functional calculations using a
 mixed Gaussian and plane waves approach.
 https://dx.doi.org/10.1016/j.cpc.2004.12.014

 Frigo, M; Johnson, SG. 
 PROCEEDINGS OF THE IEEE, 93 (2), 216-231 (2005). 
 The design and implementation of FFTW3.
 https://dx.doi.org/10.1109/JPROC.2004.840301

 Hartwigsen, C; Goedecker, S; Hutter, J. 
 PHYSICAL REVIEW B, 58 (7), 3641-3662 (1998). 
 Relativistic separable dual-space Gaussian pseudopotentials from H to Rn.
 https://dx.doi.org/10.1103/PhysRevB.58.3641

 Lippert, G; Hutter, J; Parrinello, M. 
 MOLECULAR PHYSICS, 92 (3), 477-487 (1997). 
 A hybrid Gaussian and plane wave density functional scheme.
 https://dx.doi.org/10.1080/002689797170220

 Goedecker, S; Teter, M; Hutter, J. 
 PHYSICAL REVIEW B, 54 (3), 1703-1710 (1996). 
 Separable dual-space Gaussian pseudopotentials.
 https://dx.doi.org/10.1103/PhysRevB.54.1703


 -------------------------------------------------------------------------------
 -                                                                             -
 -                                T I M I N G                                  -
 -                                                                             -
 -------------------------------------------------------------------------------
 SUBROUTINE                       CALLS  ASD         SELF TIME        TOTAL TIME
                                MAXIMUM       AVERAGE  MAXIMUM  AVERAGE  MAXIMUM
 CP2K                                 1  1.0    1.050    1.050 7041.582 7041.582
 qs_forces                            1  2.0    0.000    0.000 7030.545 7030.545
 qs_energies                          1  3.0    0.000    0.000 7027.296 7027.296
 scf_env_do_scf                       1  4.0    0.001    0.001 7015.757 7015.757
 scf_env_do_scf_inner_loop          300  5.0    0.049    0.049 7015.756 7015.756
 gspace_mixing                      299  6.0   42.160   42.160 2939.560 2939.560
 broyden_mixing                     299  7.0 2656.317 2656.317 2656.320 2656.320
 qs_scf_new_mos                     300  6.0    0.009    0.009 1952.974 1952.974
 eigensolver                        300  7.0    0.037    0.037 1922.329 1922.329
 cp_fm_syevd                        300  8.0 1285.914 1285.914 1286.978 1286.978
 pw_transfer                       3912  9.9    0.377    0.377 1127.483 1127.483
 fft_wrap_pw1pw2                   3310 10.9    0.052    0.052 1101.291 1101.291
 rebuild_ks_matrix                  301  7.0    0.001    0.001 1094.452 1094.452
 qs_ks_build_kohn_sham_matrix       301  8.0    0.086    0.086 1094.451 1094.451
 qs_ks_update_qs_env                300  6.0    0.004    0.004 1091.560 1091.560
 qs_rho_update_rho                  301  6.0    0.003    0.003 1033.866 1033.866
 calculate_rho_elec                 301  7.0  514.790  514.790 1033.863 1033.863
 fft_wrap_pw1pw2_70                1504 11.2   87.580   87.580 1012.524 1012.524
 cp_fm_cholesky_restore             900  8.0  634.226  634.226  634.226  634.226
 fft3d_s                           3311 12.9  520.330  520.330  520.357  520.357
 density_rs2pw                      301  8.0    0.033    0.033  511.749  511.749
 pw_scatter_s                      1804 13.2  409.605  409.605  409.605  409.605
 pw_poisson_solve                   301  9.0  335.066  335.066  361.230  361.230
 sum_up_and_integrate               301  9.0   18.434   18.434  286.960  286.960
 integrate_v_rspace                 301 10.0    7.767    7.767  268.525  268.525
 potential_pw2rs                    301 11.0    2.515    2.515  259.227  259.227
 qs_vxc_create                      301  9.0    0.008    0.008  159.979  159.979
 xc_vxc_pw_create                   301 10.0   42.283   42.283  159.972  159.972
 -------------------------------------------------------------------------------

 The number of warnings for this run is : 1
 
 -------------------------------------------------------------------------------
  **** **** ******  **  PROGRAM ENDED AT                 2020-05-30 09:04:50.443
 ***** ** ***  *** **   PROGRAM RAN ON                                   gnode44
 **    ****   ******    PROGRAM RAN BY                               mayank.modi
 ***** **    ** ** **   PROGRAM PROCESS ID                                  6228
  **** **  *******  **  PROGRAM STOPPED IN /home/mayank.modi/ab-initio-thermodyn
                                           amics-of-water/mayank/cp2k_energy_cal
                                           culations
