 DBCSR| CPU Multiplication driver                                           XSMM
 DBCSR| Multrec recursion limit                                              512
 DBCSR| Multiplication stack size                                           1000
 DBCSR| Maximum elements for images                                    UNLIMITED
 DBCSR| Multiplicative factor virtual images                                   1
 DBCSR| Use multiplication densification                                       T
 DBCSR| Multiplication size stacks                                             3


  **** **** ******  **  PROGRAM STARTED AT               2020-05-30 03:10:32.632
 ***** ** ***  *** **   PROGRAM STARTED ON                               gnode44
 **    ****   ******    PROGRAM STARTED BY                           mayank.modi
 ***** **    ** ** **   PROGRAM PROCESS ID                                  3540
  **** **  *******  **  PROGRAM STARTED IN /home/mayank.modi/ab-initio-thermodyn
                                           amics-of-water/mayank/cp2k_energy_cal
                                           culations

 CP2K| version string:                                          CP2K version 7.1
 CP2K| source code revision number:                                  git:e635599
 CP2K| cp2kflags: omp libint fftw3 libxc xsmm spglib                            
 CP2K| is freely available from                            https://www.cp2k.org/
 CP2K| Program compiled at                          Mon Dec 23 19:23:12 CET 2019
 CP2K| Program compiled on                                                pc9404
 CP2K| Program compiled for                                Linux-x86-64-gfortran
 CP2K| Data directory path                                        /opt/cp2k/data
 CP2K| Input file name                                 input_training/input42.in

 GLOBAL| Force Environment number                                              1
 GLOBAL| Basis set file name                                           BASIS_SET
 GLOBAL| Potential file name                                      GTH_POTENTIALS
 GLOBAL| MM Potential file name                                     MM_POTENTIAL
 GLOBAL| Coordinate file name                                      __STD_INPUT__
 GLOBAL| Method name                                                        CP2K
 GLOBAL| Project name                                                   H2O_bulk
 GLOBAL| Preferred FFT library                                             FFTW3
 GLOBAL| Preferred diagonalization lib.                                       SL
 GLOBAL| Run type                                                   ENERGY_FORCE
 GLOBAL| All-to-all communication in single precision                          F
 GLOBAL| FFTs using library dependent lengths                                  F
 GLOBAL| Global print level                                                  LOW
 GLOBAL| MPI I/O enabled                                                       T
 GLOBAL| Total number of message passing processes                             1
 GLOBAL| Number of threads for this process                                   36
 GLOBAL| This output is from process                                           0
 GLOBAL| CPU model name                Intel(R) Xeon(R) CPU E5-2640 v4 @ 2.40GHz
 GLOBAL| CPUID                                                              1002
 GLOBAL| Compiled for CPUID                                                    0

 MEMORY| system memory details [Kb]
 MEMORY|                        rank 0           min           max       average
 MEMORY| MemTotal            131893056     131893056     131893056     131893056
 MEMORY| MemFree             118772284     118772284     118772284     118772284
 MEMORY| Buffers               2128576       2128576       2128576       2128576
 MEMORY| Cached                3486248       3486248       3486248       3486248
 MEMORY| Slab                  3322812       3322812       3322812       3322812
 MEMORY| SReclaimable          3107208       3107208       3107208       3107208
 MEMORY| MemLikelyFree       127494316     127494316     127494316     127494316


 GENERATE|  Preliminary Number of Bonds generated:                             0
 GENERATE|  Achieved consistency in connectivity generation.

 *******************************************************************************
 *******************************************************************************
 **                                                                           **
 **     #####                         ##              ##                      **
 **    ##   ##            ##          ##              ##                      **
 **   ##     ##                       ##            ######                    **
 **   ##     ##  ##   ##  ##   #####  ##  ##   ####   ##    #####    #####    **
 **   ##     ##  ##   ##  ##  ##      ## ##   ##      ##   ##   ##  ##   ##   **
 **   ##  ## ##  ##   ##  ##  ##      ####     ###    ##   ######   ######    **
 **    ##  ###   ##   ##  ##  ##      ## ##      ##   ##   ##       ##        **
 **     #######   #####   ##   #####  ##  ##  ####    ##    #####   ##        **
 **           ##                                                    ##        **
 **                                                                           **
 **                                                ... make the atoms dance   **
 **                                                                           **
 **            Copyright (C) by CP2K developers group (2000 - 2019)           **
 **                                                                           **
 *******************************************************************************


 TOTAL NUMBERS AND MAXIMUM NUMBERS

  Total number of            - Atomic kinds:                                   2
                             - Atoms:                                        192
                             - Shell sets:                                   384
                             - Shells:                                       704
                             - Primitive Cartesian functions:                960
                             - Cartesian basis functions:                   1536
                             - Spherical basis functions:                   1472

  Maximum angular momentum of- Orbital basis functions:                        2
                             - Local part of the GTH pseudopotential:          2
                             - Non-local part of the GTH pseudopotential:      0


 SCF PARAMETERS         Density guess:                                    ATOMIC
                        --------------------------------------------------------
                        max_scf:                                             300
                        max_scf_history:                                       0
                        max_diis:                                              4
                        --------------------------------------------------------
                        eps_scf:                                        1.00E-07
                        eps_scf_history:                                0.00E+00
                        eps_diis:                                       1.00E-01
                        eps_eigval:                                     1.00E-05
                        --------------------------------------------------------
                        level_shift [a.u.]:                                 0.00
                        --------------------------------------------------------
                        Mixing method:                            BROYDEN_MIXING
                                                charge density mixing in g-space
                        --------------------------------------------------------
                        No outer SCF

 Number of electrons:                                                        512
 Number of occupied orbitals:                                                256
 Number of molecular orbitals:                                               256

 Number of orbital functions:                                               1472
 Number of independent orbital functions:                                   1472

 Extrapolation method: initial_guess


 SCF WAVEFUNCTION OPTIMIZATION

  Step     Update method      Time    Convergence         Total energy    Change
  ------------------------------------------------------------------------------
     1 NoMix/Diag. 0.40E+00    9.8     0.60632288     -1064.2144178972 -1.06E+03
     2 Broy./Diag. 0.40E+00   14.7     1.92320477      -997.7535116525  6.65E+01
     3 Broy./Diag. 0.40E+00   15.5     1.94550216     -1257.9359615684 -2.60E+02
     4 Broy./Diag. 0.40E+00   16.4     1.93781628     -1110.3216221405  1.48E+02
     5 Broy./Diag. 0.40E+00   18.1     2.03054576     -1099.8859060472  1.04E+01
     6 Broy./Diag. 0.40E+00   19.0     1.94352760     -1100.7839632437 -8.98E-01
     7 Broy./Diag. 0.40E+00   18.5     0.93746503     -1088.2108858392  1.26E+01
     8 Broy./Diag. 0.40E+00   20.4     0.45798544     -1081.9220693076  6.29E+00
     9 Broy./Diag. 0.40E+00   20.5     0.90052092     -1078.2640877040  3.66E+00
    10 Broy./Diag. 0.40E+00   23.2     1.48838912     -1078.6399283617 -3.76E-01
    11 Broy./Diag. 0.40E+00   23.9     1.62291814     -1078.1756067696  4.64E-01
    12 Broy./Diag. 0.40E+00   24.8     0.90099530     -1076.0147149243  2.16E+00
    13 Broy./Diag. 0.40E+00   24.4     1.14074522     -1078.0877190885 -2.07E+00
    14 Broy./Diag. 0.40E+00   24.0     0.65711820     -1077.8433316224  2.44E-01
    15 Broy./Diag. 0.40E+00   24.2     0.76371240     -1075.6703985202  2.17E+00
    16 Broy./Diag. 0.40E+00   24.7     0.78889068     -1078.1916057402 -2.52E+00
    17 Broy./Diag. 0.40E+00   24.3     0.12419636     -1075.6853087622  2.51E+00
    18 Broy./Diag. 0.40E+00   24.2     0.47261882     -1075.1203398820  5.65E-01
    19 Broy./Diag. 0.40E+00   24.3     0.26094343     -1076.1428387011 -1.02E+00
    20 Broy./Diag. 0.40E+00   24.4     1.76450216     -1075.9394639466  2.03E-01
    21 Broy./Diag. 0.40E+00   24.3     1.77072524     -1077.0920502231 -1.15E+00
    22 Broy./Diag. 0.40E+00   24.6     1.77083282     -1076.0242304697  1.07E+00
    23 Broy./Diag. 0.40E+00   24.5     1.77072729     -1077.3756931296 -1.35E+00
    24 Broy./Diag. 0.40E+00   24.0     0.23649833     -1075.5252261511  1.85E+00
    25 Broy./Diag. 0.40E+00   24.6     1.25055913     -1076.4443966382 -9.19E-01
    26 Broy./Diag. 0.40E+00   24.3     1.69990235     -1079.0213109172 -2.58E+00
    27 Broy./Diag. 0.40E+00   24.7     1.77817023     -1077.3523906990  1.67E+00
    28 Broy./Diag. 0.40E+00   24.3     1.77060545     -1077.1625837916  1.90E-01
    29 Broy./Diag. 0.40E+00   24.1     1.01814853     -1075.8088886826  1.35E+00
    30 Broy./Diag. 0.40E+00   24.4     1.01427649     -1077.1986580796 -1.39E+00
    31 Broy./Diag. 0.40E+00   24.6     1.76956553     -1075.4053167796  1.79E+00
    32 Broy./Diag. 0.40E+00   24.5     1.77366243     -1077.7770765407 -2.37E+00
    33 Broy./Diag. 0.40E+00   24.6     0.88546186     -1076.8241589229  9.53E-01
    34 Broy./Diag. 0.40E+00   24.3     0.36039168     -1075.9130503801  9.11E-01
    35 Broy./Diag. 0.40E+00   24.2     0.44696778     -1075.5211686487  3.92E-01
    36 Broy./Diag. 0.40E+00   24.5     0.21436358     -1076.3323586428 -8.11E-01
    37 Broy./Diag. 0.40E+00   24.4     0.69889381     -1075.9350839202  3.97E-01
    38 Broy./Diag. 0.40E+00   24.3     0.68850779     -1077.1318739085 -1.20E+00
    39 Broy./Diag. 0.40E+00   24.4     0.17363235     -1076.0911126886  1.04E+00
    40 Broy./Diag. 0.40E+00   24.4     0.12603444     -1075.9400589204  1.51E-01
    41 Broy./Diag. 0.40E+00   24.5     1.77257045     -1076.0829188343 -1.43E-01
    42 Broy./Diag. 0.40E+00   24.5     1.77768959     -1077.5736123427 -1.49E+00
    43 Broy./Diag. 0.40E+00   24.6     0.18851749     -1076.0398555477  1.53E+00
    44 Broy./Diag. 0.40E+00   24.8     0.23609080     -1076.1226921072 -8.28E-02
    45 Broy./Diag. 0.40E+00   24.5     0.97601802     -1075.9052779158  2.17E-01
    46 Broy./Diag. 0.40E+00   24.6     1.47732632     -1077.7012890911 -1.80E+00
    47 Broy./Diag. 0.40E+00   24.5     1.52101653     -1077.4682594697  2.33E-01
    48 Broy./Diag. 0.40E+00   24.3     1.78127933     -1077.2202078960  2.48E-01
    49 Broy./Diag. 0.40E+00   24.6     1.77921581     -1077.0263404076  1.94E-01
    50 Broy./Diag. 0.40E+00   24.7     0.92093524     -1077.7016396027 -6.75E-01
    51 Broy./Diag. 0.40E+00   24.4     0.88692108     -1077.3944660815  3.07E-01
    52 Broy./Diag. 0.40E+00   24.5     0.09050558     -1074.7048791145  2.69E+00
    53 Broy./Diag. 0.40E+00   24.5     1.54070167     -1076.1184368161 -1.41E+00
    54 Broy./Diag. 0.40E+00   25.0     1.56881665     -1078.4373172786 -2.32E+00
    55 Broy./Diag. 0.40E+00   24.5     1.17049958     -1075.4607549602  2.98E+00
    56 Broy./Diag. 0.40E+00   23.3     0.94709172     -1076.9880721969 -1.53E+00
    57 Broy./Diag. 0.40E+00   24.0     0.30845517     -1075.9155453040  1.07E+00
    58 Broy./Diag. 0.40E+00   24.6     1.77018411     -1076.7212487482 -8.06E-01
    59 Broy./Diag. 0.40E+00   24.4     1.78902574     -1077.5117383831 -7.90E-01
    60 Broy./Diag. 0.40E+00   24.8     1.03744041     -1077.9524429862 -4.41E-01
    61 Broy./Diag. 0.40E+00   24.4     0.40051717     -1075.7487782092  2.20E+00
    62 Broy./Diag. 0.40E+00   24.4     0.14778066     -1075.6508472729  9.79E-02
    63 Broy./Diag. 0.40E+00   24.5     0.27525340     -1075.9619524574 -3.11E-01
    64 Broy./Diag. 0.40E+00   25.1     0.32245067     -1076.3315481295 -3.70E-01
    65 Broy./Diag. 0.40E+00   24.0     0.83682104     -1075.8974076527  4.34E-01
    66 Broy./Diag. 0.40E+00   24.7     0.84182517     -1077.4128227833 -1.52E+00
    67 Broy./Diag. 0.40E+00   24.8     1.01319310     -1075.7105485704  1.70E+00
    68 Broy./Diag. 0.40E+00   24.4     1.77594456     -1078.0100374517 -2.30E+00
    69 Broy./Diag. 0.40E+00   24.6     1.80319589     -1077.5851828062  4.25E-01
    70 Broy./Diag. 0.40E+00   24.2     1.52833488     -1077.2262160144  3.59E-01
    71 Broy./Diag. 0.40E+00   24.3     0.80650802     -1077.1720705234  5.41E-02
    72 Broy./Diag. 0.40E+00   24.2     0.88158239     -1075.6721771629  1.50E+00
    73 Broy./Diag. 0.40E+00   24.1     0.93106372     -1076.9531635251 -1.28E+00
    74 Broy./Diag. 0.40E+00   24.6     0.22559348     -1075.7215331050  1.23E+00
    75 Broy./Diag. 0.40E+00   22.9     0.13907980     -1075.7782475538 -5.67E-02
    76 Broy./Diag. 0.40E+00   24.7     0.16422676     -1076.2233002617 -4.45E-01
    77 Broy./Diag. 0.40E+00   24.7     1.02164483     -1076.2748673380 -5.16E-02
    78 Broy./Diag. 0.40E+00   25.0     1.01964398     -1077.4000578599 -1.13E+00
    79 Broy./Diag. 0.40E+00   24.5     0.23267066     -1075.5535958630  1.85E+00
    80 Broy./Diag. 0.40E+00   23.6     1.77546203     -1076.3922796029 -8.39E-01
    81 Broy./Diag. 0.40E+00   24.4     1.77888401     -1077.2318025663 -8.40E-01
    82 Broy./Diag. 0.40E+00   24.1     0.18069118     -1075.8614335447  1.37E+00
    83 Broy./Diag. 0.40E+00   24.3     0.96948683     -1076.4008146635 -5.39E-01
    84 Broy./Diag. 0.40E+00   24.3     0.98096719     -1077.4753570913 -1.07E+00
    85 Broy./Diag. 0.40E+00   24.9     0.58776212     -1075.9216055572  1.55E+00
    86 Broy./Diag. 0.40E+00   24.0     0.91530474     -1077.1484575547 -1.23E+00
    87 Broy./Diag. 0.40E+00   22.6     0.40940606     -1076.5429216512  6.06E-01
    88 Broy./Diag. 0.40E+00   22.6     0.60003210     -1075.5746705959  9.68E-01
    89 Broy./Diag. 0.40E+00   24.2     0.43879683     -1076.6486243593 -1.07E+00
    90 Broy./Diag. 0.40E+00   23.7     1.77883384     -1075.6128758308  1.04E+00
    91 Broy./Diag. 0.40E+00   24.1     1.78424966     -1077.5400816908 -1.93E+00
    92 Broy./Diag. 0.40E+00   25.3     0.75925982     -1076.1861323723  1.35E+00
    93 Broy./Diag. 0.40E+00   24.9     0.76453660     -1077.0453506473 -8.59E-01
    94 Broy./Diag. 0.40E+00   24.7     0.04254529     -1075.5379707574  1.51E+00
    95 Broy./Diag. 0.40E+00   24.1     0.96174161     -1076.2988355306 -7.61E-01
    96 Broy./Diag. 0.40E+00   24.6     1.47734175     -1077.4713872326 -1.17E+00
    97 Broy./Diag. 0.40E+00   24.8     1.51178957     -1077.2166885942  2.55E-01
    98 Broy./Diag. 0.40E+00   24.7     0.53725260     -1075.9910052895  1.23E+00
    99 Broy./Diag. 0.40E+00   24.7     1.45303385     -1075.4481284454  5.43E-01
   100 Broy./Diag. 0.40E+00   24.5     1.45077941     -1078.6025054797 -3.15E+00
   101 Broy./Diag. 0.40E+00   24.7     1.76266190     -1075.3104558021  3.29E+00
   102 Broy./Diag. 0.40E+00   24.6     1.79096994     -1077.3795422785 -2.07E+00
   103 Broy./Diag. 0.40E+00   24.9     1.04868210     -1077.1217045316  2.58E-01
   104 Broy./Diag. 0.40E+00   24.7     0.45883065     -1075.7810491414  1.34E+00
   105 Broy./Diag. 0.40E+00   24.7     0.10673395     -1075.7489513684  3.21E-02
   106 Broy./Diag. 0.40E+00   24.8     0.07914600     -1076.0977562414 -3.49E-01
   107 Broy./Diag. 0.40E+00   24.8     0.11620837     -1075.9763295087  1.21E-01
   108 Broy./Diag. 0.40E+00   24.2     0.09157916     -1076.0058620733 -2.95E-02
   109 Broy./Diag. 0.40E+00   22.8     0.95878541     -1076.0057071521  1.55E-04
   110 Broy./Diag. 0.40E+00   22.3     0.21500713     -1077.4842677105 -1.48E+00
   111 Broy./Diag. 0.40E+00   24.1     1.77924204     -1077.3536006877  1.31E-01
   112 Broy./Diag. 0.40E+00   23.3     1.78722575     -1077.4497831759 -9.62E-02
   113 Broy./Diag. 0.40E+00   23.8     1.01889043     -1075.8738943964  1.58E+00
   114 Broy./Diag. 0.40E+00   24.0     1.46782907     -1078.2923073301 -2.42E+00
   115 Broy./Diag. 0.40E+00   24.4     1.51390583     -1077.4711458634  8.21E-01
   116 Broy./Diag. 0.40E+00   24.3     0.99208617     -1077.2381619940  2.33E-01
   117 Broy./Diag. 0.40E+00   23.2     1.45589621     -1075.8526557840  1.39E+00
   118 Broy./Diag. 0.40E+00   24.3     1.06118249     -1078.6957754044 -2.84E+00
   119 Broy./Diag. 0.40E+00   24.0     0.75114593     -1076.0643435048  2.63E+00
   120 Broy./Diag. 0.40E+00   24.2     0.12656037     -1075.6011741666  4.63E-01
   121 Broy./Diag. 0.40E+00   24.3     1.78162741     -1075.5602927706  4.09E-02
   122 Broy./Diag. 0.40E+00   24.0     1.78779055     -1077.5369220641 -1.98E+00
   123 Broy./Diag. 0.40E+00   24.2     0.37007409     -1075.9084250953  1.63E+00
   124 Broy./Diag. 0.40E+00   24.1     0.66597779     -1076.4444790901 -5.36E-01
   125 Broy./Diag. 0.40E+00   23.1     0.37313174     -1076.4986552876 -5.42E-02
   126 Broy./Diag. 0.40E+00   23.7     0.40644456     -1075.6582977190  8.40E-01
   127 Broy./Diag. 0.40E+00   23.8     0.95115226     -1076.3294625311 -6.71E-01
   128 Broy./Diag. 0.40E+00   23.8     0.98353939     -1077.3720174551 -1.04E+00
   129 Broy./Diag. 0.40E+00   24.5     0.95737381     -1075.8721441267  1.50E+00
   130 Broy./Diag. 0.40E+00   24.6     0.84017087     -1077.5352344877 -1.66E+00
   131 Broy./Diag. 0.40E+00   25.3     1.48083186     -1076.1737124085  1.36E+00
   132 Broy./Diag. 0.40E+00   24.6     1.76397457     -1077.5994524636 -1.43E+00
   133 Broy./Diag. 0.40E+00   24.7     1.79751458     -1077.4268325022  1.73E-01
   134 Broy./Diag. 0.40E+00   24.3     0.83114416     -1077.0464911950  3.80E-01
   135 Broy./Diag. 0.40E+00   24.5     0.54213846     -1076.7673398826  2.79E-01
   136 Broy./Diag. 0.40E+00   24.6     0.39936459     -1075.3671416488  1.40E+00
   137 Broy./Diag. 0.40E+00   24.5     0.98142833     -1075.8162756600 -4.49E-01
   138 Broy./Diag. 0.40E+00   24.9     0.98969792     -1077.8533691603 -2.04E+00
   139 Broy./Diag. 0.40E+00   25.2     0.22917267     -1075.9342880113  1.92E+00
   140 Broy./Diag. 0.40E+00   24.8     0.98581048     -1075.4382875855  4.96E-01
   141 Broy./Diag. 0.40E+00   24.6     0.98508507     -1077.4322933032 -1.99E+00
   142 Broy./Diag. 0.40E+00   24.1     0.74286189     -1076.4798102826  9.52E-01
   143 Broy./Diag. 0.40E+00   24.0     0.23720232     -1075.7811932930  6.99E-01
   144 Broy./Diag. 0.40E+00   23.8     1.77076050     -1075.8060663226 -2.49E-02
   145 Broy./Diag. 0.40E+00   24.8     1.78015390     -1077.4634121502 -1.66E+00
   146 Broy./Diag. 0.40E+00   24.5     0.57358598     -1076.2356463058  1.23E+00
   147 Broy./Diag. 0.40E+00   24.6     0.17126039     -1075.3130395996  9.23E-01
   148 Broy./Diag. 0.40E+00   24.6     0.37556789     -1075.6648970566 -3.52E-01
   149 Broy./Diag. 0.40E+00   24.8     0.37684734     -1076.2297970465 -5.65E-01
   150 Broy./Diag. 0.40E+00   24.8     1.47713848     -1076.8803993966 -6.51E-01
   151 Broy./Diag. 0.40E+00   24.7     1.49089839     -1077.5071236829 -6.27E-01
   152 Broy./Diag. 0.40E+00   24.6     0.06922022     -1075.9630541189  1.54E+00
   153 Broy./Diag. 0.40E+00   24.6     0.93084793     -1075.9456424128  1.74E-02
   154 Broy./Diag. 0.40E+00   24.5     1.77399596     -1077.5567390836 -1.61E+00
   155 Broy./Diag. 0.40E+00   24.3     1.79663508     -1077.4304039057  1.26E-01
   156 Broy./Diag. 0.40E+00   24.4     1.03197329     -1075.6990147880  1.73E+00
   157 Broy./Diag. 0.40E+00   22.8     1.57539686     -1077.4454303838 -1.75E+00
   158 Broy./Diag. 0.40E+00   24.1     1.58505267     -1078.7678825902 -1.32E+00
   159 Broy./Diag. 0.40E+00   24.1     0.66091144     -1075.3760864637  3.39E+00
   160 Broy./Diag. 0.40E+00   23.9     0.62577045     -1077.2302004282 -1.85E+00
   161 Broy./Diag. 0.40E+00   24.1     0.15206790     -1075.8785102338  1.35E+00
   162 Broy./Diag. 0.40E+00   24.5     0.10197072     -1075.7188809158  1.60E-01
   163 Broy./Diag. 0.40E+00   25.3     0.09020797     -1076.1257547358 -4.07E-01
   164 Broy./Diag. 0.40E+00   23.4     1.78215548     -1075.9750641448  1.51E-01
   165 Broy./Diag. 0.40E+00   24.9     1.78856105     -1077.5513335102 -1.58E+00
   166 Broy./Diag. 0.40E+00   25.7     0.89187372     -1076.8085127690  7.43E-01
   167 Broy./Diag. 0.40E+00   24.4     0.87177371     -1077.1403834757 -3.32E-01
   168 Broy./Diag. 0.40E+00   24.2     0.98522627     -1075.7102221677  1.43E+00
   169 Broy./Diag. 0.40E+00   25.5     0.97771058     -1077.5616067471 -1.85E+00
   170 Broy./Diag. 0.40E+00   24.7     1.48004018     -1075.9320322662  1.63E+00
   171 Broy./Diag. 0.40E+00   24.8     1.48987293     -1077.2364788529 -1.30E+00
   172 Broy./Diag. 0.40E+00   24.8     1.02837365     -1077.2304587376  6.02E-03
   173 Broy./Diag. 0.40E+00   24.6     1.00631823     -1077.2379937059 -7.53E-03
   174 Broy./Diag. 0.40E+00   24.6     1.78829114     -1075.6679816826  1.57E+00
   175 Broy./Diag. 0.40E+00   24.5     1.78752267     -1077.3182751774 -1.65E+00
   176 Broy./Diag. 0.40E+00   24.7     0.83568156     -1075.5549354594  1.76E+00
   177 Broy./Diag. 0.40E+00   23.8     0.83388586     -1077.6523721943 -2.10E+00
   178 Broy./Diag. 0.40E+00   23.3     0.38950037     -1076.0743751666  1.58E+00
   179 Broy./Diag. 0.40E+00   25.2     0.91907108     -1075.9789476667  9.54E-02
   180 Broy./Diag. 0.40E+00   24.2     0.97579165     -1077.6308273227 -1.65E+00
   181 Broy./Diag. 0.40E+00   24.8     0.96906706     -1075.9643203033  1.67E+00
   182 Broy./Diag. 0.40E+00   24.0     1.02338320     -1077.0854919800 -1.12E+00
   183 Broy./Diag. 0.40E+00   23.2     1.48429694     -1075.6113021280  1.47E+00
   184 Broy./Diag. 0.40E+00   22.2     1.78125714     -1077.6311699498 -2.02E+00
   185 Broy./Diag. 0.40E+00   24.4     1.79903535     -1077.6860148592 -5.48E-02
   186 Broy./Diag. 0.40E+00   23.9     1.07553712     -1077.4498622106  2.36E-01
   187 Broy./Diag. 0.40E+00   23.8     1.06420400     -1077.1690129498  2.81E-01
   188 Broy./Diag. 0.40E+00   23.6     1.33509348     -1075.1633156413  2.01E+00
   189 Broy./Diag. 0.40E+00   23.3     1.31431632     -1077.1919702764 -2.03E+00
   190 Broy./Diag. 0.40E+00   21.2     0.14575316     -1075.7735252227  1.42E+00
   191 Broy./Diag. 0.40E+00   23.5     0.99610406     -1075.4099225610  3.64E-01
   192 Broy./Diag. 0.40E+00   24.5     0.97598840     -1077.5524901838 -2.14E+00
   193 Broy./Diag. 0.40E+00   24.4     1.48473046     -1075.9501295790  1.60E+00
   194 Broy./Diag. 0.40E+00   24.9     1.78264602     -1077.4659735326 -1.52E+00
   195 Broy./Diag. 0.40E+00   24.9     1.80388292     -1077.4997031092 -3.37E-02
   196 Broy./Diag. 0.40E+00   24.5     0.97384689     -1077.1884162717  3.11E-01
   197 Broy./Diag. 0.40E+00   23.4     0.93717697     -1075.6072819885  1.58E+00
   198 Broy./Diag. 0.40E+00   23.7     0.90474278     -1077.2400041350 -1.63E+00
   199 Broy./Diag. 0.40E+00   23.3     1.09546393     -1077.0144001420  2.26E-01
   200 Broy./Diag. 0.40E+00   25.4     0.25178653     -1075.3565409104  1.66E+00
   201 Broy./Diag. 0.40E+00   24.5     0.98800791     -1075.9424367925 -5.86E-01
   202 Broy./Diag. 0.40E+00   24.2     0.99369273     -1077.6723184743 -1.73E+00
   203 Broy./Diag. 0.40E+00   23.9     0.98403313     -1075.9334259730  1.74E+00
   204 Broy./Diag. 0.40E+00   24.2     0.99438129     -1077.5027489766 -1.57E+00
   205 Broy./Diag. 0.40E+00   24.4     1.49710922     -1075.7954152585  1.71E+00
   206 Broy./Diag. 0.40E+00   22.9     1.49594497     -1077.3936590723 -1.60E+00
   207 Broy./Diag. 0.40E+00   24.3     1.77683883     -1076.1342343640  1.26E+00
   208 Broy./Diag. 0.40E+00   24.1     1.78275517     -1077.5539869429 -1.42E+00
   209 Broy./Diag. 0.40E+00   23.3     0.67718969     -1075.6441786465  1.91E+00
   210 Broy./Diag. 0.40E+00   23.8     0.89994148     -1077.0470234622 -1.40E+00
   211 Broy./Diag. 0.40E+00   22.9     0.80699886     -1076.4776634679  5.69E-01
   212 Broy./Diag. 0.40E+00   22.6     0.22243469     -1075.5042412313  9.73E-01
   213 Broy./Diag. 0.40E+00   24.5     0.99507589     -1075.9494407575 -4.45E-01
   214 Broy./Diag. 0.40E+00   22.4     1.01199402     -1077.9255468495 -1.98E+00
   215 Broy./Diag. 0.40E+00   23.7     1.49725903     -1075.7762651458  2.15E+00
   216 Broy./Diag. 0.40E+00   23.5     1.50502140     -1077.4337690717 -1.66E+00
   217 Broy./Diag. 0.40E+00   23.8     1.77712790     -1077.3052244208  1.29E-01
   218 Broy./Diag. 0.40E+00   24.6     1.79731249     -1077.3829813431 -7.78E-02
   219 Broy./Diag. 0.40E+00   24.5     0.89863808     -1076.2429037568  1.14E+00
   220 Broy./Diag. 0.40E+00   23.3     0.28510116     -1075.5408884394  7.02E-01
   221 Broy./Diag. 0.40E+00   23.9     0.15451667     -1076.1117919976 -5.71E-01
   222 Broy./Diag. 0.40E+00   24.2     0.35583295     -1075.6886221950  4.23E-01
   223 Broy./Diag. 0.40E+00   24.4     0.09140300     -1076.1109064190 -4.22E-01
   224 Broy./Diag. 0.40E+00   24.7     0.77647234     -1076.2031740623 -9.23E-02
   225 Broy./Diag. 0.40E+00   24.8     0.84578668     -1077.4625051076 -1.26E+00
   226 Broy./Diag. 0.40E+00   24.5     1.01676884     -1075.6666087606  1.80E+00
   227 Broy./Diag. 0.40E+00   24.8     1.77919994     -1077.7841181436 -2.12E+00
   228 Broy./Diag. 0.40E+00   24.3     1.80577688     -1077.5827887726  2.01E-01
   229 Broy./Diag. 0.40E+00   24.7     0.46707997     -1076.1631401977  1.42E+00
   230 Broy./Diag. 0.40E+00   24.9     0.37234000     -1076.5528839168 -3.90E-01
   231 Broy./Diag. 0.40E+00   24.2     0.12382021     -1075.6693846614  8.83E-01
   232 Broy./Diag. 0.40E+00   24.4     0.07949576     -1075.9846647294 -3.15E-01
   233 Broy./Diag. 0.40E+00   24.5     0.10532231     -1076.0362431608 -5.16E-02
   234 Broy./Diag. 0.40E+00   23.2     0.98734237     -1075.9075414846  1.29E-01
   235 Broy./Diag. 0.40E+00   24.6     1.00352771     -1077.3348772112 -1.43E+00
   236 Broy./Diag. 0.40E+00   24.4     0.83380798     -1076.0081822681  1.33E+00
   237 Broy./Diag. 0.40E+00   24.5     1.48480746     -1077.0132507038 -1.01E+00
   238 Broy./Diag. 0.40E+00   25.4     1.49711992     -1077.5025283709 -4.89E-01
   239 Broy./Diag. 0.40E+00   24.4     0.12587864     -1075.9752048609  1.53E+00
   240 Broy./Diag. 0.40E+00   24.9     0.46393006     -1075.9105364967  6.47E-02
   241 Broy./Diag. 0.40E+00   24.6     1.76289570     -1076.9821408249 -1.07E+00
   242 Broy./Diag. 0.40E+00   24.0     1.78081121     -1077.3405950154 -3.58E-01
   243 Broy./Diag. 0.40E+00   24.4     1.27402669     -1078.3255797573 -9.85E-01
   244 Broy./Diag. 0.40E+00   25.1     1.08508728     -1075.4472918908  2.88E+00
   245 Broy./Diag. 0.40E+00   22.5     1.26243182     -1077.5833777903 -2.14E+00
   246 Broy./Diag. 0.40E+00   23.9     1.23439734     -1077.0454582590  5.38E-01
   247 Broy./Diag. 0.40E+00   25.0     0.31772591     -1075.5271087632  1.52E+00
   248 Broy./Diag. 0.40E+00   22.7     0.05203231     -1075.8673014852 -3.40E-01
   249 Broy./Diag. 0.40E+00   25.7     0.04392949     -1075.9565811391 -8.93E-02
   250 Broy./Diag. 0.40E+00   24.7     1.48178175     -1075.9440062277  1.26E-02
   251 Broy./Diag. 0.40E+00   24.5     1.77620152     -1077.4122321081 -1.47E+00
   252 Broy./Diag. 0.40E+00   23.2     1.79029364     -1077.3881464507  2.41E-02
   253 Broy./Diag. 0.40E+00   23.7     0.73661817     -1077.2258286086  1.62E-01
   254 Broy./Diag. 0.40E+00   24.2     0.52782543     -1076.2398866906  9.86E-01
   255 Broy./Diag. 0.40E+00   23.5     0.26290448     -1075.7962289637  4.44E-01
   256 Broy./Diag. 0.40E+00   23.8     0.66413463     -1075.7413372688  5.49E-02
   257 Broy./Diag. 0.40E+00   23.8     0.67405502     -1076.9306119636 -1.19E+00
   258 Broy./Diag. 0.40E+00   24.8     0.25248812     -1075.8583905674  1.07E+00
   259 Broy./Diag. 0.40E+00   24.3     0.92887702     -1076.0527510403 -1.94E-01
   260 Broy./Diag. 0.40E+00   23.4     1.00107480     -1077.7416857726 -1.69E+00
   261 Broy./Diag. 0.40E+00   23.9     1.78015567     -1076.1505155489  1.59E+00
   262 Broy./Diag. 0.40E+00   24.1     1.79803143     -1077.3762878517 -1.23E+00
   263 Broy./Diag. 0.40E+00   25.0     1.00446441     -1077.1236532511  2.53E-01
   264 Broy./Diag. 0.40E+00   24.4     0.63282762     -1075.5888070620  1.53E+00
   265 Broy./Diag. 0.40E+00   24.9     0.64396482     -1077.2962534555 -1.71E+00
   266 Broy./Diag. 0.40E+00   25.0     0.27825152     -1075.7059451905  1.59E+00
   267 Broy./Diag. 0.40E+00   22.7     0.15150374     -1076.3776241592 -6.72E-01
   268 Broy./Diag. 0.40E+00   23.2     0.04608851     -1075.6640886686  7.14E-01
   269 Broy./Diag. 0.40E+00   23.2     0.07106451     -1076.0157742288 -3.52E-01
   270 Broy./Diag. 0.40E+00   24.6     0.09025690     -1076.1307696272 -1.15E-01
   271 Broy./Diag. 0.40E+00   24.6     1.47698076     -1076.0018795814  1.29E-01
   272 Broy./Diag. 0.40E+00   24.6     1.49152928     -1077.5947371563 -1.59E+00
   273 Broy./Diag. 0.40E+00   24.9     0.69585008     -1076.2329014628  1.36E+00
   274 Broy./Diag. 0.40E+00   24.5     0.53494892     -1077.5546443449 -1.32E+00
   275 Broy./Diag. 0.40E+00   23.9     0.55254426     -1077.1871089848  3.68E-01
   276 Broy./Diag. 0.40E+00   24.5     1.77200392     -1075.7234194886  1.46E+00
   277 Broy./Diag. 0.40E+00   24.9     1.77504566     -1077.4214625067 -1.70E+00
   278 Broy./Diag. 0.40E+00   24.6     0.95711463     -1075.9310683145  1.49E+00
   279 Broy./Diag. 0.40E+00   25.0     0.99360348     -1077.6925575622 -1.76E+00
   280 Broy./Diag. 0.40E+00   24.0     0.09294176     -1075.9046865288  1.79E+00
   281 Broy./Diag. 0.40E+00   24.8     1.48275103     -1076.0539403112 -1.49E-01
   282 Broy./Diag. 0.40E+00   23.8     1.49295497     -1077.3756726963 -1.32E+00
   283 Broy./Diag. 0.40E+00   24.0     1.06702231     -1075.7658266233  1.61E+00
   284 Broy./Diag. 0.40E+00   23.0     0.71376179     -1077.4977732686 -1.73E+00
   285 Broy./Diag. 0.40E+00   24.9     1.06626549     -1077.4910923556  6.68E-03
   286 Broy./Diag. 0.40E+00   23.6     1.76753381     -1077.4364152308  5.47E-02
   287 Broy./Diag. 0.40E+00   23.7     1.80022841     -1076.9776485287  4.59E-01
   288 Broy./Diag. 0.40E+00   23.8     1.04037443     -1075.3632809892  1.61E+00
   289 Broy./Diag. 0.40E+00   23.4     0.98482642     -1076.7546043691 -1.39E+00
   290 Broy./Diag. 0.40E+00   23.1     0.38708504     -1075.5239054196  1.23E+00
   291 Broy./Diag. 0.40E+00   21.8     0.22205938     -1076.0138326166 -4.90E-01
   292 Broy./Diag. 0.40E+00   22.9     0.99605751     -1076.2657263611 -2.52E-01
   293 Broy./Diag. 0.40E+00   23.4     0.99750061     -1077.4565618684 -1.19E+00
   294 Broy./Diag. 0.40E+00   23.8     1.01273161     -1075.7270984900  1.73E+00
   295 Broy./Diag. 0.40E+00   24.4     1.48150180     -1077.3564831377 -1.63E+00
   296 Broy./Diag. 0.40E+00   21.6     1.77408461     -1077.5004692170 -1.44E-01
   297 Broy./Diag. 0.40E+00   24.0     1.79295946     -1077.4314674987  6.90E-02
   298 Broy./Diag. 0.40E+00   24.3     0.28934780     -1075.9830146017  1.45E+00
   299 Broy./Diag. 0.40E+00   21.8     0.97908246     -1075.8742214705  1.09E-01
   300 Broy./Diag. 0.40E+00   21.6     0.97466105     -1077.3701865027 -1.50E+00

  Leaving inner SCF loop after reaching   300 steps.


  Electronic density on regular grids:       -511.9995675005        0.0004324995
  Core density on regular grids:              512.0003531477        0.0003531477
  Total charge density on r-space grids:        0.0007856473
  Total charge density g-space grids:           0.0007856473

  Overlap energy of the core charge distribution:               0.00000000000000
  Self energy of the core charge distribution:              -2838.21791979120962
  Core Hamiltonian energy:                                    758.60763406546550
  Hartree energy:                                            1240.95414118976646
  Exchange-correlation energy:                               -238.71404196668246

  Total energy:                                             -1077.37018650266032

 *** WARNING in qs_scf.F:542 :: SCF run NOT converged ***


 ENERGY| Total FORCE_EVAL ( QS ) energy (a.u.):            -1076.247042441174017


 ATOMIC FORCES in [a.u.]

 # Atom   Kind   Element          X              Y              Z
      1      1      O          -0.06567244    -0.04062609    -0.14870303
      2      2      H           0.05822691     0.08509711     0.04891829
      3      2      H           0.03020131    -0.03701959     0.01935486
      4      1      O          -0.00905830     0.00588314    -0.06159622
      5      2      H           0.07670021    -0.00700388    -0.02106545
      6      2      H          -0.04834953    -0.00798407     0.08776404
      7      1      O          -0.01068448     0.01837704     0.15316747
      8      2      H          -0.08098978    -0.04835498    -0.06398104
      9      2      H           0.06960131    -0.02775834    -0.01429421
     10      1      O          -0.06424631     0.01315605     0.17002718
     11      2      H           0.05856113     0.03997909    -0.00364670
     12      2      H          -0.02286983    -0.04275612    -0.03194700
     13      1      O          -0.00699701     0.07666880     0.00709469
     14      2      H          -0.08246946    -0.00928784    -0.01193961
     15      2      H           0.05020666    -0.02717189    -0.04818914
     16      1      O           0.05487786    -0.01647860    -0.02497027
     17      2      H           0.00297835     0.05230591    -0.05463393
     18      2      H          -0.02087019    -0.08389257     0.03665995
     19      1      O          -0.08409693    -0.06879636    -0.04526271
     20      2      H          -0.01925527     0.05479973    -0.02426424
     21      2      H           0.06410457    -0.03891023    -0.01732840
     22      1      O          -0.03954498    -0.04034395    -0.02369720
     23      2      H           0.01547890     0.06687766    -0.01321600
     24      2      H           0.05263801    -0.03290250     0.03819865
     25      1      O          -0.03514360    -0.09277642     0.07579023
     26      2      H          -0.03800181     0.03638947    -0.01670471
     27      2      H           0.08975376    -0.05273599    -0.03408544
     28      1      O          -0.00680293    -0.12042690     0.07945377
     29      2      H          -0.01647840     0.07576689     0.04831199
     30      2      H          -0.01310607    -0.00273052    -0.06510657
     31      1      O           0.03701256     0.09700322    -0.14402481
     32      2      H           0.03611223    -0.00946096     0.09799807
     33      2      H          -0.06953776    -0.06459275    -0.02330072
     34      1      O          -0.02469623    -0.03824836    -0.12803935
     35      2      H          -0.00832754     0.04184660     0.11048908
     36      2      H           0.05972221     0.01954627    -0.06154385
     37      1      O           0.05704098    -0.10217222    -0.13921408
     38      2      H           0.02079620     0.09347375    -0.01619686
     39      2      H          -0.06741674     0.00079912     0.04868384
     40      1      O          -0.01539526     0.00947781    -0.00972768
     41      2      H          -0.04948988     0.04404993     0.08607162
     42      2      H           0.05286482    -0.06976098     0.06239433
     43      1      O          -0.09434789    -0.09752692    -0.03774039
     44      2      H           0.04437327     0.00967318    -0.03600411
     45      2      H           0.03305673     0.02251020     0.02915370
     46      1      O          -0.08989770     0.11437402    -0.13130533
     47      2      H           0.00738656     0.01204743     0.09946074
     48      2      H           0.03786853    -0.06731227    -0.02808051
     49      1      O          -0.00399502    -0.00659731    -0.13552422
     50      2      H          -0.07196641    -0.07076622     0.03738907
     51      2      H           0.02660748     0.03673439     0.10594513
     52      1      O           0.00866198    -0.04981585    -0.15668983
     53      2      H           0.02723323     0.03009573     0.01714411
     54      2      H          -0.02436246     0.04162050     0.07709125
     55      1      O           0.00935180    -0.08028606    -0.10240800
     56      2      H          -0.07887278     0.02469774     0.07354938
     57      2      H           0.03377857    -0.06103283     0.02833837
     58      1      O           0.02784902     0.13450298    -0.03573397
     59      2      H          -0.05438641    -0.07570190    -0.01881046
     60      2      H           0.04425501    -0.01982180     0.10211380
     61      1      O          -0.08429466     0.03485770     0.08891273
     62      2      H           0.02210026     0.08640812     0.03904337
     63      2      H           0.03665480    -0.05639274    -0.05008897
     64      1      O           0.02725916     0.11679552     0.04249632
     65      2      H           0.00359107    -0.03969352     0.05426644
     66      2      H          -0.04484355    -0.05013219    -0.08964573
     67      1      O          -0.06539765     0.05619147    -0.08575805
     68      2      H           0.06658158    -0.08410050     0.01195075
     69      2      H           0.04284671     0.03895257    -0.02614660
     70      1      O           0.00612419    -0.11095148    -0.08605628
     71      2      H           0.05452642    -0.01337985     0.09253969
     72      2      H          -0.06149927     0.07602335     0.01655244
     73      1      O          -0.01542294     0.06902868    -0.10283136
     74      2      H           0.05533050    -0.00315976     0.03985789
     75      2      H          -0.04669136    -0.04530513    -0.06208893
     76      1      O          -0.05959337     0.05895854     0.03112993
     77      2      H           0.05986234    -0.07439709    -0.00101252
     78      2      H           0.02821989     0.08227259     0.02429411
     79      1      O          -0.03482808     0.13942668    -0.06669336
     80      2      H          -0.02554974    -0.09644505    -0.00159563
     81      2      H           0.04096520    -0.02224201     0.05521471
     82      1      O          -0.02911184     0.02251087    -0.11538117
     83      2      H           0.06336082    -0.05865849     0.00807899
     84      2      H          -0.00344921     0.04187466     0.08288438
     85      1      O          -0.06661884    -0.08329167    -0.02613801
     86      2      H           0.01205505     0.03091882    -0.09430583
     87      2      H           0.04870156     0.01741960     0.06939378
     88      1      O           0.00225323    -0.13044347     0.04645875
     89      2      H           0.06376513    -0.02332118     0.03956135
     90      2      H          -0.03715767     0.07648756    -0.03166840
     91      1      O          -0.05938641    -0.00763510    -0.15134911
     92      2      H           0.04356345    -0.04884459     0.01283499
     93      2      H           0.04188865     0.09653542    -0.01446351
     94      1      O          -0.03532313    -0.02832281    -0.12494468
     95      2      H           0.06567083    -0.03943210    -0.04295544
     96      2      H          -0.02856548    -0.01183760     0.07595680
     97      1      O          -0.05419337    -0.04178923    -0.15476379
     98      2      H           0.00014826     0.08052056     0.07274954
     99      2      H           0.05376772    -0.03173106     0.06695319
    100      1      O           0.01029096     0.04722556    -0.03878097
    101      2      H          -0.04669502    -0.04124345     0.07357953
    102      2      H           0.02583976     0.03280955     0.01734544
    103      1      O          -0.08194308    -0.01074153    -0.08020661
    104      2      H           0.05538790    -0.01846401     0.06523504
    105      2      H          -0.01033040     0.05508752    -0.04437817
    106      1      O          -0.00521725    -0.10666715    -0.14101651
    107      2      H          -0.04387055     0.03181466    -0.02213766
    108      2      H           0.03915186    -0.00287614     0.06760465
    109      1      O          -0.08163946     0.07025406    -0.16035124
    110      2      H           0.04098565     0.04511711     0.02396190
    111      2      H           0.02554167    -0.06965336     0.05268469
    112      1      O          -0.07044014     0.06866460    -0.14683111
    113      2      H           0.02969114     0.05276794     0.03253965
    114      2      H           0.02764645    -0.04347129    -0.00362116
    115      1      O           0.04679917     0.11958871     0.08828891
    116      2      H          -0.01068749     0.01699579    -0.04108338
    117      2      H          -0.01558389    -0.06311757     0.00946424
    118      1      O           0.08671743    -0.13753421    -0.01100210
    119      2      H          -0.02566540     0.06275871    -0.08176969
    120      2      H          -0.05774428     0.03210704     0.09490741
    121      1      O           0.00015538    -0.01644214     0.00889573
    122      2      H           0.08202492     0.05355373     0.01415810
    123      2      H          -0.05680978     0.01405119     0.02109567
    124      1      O          -0.05823942     0.03539264    -0.01677650
    125      2      H          -0.01956595     0.03563207     0.06203367
    126      2      H           0.06390365     0.01082092    -0.04571371
    127      1      O          -0.10417113     0.04540240     0.11466594
    128      2      H           0.01296349    -0.07514910     0.00327180
    129      2      H           0.07762164     0.07408372     0.05550197
    130      1      O          -0.05948670    -0.05469678     0.07322496
    131      2      H           0.06117510    -0.07707348     0.00885228
    132      2      H           0.02122697     0.05670332     0.01752832
    133      1      O          -0.00898750    -0.04639479     0.08768470
    134      2      H           0.07955501     0.01332435    -0.02925251
    135      2      H          -0.07149179     0.07549000     0.01736701
    136      1      O           0.01380087     0.01861861    -0.10244322
    137      2      H           0.06289189    -0.00531131     0.05352888
    138      2      H          -0.07436225    -0.03009566     0.01141611
    139      1      O          -0.02898782    -0.06356163     0.07453215
    140      2      H           0.07609334     0.00149770    -0.07767823
    141      2      H          -0.04315988     0.07839339     0.00505846
    142      1      O          -0.09293111    -0.02205793    -0.01849671
    143      2      H           0.05826064     0.04572921    -0.02767607
    144      2      H           0.00628809    -0.01069270     0.08214402
    145      1      O          -0.02761105     0.05308721     0.08319400
    146      2      H          -0.01326691    -0.07929411    -0.06727897
    147      2      H           0.05288014     0.07220345    -0.08419163
    148      1      O           0.07332261     0.01751105    -0.10231490
    149      2      H          -0.00332614     0.05568480    -0.04243391
    150      2      H          -0.05038541    -0.04708734     0.06954623
    151      1      O           0.06893899     0.05512308    -0.01582838
    152      2      H          -0.00777058     0.01010946     0.11705280
    153      2      H          -0.02734649    -0.06204759    -0.01308871
    154      1      O           0.04860032    -0.00559250    -0.02922528
    155      2      H           0.06358292    -0.05802502    -0.07453316
    156      2      H          -0.07319289    -0.02624434     0.01304513
    157      1      O           0.03781848     0.08923577     0.12732108
    158      2      H           0.00049905    -0.09165427    -0.00557353
    159      2      H           0.01849176    -0.01945671    -0.04600769
    160      1      O           0.02607956     0.05521745     0.16577624
    161      2      H          -0.03366283     0.07269965    -0.04118996
    162      2      H           0.00814661    -0.08801642    -0.02529812
    163      1      O          -0.09614565    -0.01906813     0.06887211
    164      2      H           0.05127434     0.03024206    -0.00250696
    165      2      H           0.03171068    -0.05015949     0.01261519
    166      1      O           0.02794975    -0.12939063    -0.09585062
    167      2      H           0.01581814     0.01403072     0.05545814
    168      2      H          -0.03875902     0.02172110    -0.00051909
    169      1      O          -0.05802945     0.13170743    -0.12280478
    170      2      H          -0.03624605    -0.09797192    -0.03715371
    171      2      H           0.08847142     0.02295289    -0.01239932
    172      1      O          -0.02841687     0.08871936    -0.07957010
    173      2      H          -0.02521987    -0.07169157     0.00249159
    174      2      H           0.02451941     0.02378300     0.08653014
    175      1      O           0.03653008    -0.00288930    -0.15642857
    176      2      H          -0.01052422     0.00315543     0.08269039
    177      2      H          -0.02302394    -0.09862753     0.03497364
    178      1      O           0.01998821     0.07279959    -0.01884521
    179      2      H           0.04609441    -0.08128064    -0.06658008
    180      2      H          -0.07508859     0.02447578    -0.07005921
    181      1      O          -0.07644201     0.06163193     0.03490075
    182      2      H          -0.02345860    -0.01978630    -0.07317084
    183      2      H           0.07096666    -0.05560938     0.03747623
    184      1      O           0.05140425     0.12535704     0.07372730
    185      2      H          -0.00760742     0.00113627    -0.11230181
    186      2      H          -0.04065401    -0.06418085     0.09935578
    187      1      O          -0.01684673    -0.13422982     0.08274755
    188      2      H           0.04755781     0.05552054     0.01343892
    189      2      H          -0.06838214     0.08066311    -0.03016436
    190      1      O          -0.00361716    -0.02757154     0.01647398
    191      2      H          -0.00148899     0.00501868     0.09716066
    192      2      H           0.03440193     0.06064086    -0.01359782
 SUM OF ATOMIC FORCES          -0.02818179    -0.05643080    -0.46188277     0.46616986

 -------------------------------------------------------------------------------
 -                                                                             -
 -                                DBCSR STATISTICS                             -
 -                                                                             -
 -------------------------------------------------------------------------------
 COUNTER                                    TOTAL       BLAS       SMM       ACC
 flops     5 x     5 x   256           3213235200       0.0%    100.0%      0.0%
 flops    13 x     5 x   256           3696376320       0.0%    100.0%      0.0%
 flops     5 x    13 x   256           3946808320       0.0%    100.0%      0.0%
 flops    13 x    13 x   256           5521524736       0.0%    100.0%      0.0%
 flops inhomo. stacks                           0       0.0%      0.0%      0.0%
 flops total                        16.377945E+09       0.0%    100.0%      0.0%
 flops max/rank                     16.377945E+09       0.0%    100.0%      0.0%
 matmuls inhomo. stacks                         0       0.0%      0.0%      0.0%
 matmuls total                             544509       0.0%    100.0%      0.0%
 number of processed stacks                 42140       0.0%    100.0%      0.0%
 average stack size                                     0.0      12.9       0.0
 marketing flops                   333.927416E+09
 -------------------------------------------------------------------------------
 # multiplications                            301
 max memory usage/rank              30.520525E+09
 # max total images/rank                        1
 # max 3D layers                                1
 # MPI messages exchanged                       0
 MPI messages size (bytes):
  total size                         0.000000E+00
  min size                           0.000000E+00
  max size                           0.000000E+00
  average size                       0.000000E+00
 MPI breakdown and total messages size (bytes):
             size <=      128                   0                        0
       128 < size <=     8192                   0                        0
      8192 < size <=    32768                   0                        0
     32768 < size <=   131072                   0                        0
    131072 < size <=  4194304                   0                        0
   4194304 < size <= 16777216                   0                        0
  16777216 < size                               0                        0
 -------------------------------------------------------------------------------

 MEMORY| Estimated peak process memory [MiB]                               29101

 -------------------------------------------------------------------------------
 -                                                                             -
 -                           R E F E R E N C E S                               -
 -                                                                             -
 -------------------------------------------------------------------------------
 
 CP2K version 7.1, the CP2K developers group (2019).
 CP2K is freely available from https://www.cp2k.org/ .

 Schuett, Ole; Messmer, Peter; Hutter, Juerg; VandeVondele, Joost. 
 Electronic Structure Calculations on Graphics Processing Units, John
 Wiley & Sons, Ltd, 173-190 (2016). 
 GPU-Accelerated Sparse Matrix-Matrix Multiplication for
 Linear Scaling Density Functional Theory.
 https://dx.doi.org/10.1002/9781118670712.ch8

 Borstnik, U; VandeVondele, J; Weber, V; Hutter, J. 
 PARALLEL COMPUTING, 40 (5-6), 47-58 (2014). 
 Sparse matrix multiplication: The distributed block-compressed sparse
 row library.
 https://dx.doi.org/10.1016/j.parco.2014.03.012

 Hutter, J; Iannuzzi, M; Schiffmann, F; VandeVondele, J. 
 WIREs Comput Mol Sci., 4 (1), 15-25 (2014). 
 CP2K: atomistic simulations of condensed matter systems.
 https://dx.doi.org/10.1002/wcms.1159

 Krack, M. 
 THEORETICAL CHEMISTRY ACCOUNTS, 114 (1-3), 145-152 (2005). 
 Pseudopotentials for H to Kr optimized for gradient-corrected
 exchange-correlation functionals.
 https://dx.doi.org/10.1007/s00214-005-0655-y

 VandeVondele, J; Krack, M; Mohamed, F; Parrinello, M; Chassaing, T;
 Hutter, J. COMPUTER PHYSICS COMMUNICATIONS, 167 (2), 103-128 (2005). 
 QUICKSTEP: Fast and accurate density functional calculations using a
 mixed Gaussian and plane waves approach.
 https://dx.doi.org/10.1016/j.cpc.2004.12.014

 Frigo, M; Johnson, SG. 
 PROCEEDINGS OF THE IEEE, 93 (2), 216-231 (2005). 
 The design and implementation of FFTW3.
 https://dx.doi.org/10.1109/JPROC.2004.840301

 Hartwigsen, C; Goedecker, S; Hutter, J. 
 PHYSICAL REVIEW B, 58 (7), 3641-3662 (1998). 
 Relativistic separable dual-space Gaussian pseudopotentials from H to Rn.
 https://dx.doi.org/10.1103/PhysRevB.58.3641

 Lippert, G; Hutter, J; Parrinello, M. 
 MOLECULAR PHYSICS, 92 (3), 477-487 (1997). 
 A hybrid Gaussian and plane wave density functional scheme.
 https://dx.doi.org/10.1080/002689797170220

 Goedecker, S; Teter, M; Hutter, J. 
 PHYSICAL REVIEW B, 54 (3), 1703-1710 (1996). 
 Separable dual-space Gaussian pseudopotentials.
 https://dx.doi.org/10.1103/PhysRevB.54.1703


 -------------------------------------------------------------------------------
 -                                                                             -
 -                                T I M I N G                                  -
 -                                                                             -
 -------------------------------------------------------------------------------
 SUBROUTINE                       CALLS  ASD         SELF TIME        TOTAL TIME
                                MAXIMUM       AVERAGE  MAXIMUM  AVERAGE  MAXIMUM
 CP2K                                 1  1.0    1.001    1.001 7226.856 7226.856
 qs_forces                            1  2.0    0.000    0.000 7214.988 7214.988
 qs_energies                          1  3.0    0.000    0.000 7211.385 7211.385
 scf_env_do_scf                       1  4.0    0.001    0.001 7200.082 7200.082
 scf_env_do_scf_inner_loop          300  5.0    0.057    0.057 7200.081 7200.081
 gspace_mixing                      299  6.0   42.218   42.218 2981.126 2981.126
 broyden_mixing                     299  7.0 2692.299 2692.299 2692.303 2692.303
 qs_scf_new_mos                     300  6.0    0.008    0.008 1963.376 1963.376
 eigensolver                        300  7.0    0.035    0.035 1894.134 1894.134
 cp_fm_syevd                        300  8.0 1278.581 1278.581 1279.822 1279.822
 pw_transfer                       3912  9.9    0.388    0.388 1188.831 1188.831
 rebuild_ks_matrix                  301  7.0    0.001    0.001 1163.121 1163.121
 qs_ks_build_kohn_sham_matrix       301  8.0    0.100    0.100 1163.120 1163.120
 qs_ks_update_qs_env                300  6.0    0.004    0.004 1159.849 1159.849
 fft_wrap_pw1pw2                   3310 10.9    0.048    0.048 1156.910 1156.910
 qs_rho_update_rho                  301  6.0    0.003    0.003 1095.907 1095.907
 calculate_rho_elec                 301  7.0  540.377  540.377 1095.904 1095.904
 fft_wrap_pw1pw2_70                1504 11.2   90.966   90.966 1049.573 1049.573
 cp_fm_cholesky_restore             900  8.0  613.202  613.202  613.202  613.202
 fft3d_s                           3311 12.9  555.348  555.348  555.396  555.396
 density_rs2pw                      301  8.0    0.044    0.044  545.363  545.363
 pw_scatter_s                      1804 13.2  410.893  410.893  410.893  410.893
 pw_poisson_solve                   301  9.0  332.529  332.529  364.407  364.407
 sum_up_and_integrate               301  9.0   17.837   17.837  336.968  336.968
 integrate_v_rspace                 301 10.0   10.199   10.199  319.130  319.130
 potential_pw2rs                    301 11.0    2.583    2.583  286.150  286.150
 qs_vxc_create                      301  9.0    0.007    0.007  166.626  166.626
 xc_vxc_pw_create                   301 10.0   42.353   42.353  166.619  166.619
 -------------------------------------------------------------------------------

 The number of warnings for this run is : 1
 
 -------------------------------------------------------------------------------
  **** **** ******  **  PROGRAM ENDED AT                 2020-05-30 05:10:59.852
 ***** ** ***  *** **   PROGRAM RAN ON                                   gnode44
 **    ****   ******    PROGRAM RAN BY                               mayank.modi
 ***** **    ** ** **   PROGRAM PROCESS ID                                  3540
  **** **  *******  **  PROGRAM STOPPED IN /home/mayank.modi/ab-initio-thermodyn
                                           amics-of-water/mayank/cp2k_energy_cal
                                           culations
