 DBCSR| CPU Multiplication driver                                           XSMM
 DBCSR| Multrec recursion limit                                              512
 DBCSR| Multiplication stack size                                           1000
 DBCSR| Maximum elements for images                                    UNLIMITED
 DBCSR| Multiplicative factor virtual images                                   1
 DBCSR| Use multiplication densification                                       T
 DBCSR| Multiplication size stacks                                             3


  **** **** ******  **  PROGRAM STARTED AT               2020-05-28 07:32:34.248
 ***** ** ***  *** **   PROGRAM STARTED ON                               gnode44
 **    ****   ******    PROGRAM STARTED BY                           mayank.modi
 ***** **    ** ** **   PROGRAM PROCESS ID                                 11355
  **** **  *******  **  PROGRAM STARTED IN /home/mayank.modi/ab-initio-thermodyn
                                           amics-of-water/mayank/cp2k_energy_cal
                                           culations

 CP2K| version string:                                          CP2K version 7.1
 CP2K| source code revision number:                                  git:e635599
 CP2K| cp2kflags: omp libint fftw3 libxc xsmm spglib                            
 CP2K| is freely available from                            https://www.cp2k.org/
 CP2K| Program compiled at                          Mon Dec 23 19:23:12 CET 2019
 CP2K| Program compiled on                                                pc9404
 CP2K| Program compiled for                                Linux-x86-64-gfortran
 CP2K| Data directory path                                        /opt/cp2k/data
 CP2K| Input file name                                 input_training/input20.in

 GLOBAL| Force Environment number                                              1
 GLOBAL| Basis set file name                                           BASIS_SET
 GLOBAL| Potential file name                                      GTH_POTENTIALS
 GLOBAL| MM Potential file name                                     MM_POTENTIAL
 GLOBAL| Coordinate file name                                      __STD_INPUT__
 GLOBAL| Method name                                                        CP2K
 GLOBAL| Project name                                                   H2O_bulk
 GLOBAL| Preferred FFT library                                             FFTW3
 GLOBAL| Preferred diagonalization lib.                                       SL
 GLOBAL| Run type                                                   ENERGY_FORCE
 GLOBAL| All-to-all communication in single precision                          F
 GLOBAL| FFTs using library dependent lengths                                  F
 GLOBAL| Global print level                                                  LOW
 GLOBAL| MPI I/O enabled                                                       T
 GLOBAL| Total number of message passing processes                             1
 GLOBAL| Number of threads for this process                                   36
 GLOBAL| This output is from process                                           0
 GLOBAL| CPU model name                Intel(R) Xeon(R) CPU E5-2640 v4 @ 2.40GHz
 GLOBAL| CPUID                                                              1002
 GLOBAL| Compiled for CPUID                                                    0

 MEMORY| system memory details [Kb]
 MEMORY|                        rank 0           min           max       average
 MEMORY| MemTotal            131893056     131893056     131893056     131893056
 MEMORY| MemFree             121141232     121141232     121141232     121141232
 MEMORY| Buffers               2114376       2114376       2114376       2114376
 MEMORY| Cached                3080072       3080072       3080072       3080072
 MEMORY| Slab                  3302408       3302408       3302408       3302408
 MEMORY| SReclaimable          3100388       3100388       3100388       3100388
 MEMORY| MemLikelyFree       129436068     129436068     129436068     129436068


 GENERATE| WARNING:: No connections detected for Hydrogen - Atom Nr:        77 !
 GENERATE|  Preliminary Number of Bonds generated:                             0
 GENERATE|  Achieved consistency in connectivity generation.

 *******************************************************************************
 *******************************************************************************
 **                                                                           **
 **     #####                         ##              ##                      **
 **    ##   ##            ##          ##              ##                      **
 **   ##     ##                       ##            ######                    **
 **   ##     ##  ##   ##  ##   #####  ##  ##   ####   ##    #####    #####    **
 **   ##     ##  ##   ##  ##  ##      ## ##   ##      ##   ##   ##  ##   ##   **
 **   ##  ## ##  ##   ##  ##  ##      ####     ###    ##   ######   ######    **
 **    ##  ###   ##   ##  ##  ##      ## ##      ##   ##   ##       ##        **
 **     #######   #####   ##   #####  ##  ##  ####    ##    #####   ##        **
 **           ##                                                    ##        **
 **                                                                           **
 **                                                ... make the atoms dance   **
 **                                                                           **
 **            Copyright (C) by CP2K developers group (2000 - 2019)           **
 **                                                                           **
 *******************************************************************************


 TOTAL NUMBERS AND MAXIMUM NUMBERS

  Total number of            - Atomic kinds:                                   2
                             - Atoms:                                        192
                             - Shell sets:                                   384
                             - Shells:                                       704
                             - Primitive Cartesian functions:                960
                             - Cartesian basis functions:                   1536
                             - Spherical basis functions:                   1472

  Maximum angular momentum of- Orbital basis functions:                        2
                             - Local part of the GTH pseudopotential:          2
                             - Non-local part of the GTH pseudopotential:      0


 SCF PARAMETERS         Density guess:                                    ATOMIC
                        --------------------------------------------------------
                        max_scf:                                             300
                        max_scf_history:                                       0
                        max_diis:                                              4
                        --------------------------------------------------------
                        eps_scf:                                        1.00E-07
                        eps_scf_history:                                0.00E+00
                        eps_diis:                                       1.00E-01
                        eps_eigval:                                     1.00E-05
                        --------------------------------------------------------
                        level_shift [a.u.]:                                 0.00
                        --------------------------------------------------------
                        Mixing method:                            BROYDEN_MIXING
                                                charge density mixing in g-space
                        --------------------------------------------------------
                        No outer SCF

 Number of electrons:                                                        512
 Number of occupied orbitals:                                                256
 Number of molecular orbitals:                                               256

 Number of orbital functions:                                               1472
 Number of independent orbital functions:                                   1472

 Extrapolation method: initial_guess


 SCF WAVEFUNCTION OPTIMIZATION

  Step     Update method      Time    Convergence         Total energy    Change
  ------------------------------------------------------------------------------
     1 NoMix/Diag. 0.40E+00   10.2     0.68519212     -1063.9684142442 -1.06E+03
     2 Broy./Diag. 0.40E+00   15.9     1.92108863      -992.6804271584  7.13E+01
     3 Broy./Diag. 0.40E+00   17.2     1.93177029     -1274.0987861237 -2.81E+02
     4 Broy./Diag. 0.40E+00   17.9     1.74932119     -1132.7996849818  1.41E+02
     5 Broy./Diag. 0.40E+00   17.7     1.77445478     -1097.3684081704  3.54E+01
     6 Broy./Diag. 0.40E+00   19.0     1.93837834     -1100.7493198054 -3.38E+00
     7 Broy./Diag. 0.40E+00   19.9     1.82036329     -1099.1149959140  1.63E+00
     8 Broy./Diag. 0.40E+00   21.6     1.81086394     -1084.9128467847  1.42E+01
     9 Broy./Diag. 0.40E+00   22.6     1.72441806     -1083.2697294007  1.64E+00
    10 Broy./Diag. 0.40E+00   25.1     1.85674090     -1076.0198931650  7.25E+00
    11 Broy./Diag. 0.40E+00   23.8     1.52483442     -1074.6174214607  1.40E+00
    12 Broy./Diag. 0.40E+00   24.5     1.37296770     -1073.6273015294  9.90E-01
    13 Broy./Diag. 0.40E+00   23.8     1.28320478     -1062.5552789846  1.11E+01
    14 Broy./Diag. 0.40E+00   23.6     1.14375125     -1085.5682670318 -2.30E+01
    15 Broy./Diag. 0.40E+00   23.7     1.66291784     -1083.0405342423  2.53E+00
    16 Broy./Diag. 0.40E+00   23.4     1.79892798     -1080.3707803575  2.67E+00
    17 Broy./Diag. 0.40E+00   22.7     1.83265103     -1079.7906580095  5.80E-01
    18 Broy./Diag. 0.40E+00   23.7     1.53068240     -1074.1955977102  5.60E+00
    19 Broy./Diag. 0.40E+00   22.6     1.63161160     -1077.2226996378 -3.03E+00
    20 Broy./Diag. 0.40E+00   22.4     1.65866611     -1071.0906679431  6.13E+00
    21 Broy./Diag. 0.40E+00   22.5     1.74673397     -1078.6240079212 -7.53E+00
    22 Broy./Diag. 0.40E+00   23.0     1.35156349     -1078.3957361766  2.28E-01
    23 Broy./Diag. 0.40E+00   23.3     1.71332126     -1076.0659250333  2.33E+00
    24 Broy./Diag. 0.40E+00   23.5     1.76710341     -1077.8025206957 -1.74E+00
    25 Broy./Diag. 0.40E+00   23.3     1.43466875     -1071.5224756768  6.28E+00
    26 Broy./Diag. 0.40E+00   22.4     1.71949343     -1078.8403827270 -7.32E+00
    27 Broy./Diag. 0.40E+00   23.6     1.78988397     -1077.7689634669  1.07E+00
    28 Broy./Diag. 0.40E+00   23.6     1.39294013     -1072.9178994103  4.85E+00
    29 Broy./Diag. 0.40E+00   23.5     1.48290078     -1077.3956166920 -4.48E+00
    30 Broy./Diag. 0.40E+00   23.2     1.07108541     -1074.9927915485  2.40E+00
    31 Broy./Diag. 0.40E+00   22.8     1.26061455     -1073.8774314186  1.12E+00
    32 Broy./Diag. 0.40E+00   20.8     1.56959883     -1077.1135661832 -3.24E+00
    33 Broy./Diag. 0.40E+00   22.2     1.60953943     -1076.3140593548  8.00E-01
    34 Broy./Diag. 0.40E+00   20.3     1.68316174     -1076.3271305105 -1.31E-02
    35 Broy./Diag. 0.40E+00   21.3     1.79142602     -1075.0207398168  1.31E+00
    36 Broy./Diag. 0.40E+00   21.0     1.73399743     -1074.8695261487  1.51E-01
    37 Broy./Diag. 0.40E+00   20.9     1.81249813     -1075.4744854858 -6.05E-01
    38 Broy./Diag. 0.40E+00   22.6     1.52697829     -1074.3520795418  1.12E+00
    39 Broy./Diag. 0.40E+00   23.0     1.00320978     -1074.3526026627 -5.23E-04
    40 Broy./Diag. 0.40E+00   23.6     1.36840625     -1073.6677304870  6.85E-01
    41 Broy./Diag. 0.40E+00   23.8     1.37712079     -1080.5348007635 -6.87E+00
    42 Broy./Diag. 0.40E+00   23.4     1.71529397     -1075.6269611424  4.91E+00
    43 Broy./Diag. 0.40E+00   22.9     1.80712203     -1078.2876514621 -2.66E+00
    44 Broy./Diag. 0.40E+00   23.7     1.75317989     -1071.4878895186  6.80E+00
    45 Broy./Diag. 0.40E+00   23.4     1.75270772     -1078.6997987011 -7.21E+00
    46 Broy./Diag. 0.40E+00   22.8     1.43515896     -1076.1388546869  2.56E+00
    47 Broy./Diag. 0.40E+00   23.4     1.50922781     -1076.6944387816 -5.56E-01
    48 Broy./Diag. 0.40E+00   23.4     1.53578311     -1073.9004986421  2.79E+00
    49 Broy./Diag. 0.40E+00   23.7     1.54797874     -1075.8202914961 -1.92E+00
    50 Broy./Diag. 0.40E+00   23.4     1.34121926     -1075.8811123754 -6.08E-02
    51 Broy./Diag. 0.40E+00   23.4     1.37115852     -1078.7464256416 -2.87E+00
    52 Broy./Diag. 0.40E+00   23.5     1.31740478     -1075.3095974162  3.44E+00
    53 Broy./Diag. 0.40E+00   23.3     0.95534406     -1073.9693312657  1.34E+00
    54 Broy./Diag. 0.40E+00   24.5     1.73905833     -1075.5261608185 -1.56E+00
    55 Broy./Diag. 0.40E+00   22.1     1.77283358     -1078.1327379191 -2.61E+00
    56 Broy./Diag. 0.40E+00   22.6     1.74024078     -1075.6223835218  2.51E+00
    57 Broy./Diag. 0.40E+00   24.9     1.80349088     -1076.6567085731 -1.03E+00
    58 Broy./Diag. 0.40E+00   24.9     1.31206816     -1075.6017445013  1.05E+00
    59 Broy./Diag. 0.40E+00   23.8     1.43373760     -1074.9623866628  6.39E-01
    60 Broy./Diag. 0.40E+00   23.3     1.70654994     -1077.3167464848 -2.35E+00
    61 Broy./Diag. 0.40E+00   23.7     1.81872297     -1075.4525506721  1.86E+00
    62 Broy./Diag. 0.40E+00   23.4     1.41037327     -1072.9442153649  2.51E+00
    63 Broy./Diag. 0.40E+00   24.2     1.24615740     -1072.6557336806  2.88E-01
    64 Broy./Diag. 0.40E+00   21.5     1.73838655     -1077.3080635001 -4.65E+00
    65 Broy./Diag. 0.40E+00   23.4     1.77236986     -1079.4233678432 -2.12E+00
    66 Broy./Diag. 0.40E+00   23.5     1.42880178     -1076.6971200657  2.73E+00
    67 Broy./Diag. 0.40E+00   23.7     1.25400450     -1073.6233434600  3.07E+00
    68 Broy./Diag. 0.40E+00   22.1     1.12863800     -1078.2721420112 -4.65E+00
    69 Broy./Diag. 0.40E+00   22.5     1.36624606     -1075.7408622447  2.53E+00
    70 Broy./Diag. 0.40E+00   20.9     1.64314267     -1076.7193066581 -9.78E-01
    71 Broy./Diag. 0.40E+00   23.3     1.61102806     -1076.1837961534  5.36E-01
    72 Broy./Diag. 0.40E+00   23.6     1.58174986     -1074.3974931311  1.79E+00
    73 Broy./Diag. 0.40E+00   22.8     1.68350116     -1074.2362019801  1.61E-01
    74 Broy./Diag. 0.40E+00   23.4     1.74402425     -1074.8002377184 -5.64E-01
    75 Broy./Diag. 0.40E+00   24.0     1.78798466     -1075.8248690950 -1.02E+00
    76 Broy./Diag. 0.40E+00   21.9     1.53035749     -1074.2435667011  1.58E+00
    77 Broy./Diag. 0.40E+00   23.0     1.64081304     -1075.4601544056 -1.22E+00
    78 Broy./Diag. 0.40E+00   22.1     1.37121817     -1077.9484444227 -2.49E+00
    79 Broy./Diag. 0.40E+00   21.4     1.36588703     -1074.5813221473  3.37E+00
    80 Broy./Diag. 0.40E+00   23.3     1.72566466     -1074.8124743430 -2.31E-01
    81 Broy./Diag. 0.40E+00   21.9     1.80436447     -1075.8437338348 -1.03E+00
    82 Broy./Diag. 0.40E+00   21.5     1.74704288     -1076.5563795575 -7.13E-01
    83 Broy./Diag. 0.40E+00   21.3     1.82559216     -1075.3064473607  1.25E+00
    84 Broy./Diag. 0.40E+00   21.1     1.50095076     -1073.8371803841  1.47E+00
    85 Broy./Diag. 0.40E+00   20.4     1.41731056     -1075.0378771878 -1.20E+00
    86 Broy./Diag. 0.40E+00   23.2     1.62454021     -1075.1592854761 -1.21E-01
    87 Broy./Diag. 0.40E+00   24.5     1.07342099     -1074.5832071404  5.76E-01
    88 Broy./Diag. 0.40E+00   24.0     1.38707398     -1075.0437576596 -4.61E-01
    89 Broy./Diag. 0.40E+00   23.9     1.56979338     -1078.4942937039 -3.45E+00
    90 Broy./Diag. 0.40E+00   24.1     1.72912503     -1074.7045151001  3.79E+00
    91 Broy./Diag. 0.40E+00   23.8     1.82079392     -1076.2622588600 -1.56E+00
    92 Broy./Diag. 0.40E+00   23.1     1.76994195     -1076.9009654612 -6.39E-01
    93 Broy./Diag. 0.40E+00   23.0     1.45232948     -1075.0001292783  1.90E+00
    94 Broy./Diag. 0.40E+00   23.9     1.51320729     -1076.4060937933 -1.41E+00
    95 Broy./Diag. 0.40E+00   21.2     1.44687898     -1074.8371060211  1.57E+00
    96 Broy./Diag. 0.40E+00   23.3     1.53965698     -1077.5106091157 -2.67E+00
    97 Broy./Diag. 0.40E+00   24.2     0.80907852     -1073.2068286441  4.30E+00
    98 Broy./Diag. 0.40E+00   23.6     1.66415453     -1075.7134324658 -2.51E+00
    99 Broy./Diag. 0.40E+00   25.2     1.52182188     -1080.2868702503 -4.57E+00
   100 Broy./Diag. 0.40E+00   23.4     1.73834070     -1075.9485537413  4.34E+00
   101 Broy./Diag. 0.40E+00   23.4     1.82403594     -1075.3958612338  5.53E-01
   102 Broy./Diag. 0.40E+00   21.5     1.76632594     -1077.1049938378 -1.71E+00
   103 Broy./Diag. 0.40E+00   21.9     1.38396290     -1073.5385692120  3.57E+00
   104 Broy./Diag. 0.40E+00   23.7     1.45593753     -1079.0746054749 -5.54E+00
   105 Broy./Diag. 0.40E+00   23.7     1.34572725     -1075.1210025986  3.95E+00
   106 Broy./Diag. 0.40E+00   23.9     1.10345115     -1076.1402376175 -1.02E+00
   107 Broy./Diag. 0.40E+00   22.1     1.38830771     -1073.6577483183  2.48E+00
   108 Broy./Diag. 0.40E+00   23.6     1.56411886     -1079.7341213386 -6.08E+00
   109 Broy./Diag. 0.40E+00   23.6     1.42217427     -1076.9079316415  2.83E+00
   110 Broy./Diag. 0.40E+00   22.9     1.73180757     -1073.0699332568  3.84E+00
   111 Broy./Diag. 0.40E+00   23.5     1.77956147     -1080.2464871559 -7.18E+00
   112 Broy./Diag. 0.40E+00   23.4     1.76419288     -1079.0265805603  1.22E+00
   113 Broy./Diag. 0.40E+00   24.0     1.54196258     -1074.2004400852  4.83E+00
   114 Broy./Diag. 0.40E+00   23.2     1.57558039     -1077.3380861626 -3.14E+00
   115 Broy./Diag. 0.40E+00   23.6     1.58187025     -1073.5784692048  3.76E+00
   116 Broy./Diag. 0.40E+00   23.5     1.68675801     -1077.3917960279 -3.81E+00
   117 Broy./Diag. 0.40E+00   22.7     1.57610474     -1071.5618994512  5.83E+00
   118 Broy./Diag. 0.40E+00   23.8     1.76624431     -1081.6921633921 -1.01E+01
   119 Broy./Diag. 0.40E+00   24.0     1.82249248     -1076.7131399182  4.98E+00
   120 Broy./Diag. 0.40E+00   22.0     1.81465277     -1075.5344018491  1.18E+00
   121 Broy./Diag. 0.40E+00   23.3     1.73258023     -1075.3024352783  2.32E-01
   122 Broy./Diag. 0.40E+00   23.6     1.79014508     -1078.5891887789 -3.29E+00
   123 Broy./Diag. 0.40E+00   23.1     1.76012207     -1072.2659143123  6.32E+00
   124 Broy./Diag. 0.40E+00   23.6     1.74212770     -1079.1423271418 -6.88E+00
   125 Broy./Diag. 0.40E+00   23.8     1.20941403     -1075.2813306314  3.86E+00
   126 Broy./Diag. 0.40E+00   22.5     1.56886574     -1073.2269691591  2.05E+00
   127 Broy./Diag. 0.40E+00   23.5     1.56821220     -1077.4007802248 -4.17E+00
   128 Broy./Diag. 0.40E+00   23.8     1.36287377     -1076.0694641545  1.33E+00
   129 Broy./Diag. 0.40E+00   24.3     1.18644505     -1075.6780123294  3.91E-01
   130 Broy./Diag. 0.40E+00   24.1     1.44584819     -1072.6933374314  2.98E+00
   131 Broy./Diag. 0.40E+00   24.1     1.73097489     -1077.8143810162 -5.12E+00
   132 Broy./Diag. 0.40E+00   24.0     1.74260728     -1080.9105202852 -3.10E+00
   133 Broy./Diag. 0.40E+00   24.0     1.76360116     -1073.6861241023  7.22E+00
   134 Broy./Diag. 0.40E+00   24.5     1.78018285     -1076.9652530567 -3.28E+00
   135 Broy./Diag. 0.40E+00   23.9     1.43167648     -1072.9368597318  4.03E+00
   136 Broy./Diag. 0.40E+00   23.7     1.71350531     -1077.1544564395 -4.22E+00
   137 Broy./Diag. 0.40E+00   23.0     1.70199689     -1078.1826334446 -1.03E+00
   138 Broy./Diag. 0.40E+00   23.6     1.57161458     -1077.1550092170  1.03E+00
   139 Broy./Diag. 0.40E+00   23.7     1.35123633     -1076.4971276551  6.58E-01
   140 Broy./Diag. 0.40E+00   25.0     1.54061880     -1072.0742871275  4.42E+00
   141 Broy./Diag. 0.40E+00   23.3     1.71817266     -1077.3487025198 -5.27E+00
   142 Broy./Diag. 0.40E+00   23.4     1.75647678     -1079.1779247760 -1.83E+00
   143 Broy./Diag. 0.40E+00   23.5     1.75755081     -1073.3115398936  5.87E+00
   144 Broy./Diag. 0.40E+00   24.9     1.77332763     -1077.9183658396 -4.61E+00
   145 Broy./Diag. 0.40E+00   24.0     1.59294075     -1076.2089514550  1.71E+00
   146 Broy./Diag. 0.40E+00   23.2     1.18141939     -1075.0756490624  1.13E+00
   147 Broy./Diag. 0.40E+00   23.5     1.39727375     -1077.4162538540 -2.34E+00
   148 Broy./Diag. 0.40E+00   23.4     1.74195532     -1076.4970520853  9.19E-01
   149 Broy./Diag. 0.40E+00   23.1     1.80984663     -1075.8494440494  6.48E-01
   150 Broy./Diag. 0.40E+00   23.7     1.47591746     -1074.9287634420  9.21E-01
   151 Broy./Diag. 0.40E+00   24.7     1.24562939     -1072.8822391358  2.05E+00
   152 Broy./Diag. 0.40E+00   23.8     1.21676062     -1080.8568678396 -7.97E+00
   153 Broy./Diag. 0.40E+00   23.9     1.74022159     -1076.6250792186  4.23E+00
   154 Broy./Diag. 0.40E+00   23.7     1.80207868     -1075.4511630011  1.17E+00
   155 Broy./Diag. 0.40E+00   23.8     1.58656300     -1073.1132057558  2.34E+00
   156 Broy./Diag. 0.40E+00   24.4     1.50888207     -1079.4822357814 -6.37E+00
   157 Broy./Diag. 0.40E+00   24.1     1.52870995     -1076.6711875715  2.81E+00
   158 Broy./Diag. 0.40E+00   23.2     1.78917252     -1076.0872209791  5.84E-01
   159 Broy./Diag. 0.40E+00   23.8     1.81577779     -1077.7060851821 -1.62E+00
   160 Broy./Diag. 0.40E+00   24.1     1.69369815     -1075.3513394621  2.35E+00
   161 Broy./Diag. 0.40E+00   23.7     1.77320483     -1079.8049114913 -4.45E+00
   162 Broy./Diag. 0.40E+00   24.6     1.80751185     -1075.1009347050  4.70E+00
   163 Broy./Diag. 0.40E+00   21.8     1.73234213     -1078.6608054966 -3.56E+00
   164 Broy./Diag. 0.40E+00   23.1     1.85677183     -1074.9013653498  3.76E+00
   165 Broy./Diag. 0.40E+00   23.5     1.65768073     -1072.2909281557  2.61E+00
   166 Broy./Diag. 0.40E+00   23.7     1.62926858     -1080.9985112491 -8.71E+00
   167 Broy./Diag. 0.40E+00   23.2     1.58260585     -1074.4270285471  6.57E+00
   168 Broy./Diag. 0.40E+00   24.8     1.64582606     -1075.9361740065 -1.51E+00
   169 Broy./Diag. 0.40E+00   24.7     1.09566970     -1075.6644796549  2.72E-01
   170 Broy./Diag. 0.40E+00   23.5     1.72333729     -1073.0380907656  2.63E+00
   171 Broy./Diag. 0.40E+00   23.6     1.76577226     -1081.6245822105 -8.59E+00
   172 Broy./Diag. 0.40E+00   23.1     1.79552485     -1076.5106586752  5.11E+00
   173 Broy./Diag. 0.40E+00   24.3     1.74404941     -1080.1316983129 -3.62E+00
   174 Broy./Diag. 0.40E+00   23.2     1.84697790     -1076.2895008115  3.84E+00
   175 Broy./Diag. 0.40E+00   23.6     1.73725365     -1072.1843325736  4.11E+00
   176 Broy./Diag. 0.40E+00   24.1     1.78610414     -1075.1229461310 -2.94E+00
   177 Broy./Diag. 0.40E+00   22.5     1.27500491     -1073.1676933166  1.96E+00
   178 Broy./Diag. 0.40E+00   23.2     1.35186016     -1077.4175597093 -4.25E+00
   179 Broy./Diag. 0.40E+00   22.8     1.30357792     -1079.6512451166 -2.23E+00
   180 Broy./Diag. 0.40E+00   23.5     1.71015441     -1076.8385795240  2.81E+00
   181 Broy./Diag. 0.40E+00   23.1     1.76671430     -1077.9312741865 -1.09E+00
   182 Broy./Diag. 0.40E+00   23.8     1.63977152     -1078.2140964135 -2.83E-01
   183 Broy./Diag. 0.40E+00   23.8     1.75882888     -1080.7555651386 -2.54E+00
   184 Broy./Diag. 0.40E+00   22.9     1.88007409     -1074.2265907540  6.53E+00
   185 Broy./Diag. 0.40E+00   21.8     1.56085547     -1073.5826401739  6.44E-01
   186 Broy./Diag. 0.40E+00   24.1     1.36994170     -1073.1665406473  4.16E-01
   187 Broy./Diag. 0.40E+00   22.9     1.32416991     -1074.1342959892 -9.68E-01
   188 Broy./Diag. 0.40E+00   22.6     1.35062330     -1077.4410243729 -3.31E+00
   189 Broy./Diag. 0.40E+00   23.4     1.39419689     -1076.1590313469  1.28E+00
   190 Broy./Diag. 0.40E+00   22.7     1.73173068     -1077.8713597327 -1.71E+00
   191 Broy./Diag. 0.40E+00   23.7     1.80722521     -1074.7349329619  3.14E+00
   192 Broy./Diag. 0.40E+00   23.2     1.84833999     -1076.6937003831 -1.96E+00
   193 Broy./Diag. 0.40E+00   23.8     1.77066820     -1074.8481509853  1.85E+00
   194 Broy./Diag. 0.40E+00   24.3     1.82218904     -1074.6532401530  1.95E-01
   195 Broy./Diag. 0.40E+00   23.5     1.47018453     -1074.9541546836 -3.01E-01
   196 Broy./Diag. 0.40E+00   24.4     1.32111342     -1074.5930774312  3.61E-01
   197 Broy./Diag. 0.40E+00   24.5     1.43116566     -1079.6235571023 -5.03E+00
   198 Broy./Diag. 0.40E+00   23.3     1.70402199     -1075.1231686444  4.50E+00
   199 Broy./Diag. 0.40E+00   24.1     1.74190301     -1078.3312489030 -3.21E+00
   200 Broy./Diag. 0.40E+00   23.9     1.02344396     -1073.3045991411  5.03E+00
   201 Broy./Diag. 0.40E+00   24.8     1.59525722     -1072.6134618158  6.91E-01
   202 Broy./Diag. 0.40E+00   23.7     1.79438105     -1081.3665443536 -8.75E+00
   203 Broy./Diag. 0.40E+00   23.7     1.74980506     -1076.9075703761  4.46E+00
   204 Broy./Diag. 0.40E+00   23.6     1.82572620     -1075.2708176496  1.64E+00
   205 Broy./Diag. 0.40E+00   21.9     1.73553123     -1074.4084262763  8.62E-01
   206 Broy./Diag. 0.40E+00   23.8     1.77688319     -1074.9426819514 -5.34E-01
   207 Broy./Diag. 0.40E+00   24.4     1.62311168     -1080.0764412483 -5.13E+00
   208 Broy./Diag. 0.40E+00   24.2     1.24802050     -1073.4784098191  6.60E+00
   209 Broy./Diag. 0.40E+00   24.2     1.39213241     -1074.6947830822 -1.22E+00
   210 Broy./Diag. 0.40E+00   23.3     1.71524378     -1076.3476079695 -1.65E+00
   211 Broy./Diag. 0.40E+00   23.5     1.70620847     -1078.8937154875 -2.55E+00
   212 Broy./Diag. 0.40E+00   25.5     1.06973550     -1072.9913205391  5.90E+00
   213 Broy./Diag. 0.40E+00   24.8     1.71855806     -1076.7963950700 -3.81E+00
   214 Broy./Diag. 0.40E+00   23.8     1.80380286     -1076.6984119510  9.80E-02
   215 Broy./Diag. 0.40E+00   23.9     1.36591552     -1075.7395518459  9.59E-01
   216 Broy./Diag. 0.40E+00   24.7     1.58168794     -1073.4301880863  2.31E+00
   217 Broy./Diag. 0.40E+00   24.1     1.64921312     -1081.0810051107 -7.65E+00
   218 Broy./Diag. 0.40E+00   23.4     1.26240604     -1074.0531863099  7.03E+00
   219 Broy./Diag. 0.40E+00   23.7     1.74070365     -1076.4220787822 -2.37E+00
   220 Broy./Diag. 0.40E+00   24.8     1.77719381     -1078.3212106290 -1.90E+00
   221 Broy./Diag. 0.40E+00   23.9     1.62527594     -1073.8109144948  4.51E+00
   222 Broy./Diag. 0.40E+00   24.1     1.75907545     -1078.0067491244 -4.20E+00
   223 Broy./Diag. 0.40E+00   23.5     1.73405618     -1077.1638874664  8.43E-01
   224 Broy./Diag. 0.40E+00   22.0     1.80702171     -1075.8228861383  1.34E+00
   225 Broy./Diag. 0.40E+00   23.5     1.09884786     -1075.3658763725  4.57E-01
   226 Broy./Diag. 0.40E+00   23.7     1.40312900     -1072.9280335277  2.44E+00
   227 Broy./Diag. 0.40E+00   23.6     1.37482198     -1081.2063284899 -8.28E+00
   228 Broy./Diag. 0.40E+00   23.4     1.32205715     -1074.7832995464  6.42E+00
   229 Broy./Diag. 0.40E+00   23.1     1.71362917     -1075.7002692087 -9.17E-01
   230 Broy./Diag. 0.40E+00   23.4     1.75082233     -1077.8778119767 -2.18E+00
   231 Broy./Diag. 0.40E+00   23.2     1.59065514     -1078.0030541937 -1.25E-01
   232 Broy./Diag. 0.40E+00   23.4     1.53953408     -1076.9404554410  1.06E+00
   233 Broy./Diag. 0.40E+00   23.5     1.74647353     -1076.5846056129  3.56E-01
   234 Broy./Diag. 0.40E+00   24.0     1.83705337     -1077.3162604442 -7.32E-01
   235 Broy./Diag. 0.40E+00   24.1     1.15970844     -1074.8219115652  2.49E+00
   236 Broy./Diag. 0.40E+00   23.8     1.73761014     -1072.0626521156  2.76E+00
   237 Broy./Diag. 0.40E+00   23.7     1.78654676     -1079.8937187997 -7.83E+00
   238 Broy./Diag. 0.40E+00   24.9     1.77208542     -1077.8345506049  2.06E+00
   239 Broy./Diag. 0.40E+00   24.0     1.47989588     -1076.6669130621  1.17E+00
   240 Broy./Diag. 0.40E+00   23.8     1.49924023     -1076.4895715931  1.77E-01
   241 Broy./Diag. 0.40E+00   24.0     1.04435440     -1073.7234428027  2.77E+00
   242 Broy./Diag. 0.40E+00   23.4     1.07106645     -1073.4571325556  2.66E-01
   243 Broy./Diag. 0.40E+00   23.4     1.31030441     -1076.6060042173 -3.15E+00
   244 Broy./Diag. 0.40E+00   24.0     1.75106728     -1075.9749737012  6.31E-01
   245 Broy./Diag. 0.40E+00   25.2     1.76420348     -1074.3047335695  1.67E+00
   246 Broy./Diag. 0.40E+00   22.9     1.76672616     -1078.8713219617 -4.57E+00
   247 Broy./Diag. 0.40E+00   24.5     1.79321457     -1076.0346657669  2.84E+00
   248 Broy./Diag. 0.40E+00   24.8     1.14112226     -1071.6605088202  4.37E+00
   249 Broy./Diag. 0.40E+00   24.5     1.26799301     -1077.3367077597 -5.68E+00
   250 Broy./Diag. 0.40E+00   23.8     1.50291041     -1074.7813011465  2.56E+00
   251 Broy./Diag. 0.40E+00   23.6     1.60063026     -1076.5750720110 -1.79E+00
   252 Broy./Diag. 0.40E+00   24.4     1.20452613     -1077.0971185979 -5.22E-01
   253 Broy./Diag. 0.40E+00   22.7     1.28269872     -1073.9459678586  3.15E+00
   254 Broy./Diag. 0.40E+00   21.8     1.74158665     -1076.9399725854 -2.99E+00
   255 Broy./Diag. 0.40E+00   23.8     1.78989653     -1076.5518081421  3.88E-01
   256 Broy./Diag. 0.40E+00   23.6     1.74229045     -1076.7756611859 -2.24E-01
   257 Broy./Diag. 0.40E+00   22.4     1.77798543     -1075.7176256192  1.06E+00
   258 Broy./Diag. 0.40E+00   23.6     1.58762900     -1075.6763753909  4.13E-02
   259 Broy./Diag. 0.40E+00   22.7     1.39858125     -1076.9000543104 -1.22E+00
   260 Broy./Diag. 0.40E+00   22.6     1.74080961     -1074.8282913961  2.07E+00
   261 Broy./Diag. 0.40E+00   23.8     1.78753886     -1077.6148017499 -2.79E+00
   262 Broy./Diag. 0.40E+00   24.4     1.02657054     -1075.2430816874  2.37E+00
   263 Broy./Diag. 0.40E+00   23.3     1.73296163     -1071.9578694309  3.29E+00
   264 Broy./Diag. 0.40E+00   24.3     1.79636685     -1081.2223434355 -9.26E+00
   265 Broy./Diag. 0.40E+00   23.7     1.81729432     -1078.3613186034  2.86E+00
   266 Broy./Diag. 0.40E+00   22.1     1.76225174     -1074.9753658560  3.39E+00
   267 Broy./Diag. 0.40E+00   23.3     1.80476002     -1075.0769913112 -1.02E-01
   268 Broy./Diag. 0.40E+00   23.2     1.51047413     -1072.0707691789  3.01E+00
   269 Broy./Diag. 0.40E+00   24.1     1.51247013     -1079.7393608802 -7.67E+00
   270 Broy./Diag. 0.40E+00   22.3     0.87626464     -1074.0015981045  5.74E+00
   271 Broy./Diag. 0.40E+00   22.3     1.57169785     -1076.6803812065 -2.68E+00
   272 Broy./Diag. 0.40E+00   20.6     1.65432096     -1076.0121511490  6.68E-01
   273 Broy./Diag. 0.40E+00   23.3     1.34870774     -1074.7576924383  1.25E+00
   274 Broy./Diag. 0.40E+00   24.5     1.75947093     -1077.9513251769 -3.19E+00
   275 Broy./Diag. 0.40E+00   23.0     1.79746603     -1078.5772642577 -6.26E-01
   276 Broy./Diag. 0.40E+00   23.6     1.73933758     -1074.0006774679  4.58E+00
   277 Broy./Diag. 0.40E+00   22.9     1.81004670     -1075.0962365681 -1.10E+00
   278 Broy./Diag. 0.40E+00   23.3     1.39422656     -1073.2294824005  1.87E+00
   279 Broy./Diag. 0.40E+00   21.8     1.65699824     -1077.7112050824 -4.48E+00
   280 Broy./Diag. 0.40E+00   24.7     1.74227880     -1078.7610334557 -1.05E+00
   281 Broy./Diag. 0.40E+00   25.1     1.79642447     -1075.3182143795  3.44E+00
   282 Broy./Diag. 0.40E+00   24.8     1.39560105     -1076.5976864872 -1.28E+00
   283 Broy./Diag. 0.40E+00   23.8     1.65966992     -1072.3005700466  4.30E+00
   284 Broy./Diag. 0.40E+00   24.0     1.76164587     -1079.7618868438 -7.46E+00
   285 Broy./Diag. 0.40E+00   24.8     1.37478717     -1076.0834783876  3.68E+00
   286 Broy./Diag. 0.40E+00   23.2     1.71996994     -1074.8699534302  1.21E+00
   287 Broy./Diag. 0.40E+00   23.3     1.81311062     -1075.7034037372 -8.33E-01
   288 Broy./Diag. 0.40E+00   23.9     1.52989746     -1074.4383462661  1.27E+00
   289 Broy./Diag. 0.40E+00   24.7     0.34127053     -1072.8970509830  1.54E+00
   290 Broy./Diag. 0.40E+00   21.5     1.74482006     -1075.2253884710 -2.33E+00
   291 Broy./Diag. 0.40E+00   22.2     1.76368210     -1080.6796538810 -5.45E+00
   292 Broy./Diag. 0.40E+00   20.8     1.32159389     -1074.6119948265  6.07E+00
   293 Broy./Diag. 0.40E+00   23.6     1.44048731     -1073.5919223407  1.02E+00
   294 Broy./Diag. 0.40E+00   23.6     1.63290979     -1081.8851766291 -8.29E+00
   295 Broy./Diag. 0.40E+00   23.4     1.39020267     -1076.7413166778  5.14E+00
   296 Broy./Diag. 0.40E+00   23.7     1.73155614     -1075.3989112259  1.34E+00
   297 Broy./Diag. 0.40E+00   23.9     1.78208456     -1076.9997325206 -1.60E+00
   298 Broy./Diag. 0.40E+00   22.7     1.66780717     -1074.8900878504  2.11E+00
   299 Broy./Diag. 0.40E+00   23.6     1.73510331     -1077.2281861581 -2.34E+00
   300 Broy./Diag. 0.40E+00   22.8     1.82847470     -1075.0901343026  2.14E+00

  Leaving inner SCF loop after reaching   300 steps.


  Electronic density on regular grids:       -512.0004881166       -0.0004881166
  Core density on regular grids:              511.9998493682       -0.0001506318
  Total charge density on r-space grids:       -0.0006387484
  Total charge density g-space grids:          -0.0006387484

  Overlap energy of the core charge distribution:               0.00000000000000
  Self energy of the core charge distribution:              -2838.21791979120962
  Core Hamiltonian energy:                                    760.63414765796836
  Hartree energy:                                            1240.77407019759744
  Exchange-correlation energy:                               -238.28043236697377

  Total energy:                                             -1075.09013430261780

 *** WARNING in qs_scf.F:542 :: SCF run NOT converged ***


 ENERGY| Total FORCE_EVAL ( QS ) energy (a.u.):            -1073.279206173730927


 ATOMIC FORCES in [a.u.]

 # Atom   Kind   Element          X              Y              Z
      1      1      O          -0.12303372     0.02553725    -0.10401460
      2      2      H           0.03263839    -0.07881277    -0.02516039
      3      2      H           0.06667763     0.06414823    -0.02764276
      4      1      O          -0.07950684    -0.10971378     0.15019495
      5      2      H          -0.00364685     0.04120104    -0.07411073
      6      2      H           0.09083461    -0.01451715     0.00010862
      7      1      O           0.01189762    -0.03840870    -0.02168746
      8      2      H           0.04956182     0.06771156    -0.00602446
      9      2      H          -0.03566782    -0.03487820     0.03494011
     10      1      O           0.01889357    -0.08458997    -0.17014474
     11      2      H           0.07746966     0.00404478     0.00928448
     12      2      H          -0.05754150     0.02176541     0.00622757
     13      1      O          -0.06531446     0.02193321    -0.02985974
     14      2      H          -0.02986274     0.05652775    -0.03448523
     15      2      H           0.07669193    -0.05367929    -0.02201082
     16      1      O           0.03489851     0.03980416    -0.07705502
     17      2      H           0.05927764     0.00350948     0.06314607
     18      2      H          -0.05564116    -0.05306924     0.00487268
     19      1      O           0.01645806    -0.12664131    -0.09132871
     20      2      H          -0.01220751    -0.00217740    -0.03103070
     21      2      H          -0.00907611     0.02346057    -0.02122437
     22      1      O          -0.02766017    -0.09990683     0.13914374
     23      2      H          -0.02418702     0.06423847    -0.01495330
     24      2      H           0.05919748    -0.02870039    -0.04650569
     25      1      O           0.03592548     0.11028631    -0.03922352
     26      2      H           0.01168316    -0.02410948     0.00409136
     27      2      H          -0.06161537    -0.00769002    -0.03119977
     28      1      O          -0.01599141     0.08716343     0.07461187
     29      2      H          -0.04336479    -0.03047666     0.07941075
     30      2      H           0.03078253    -0.07528622    -0.03207942
     31      1      O           0.00411493    -0.00950903     0.12122133
     32      2      H          -0.01609839     0.05660777    -0.01256030
     33      2      H          -0.00756159    -0.05641985    -0.04126826
     34      1      O          -0.07916898    -0.06971633    -0.13233008
     35      2      H           0.03021829    -0.06516374     0.06140551
     36      2      H           0.01908463     0.07009490    -0.00843300
     37      1      O          -0.03327295     0.08851369     0.08736867
     38      2      H           0.00276198    -0.06731163     0.00317570
     39      2      H           0.00115626     0.02252269    -0.08956298
     40      1      O           0.02791262    -0.02880736    -0.07658762
     41      2      H           0.05284625     0.08184511    -0.01634801
     42      2      H          -0.05623460     0.04539717     0.03599871
     43      1      O           0.02383877     0.02836358    -0.01563513
     44      2      H          -0.09056902     0.02661903    -0.05393947
     45      2      H           0.06633420     0.00957184     0.00409115
     46      1      O           0.02609529    -0.12748493    -0.06985822
     47      2      H          -0.04039816     0.05550021    -0.05873868
     48      2      H           0.04156860    -0.01607885     0.08869257
     49      1      O           0.00787497    -0.03596633    -0.00609441
     50      2      H          -0.06004844    -0.02071471    -0.04285169
     51      2      H           0.03005735     0.07738556    -0.00066270
     52      1      O           0.03534672    -0.14659145    -0.10291752
     53      2      H          -0.05391296     0.05880185     0.07061063
     54      2      H           0.03523463     0.06730301    -0.02866931
     55      1      O          -0.10655777    -0.09941007    -0.11316041
     56      2      H           0.06934704    -0.03528375     0.04043713
     57      2      H           0.02424407     0.07588201     0.00319786
     58      1      O           0.07152482     0.04827288     0.10713694
     59      2      H          -0.05272049     0.03396535     0.02693512
     60      2      H          -0.00451490    -0.04621669    -0.02496335
     61      1      O          -0.06360243    -0.00111342    -0.05175513
     62      2      H           0.00772338    -0.08790943     0.03187255
     63      2      H           0.03286353     0.03530495     0.08484701
     64      1      O           0.01377849    -0.03717462    -0.09405778
     65      2      H           0.02337628     0.06125761    -0.05092244
     66      2      H          -0.01968462    -0.03661020     0.06557319
     67      1      O           0.06577773    -0.04531722    -0.04022499
     68      2      H          -0.05851537     0.02069269     0.01650675
     69      2      H           0.00019498    -0.02422090    -0.06756748
     70      1      O          -0.07929003    -0.08405234    -0.01281426
     71      2      H           0.08157155    -0.01644425     0.02147629
     72      2      H          -0.01103044    -0.00467777     0.04794011
     73      1      O           0.01174254    -0.00825298     0.06138725
     74      2      H          -0.03317831     0.04664065     0.01387848
     75      2      H          -0.01179824    -0.01511010    -0.02035967
     76      1      O           0.02272880     0.07875111    -0.01180982
     77      2      H          -0.00308411    -0.02280069    -0.05334364
     78      2      H          -0.00026768    -0.02631704    -0.00207628
     79      1      O           0.01828734    -0.05951212    -0.17755514
     80      2      H           0.05990802    -0.03166203     0.04274727
     81      2      H          -0.07529373     0.00743625     0.04204793
     82      1      O          -0.02476385     0.02014438     0.05096348
     83      2      H          -0.03815724    -0.06341301     0.07206249
     84      2      H           0.06281702    -0.03627560    -0.00338617
     85      1      O          -0.11427842    -0.03027165     0.02456934
     86      2      H           0.06632967     0.00374643    -0.03504586
     87      2      H           0.03613261    -0.01227240     0.06281017
     88      1      O          -0.00950010     0.10756865    -0.19122110
     89      2      H          -0.05237384    -0.01859442     0.06359088
     90      2      H           0.08060648    -0.04902036     0.02775919
     91      1      O           0.02528400     0.03863939    -0.13534158
     92      2      H           0.03203224     0.03646557     0.04068615
     93      2      H          -0.07847655    -0.01363070     0.01394217
     94      1      O          -0.07506655     0.06668938     0.11190226
     95      2      H          -0.01364845    -0.04964103    -0.03535292
     96      2      H           0.09544945    -0.01048239    -0.00274534
     97      1      O          -0.03092594     0.01986208    -0.11962194
     98      2      H           0.06754959     0.00745480    -0.00587200
     99      2      H          -0.01604907     0.07237417     0.05531982
    100      1      O           0.01688671    -0.07193823     0.02010160
    101      2      H          -0.05455334    -0.01732911     0.00999661
    102      2      H           0.00389962     0.05115224    -0.05947453
    103      1      O          -0.05995243     0.11194313     0.07621471
    104      2      H          -0.03203419    -0.09611414    -0.01663251
    105      2      H           0.08447787     0.03902708    -0.02154001
    106      1      O           0.06776676    -0.02593581     0.13428135
    107      2      H          -0.03754840     0.03508847    -0.03314252
    108      2      H          -0.03872348    -0.04793430     0.01853259
    109      1      O           0.05784219     0.05592417    -0.00502806
    110      2      H          -0.00297880     0.00776933    -0.09426246
    111      2      H          -0.06918185    -0.02407922     0.07135530
    112      1      O          -0.07971474    -0.00575636    -0.07771411
    113      2      H           0.03751289     0.09743982    -0.02747691
    114      2      H           0.02955544    -0.03673081    -0.05093225
    115      1      O          -0.02766269    -0.07588456    -0.09047995
    116      2      H           0.08038797     0.04043234     0.00840235
    117      2      H          -0.05608863     0.05891183    -0.04021678
    118      1      O          -0.02042080     0.09148443    -0.05968081
    119      2      H           0.03716318    -0.08937984    -0.02590013
    120      2      H           0.01533747     0.04710397    -0.04964430
    121      1      O          -0.07145571     0.13149619     0.01711808
    122      2      H           0.03779366    -0.08562839    -0.08263211
    123      2      H           0.03631209    -0.04017729     0.02779058
    124      1      O           0.04041768     0.10966837    -0.04534032
    125      2      H          -0.00190781     0.00792002    -0.08906864
    126      2      H          -0.02558042    -0.08881566     0.02170988
    127      1      O          -0.05601978    -0.04224736     0.00300051
    128      2      H           0.01709219     0.00177993     0.04457939
    129      2      H           0.03740263    -0.08303331    -0.04187372
    130      1      O           0.03190542     0.04213721    -0.04952586
    131      2      H          -0.03523460     0.06992163    -0.03933711
    132      2      H           0.01740887    -0.00489651     0.05219342
    133      1      O          -0.06639532     0.06346397     0.02016640
    134      2      H           0.02787967     0.02525214    -0.03520523
    135      2      H           0.03412507    -0.07370812     0.08911264
    136      1      O          -0.00427963     0.00392447    -0.16005775
    137      2      H           0.01087695    -0.04686501     0.02895756
    138      2      H           0.01614492     0.00069674     0.07906193
    139      1      O           0.04900732     0.06404793    -0.00872376
    140      2      H           0.03018282     0.04394728    -0.04862024
    141      2      H          -0.07974137    -0.05005261     0.01936883
    142      1      O           0.05331375     0.13269991    -0.15198357
    143      2      H          -0.06615311    -0.05212842     0.03236700
    144      2      H           0.01116427    -0.04189770     0.10575832
    145      1      O           0.06097666     0.04480312     0.12985152
    146      2      H           0.03190491    -0.06196544     0.01723719
    147      2      H          -0.06258882     0.03089608    -0.00981681
    148      1      O          -0.03164818    -0.01503524     0.05292904
    149      2      H           0.04489864     0.02583088     0.03779531
    150      2      H           0.03259241    -0.09442457     0.01872638
    151      1      O          -0.03244783    -0.05880557    -0.05252856
    152      2      H           0.00186890    -0.01497973    -0.01064016
    153      2      H           0.01885215    -0.02504431    -0.03670459
    154      1      O          -0.05981456    -0.10112829    -0.08779679
    155      2      H           0.04693831     0.03988598     0.00200803
    156      2      H           0.03168770    -0.03345288    -0.07216491
    157      1      O          -0.06425185    -0.00478694    -0.07261649
    158      2      H           0.04057284    -0.06444590     0.01250133
    159      2      H           0.01938806     0.06264149     0.02946970
    160      1      O           0.00953048    -0.01076233     0.06431705
    161      2      H           0.02653045    -0.00371946    -0.01672142
    162      2      H          -0.02549383    -0.00244710     0.01510231
    163      1      O          -0.05118313    -0.03664650     0.02554425
    164      2      H           0.00635732     0.05321649     0.09005743
    165      2      H           0.03565697    -0.07738618     0.02419905
    166      1      O          -0.04129790    -0.12217470    -0.08387630
    167      2      H          -0.00354954     0.02953901     0.05975757
    168      2      H           0.02692170     0.09420817    -0.01053581
    169      1      O           0.04517406     0.05729688    -0.01210508
    170      2      H          -0.05065574    -0.00562610    -0.03865565
    171      2      H          -0.01439160     0.04203188     0.06405556
    172      1      O          -0.05315651    -0.00915969     0.10595311
    173      2      H          -0.04112589     0.02694718    -0.03150755
    174      2      H           0.06030148     0.02497435     0.00376737
    175      1      O          -0.05411721     0.00599904    -0.09395654
    176      2      H          -0.06339623     0.00801874     0.02262192
    177      2      H           0.08633682     0.05070645    -0.01057643
    178      1      O          -0.12468172     0.04070685     0.17387156
    179      2      H           0.01727124     0.02609881    -0.14801621
    180      2      H           0.08807025    -0.08617047     0.00613688
    181      1      O           0.05611336     0.00020975     0.02481183
    182      2      H          -0.05915949    -0.04880140    -0.02542091
    183      2      H           0.00100083     0.04488496    -0.03679806
    184      1      O          -0.01671978     0.11306411     0.01364355
    185      2      H          -0.02642326    -0.05758033    -0.08198999
    186      2      H           0.05615530    -0.01763270    -0.01476449
    187      1      O          -0.12041473    -0.04940503     0.23746211
    188      2      H           0.02596007    -0.03774910    -0.07373309
    189      2      H           0.08552661     0.09475572     0.00108501
    190      1      O          -0.04491063     0.05023735    -0.05463350
    191      2      H          -0.00803308    -0.06370735    -0.01763289
    192      2      H           0.02610741     0.04136965     0.04213965
 SUM OF ATOMIC FORCES          -0.07829376    -0.23311700    -1.07978185     1.10743049

 -------------------------------------------------------------------------------
 -                                                                             -
 -                                DBCSR STATISTICS                             -
 -                                                                             -
 -------------------------------------------------------------------------------
 COUNTER                                    TOTAL       BLAS       SMM       ACC
 flops     5 x     5 x   256           3598515200       0.0%    100.0%      0.0%
 flops    13 x     5 x   256           4247326720       0.0%    100.0%      0.0%
 flops     5 x    13 x   256           4347499520       0.0%    100.0%      0.0%
 flops    13 x    13 x   256           6068468224       0.0%    100.0%      0.0%
 flops inhomo. stacks                           0       0.0%      0.0%      0.0%
 flops total                        18.261810E+09       0.0%    100.0%      0.0%
 flops max/rank                     18.261810E+09       0.0%    100.0%      0.0%
 matmuls inhomo. stacks                         0       0.0%      0.0%      0.0%
 matmuls total                             609525       0.0%    100.0%      0.0%
 number of processed stacks                 42140       0.0%    100.0%      0.0%
 average stack size                                     0.0      14.5       0.0
 marketing flops                   333.927416E+09
 -------------------------------------------------------------------------------
 # multiplications                            301
 max memory usage/rank              30.522257E+09
 # max total images/rank                        1
 # max 3D layers                                1
 # MPI messages exchanged                       0
 MPI messages size (bytes):
  total size                         0.000000E+00
  min size                           0.000000E+00
  max size                           0.000000E+00
  average size                       0.000000E+00
 MPI breakdown and total messages size (bytes):
             size <=      128                   0                        0
       128 < size <=     8192                   0                        0
      8192 < size <=    32768                   0                        0
     32768 < size <=   131072                   0                        0
    131072 < size <=  4194304                   0                        0
   4194304 < size <= 16777216                   0                        0
  16777216 < size                               0                        0
 -------------------------------------------------------------------------------

 MEMORY| Estimated peak process memory [MiB]                               29106

 -------------------------------------------------------------------------------
 -                                                                             -
 -                           R E F E R E N C E S                               -
 -                                                                             -
 -------------------------------------------------------------------------------
 
 CP2K version 7.1, the CP2K developers group (2019).
 CP2K is freely available from https://www.cp2k.org/ .

 Schuett, Ole; Messmer, Peter; Hutter, Juerg; VandeVondele, Joost. 
 Electronic Structure Calculations on Graphics Processing Units, John
 Wiley & Sons, Ltd, 173-190 (2016). 
 GPU-Accelerated Sparse Matrix-Matrix Multiplication for
 Linear Scaling Density Functional Theory.
 https://dx.doi.org/10.1002/9781118670712.ch8

 Borstnik, U; VandeVondele, J; Weber, V; Hutter, J. 
 PARALLEL COMPUTING, 40 (5-6), 47-58 (2014). 
 Sparse matrix multiplication: The distributed block-compressed sparse
 row library.
 https://dx.doi.org/10.1016/j.parco.2014.03.012

 Hutter, J; Iannuzzi, M; Schiffmann, F; VandeVondele, J. 
 WIREs Comput Mol Sci., 4 (1), 15-25 (2014). 
 CP2K: atomistic simulations of condensed matter systems.
 https://dx.doi.org/10.1002/wcms.1159

 Krack, M. 
 THEORETICAL CHEMISTRY ACCOUNTS, 114 (1-3), 145-152 (2005). 
 Pseudopotentials for H to Kr optimized for gradient-corrected
 exchange-correlation functionals.
 https://dx.doi.org/10.1007/s00214-005-0655-y

 VandeVondele, J; Krack, M; Mohamed, F; Parrinello, M; Chassaing, T;
 Hutter, J. COMPUTER PHYSICS COMMUNICATIONS, 167 (2), 103-128 (2005). 
 QUICKSTEP: Fast and accurate density functional calculations using a
 mixed Gaussian and plane waves approach.
 https://dx.doi.org/10.1016/j.cpc.2004.12.014

 Frigo, M; Johnson, SG. 
 PROCEEDINGS OF THE IEEE, 93 (2), 216-231 (2005). 
 The design and implementation of FFTW3.
 https://dx.doi.org/10.1109/JPROC.2004.840301

 Hartwigsen, C; Goedecker, S; Hutter, J. 
 PHYSICAL REVIEW B, 58 (7), 3641-3662 (1998). 
 Relativistic separable dual-space Gaussian pseudopotentials from H to Rn.
 https://dx.doi.org/10.1103/PhysRevB.58.3641

 Lippert, G; Hutter, J; Parrinello, M. 
 MOLECULAR PHYSICS, 92 (3), 477-487 (1997). 
 A hybrid Gaussian and plane wave density functional scheme.
 https://dx.doi.org/10.1080/002689797170220

 Goedecker, S; Teter, M; Hutter, J. 
 PHYSICAL REVIEW B, 54 (3), 1703-1710 (1996). 
 Separable dual-space Gaussian pseudopotentials.
 https://dx.doi.org/10.1103/PhysRevB.54.1703


 -------------------------------------------------------------------------------
 -                                                                             -
 -                                T I M I N G                                  -
 -                                                                             -
 -------------------------------------------------------------------------------
 SUBROUTINE                       CALLS  ASD         SELF TIME        TOTAL TIME
                                MAXIMUM       AVERAGE  MAXIMUM  AVERAGE  MAXIMUM
 CP2K                                 1  1.0    1.003    1.003 7004.284 7004.284
 qs_forces                            1  2.0    0.000    0.000 6993.246 6993.246
 qs_energies                          1  3.0    0.000    0.000 6989.658 6989.658
 scf_env_do_scf                       1  4.0    0.001    0.001 6978.436 6978.436
 scf_env_do_scf_inner_loop          300  5.0    0.050    0.050 6978.435 6978.435
 gspace_mixing                      299  6.0   42.325   42.325 2947.072 2947.072
 broyden_mixing                     299  7.0 2663.738 2663.738 2663.742 2663.742
 qs_scf_new_mos                     300  6.0    0.009    0.009 1947.062 1947.062
 eigensolver                        300  7.0    0.038    0.038 1915.588 1915.588
 cp_fm_syevd                        300  8.0 1277.677 1277.677 1278.811 1278.811
 pw_transfer                       3912  9.9    0.378    0.378 1125.372 1125.372
 fft_wrap_pw1pw2                   3310 10.9    0.056    0.056 1099.327 1099.327
 rebuild_ks_matrix                  301  7.0    0.001    0.001 1095.807 1095.807
 qs_ks_build_kohn_sham_matrix       301  8.0    0.086    0.086 1095.806 1095.806
 qs_ks_update_qs_env                300  6.0    0.004    0.004 1092.576 1092.576
 fft_wrap_pw1pw2_70                1504 11.2   87.192   87.192 1010.751 1010.751
 qs_rho_update_rho                  301  6.0    0.003    0.003  992.582  992.582
 calculate_rho_elec                 301  7.0  474.424  474.424  992.579  992.579
 cp_fm_cholesky_restore             900  8.0  635.678  635.678  635.678  635.678
 fft3d_s                           3311 12.9  518.321  518.321  518.349  518.349
 density_rs2pw                      301  8.0    0.031    0.031  510.637  510.637
 pw_scatter_s                      1804 13.2  410.234  410.234  410.234  410.234
 pw_poisson_solve                   301  9.0  335.727  335.727  361.743  361.743
 sum_up_and_integrate               301  9.0   18.576   18.576  287.769  287.769
 integrate_v_rspace                 301 10.0    7.680    7.680  269.192  269.192
 potential_pw2rs                    301 11.0    2.497    2.497  260.362  260.362
 qs_vxc_create                      301  9.0    0.007    0.007  160.726  160.726
 xc_vxc_pw_create                   301 10.0   42.287   42.287  160.718  160.718
 -------------------------------------------------------------------------------

 The number of warnings for this run is : 1
 
 -------------------------------------------------------------------------------
  **** **** ******  **  PROGRAM ENDED AT                 2020-05-28 09:29:18.918
 ***** ** ***  *** **   PROGRAM RAN ON                                   gnode44
 **    ****   ******    PROGRAM RAN BY                               mayank.modi
 ***** **    ** ** **   PROGRAM PROCESS ID                                 11355
  **** **  *******  **  PROGRAM STOPPED IN /home/mayank.modi/ab-initio-thermodyn
                                           amics-of-water/mayank/cp2k_energy_cal
                                           culations
