 DBCSR| CPU Multiplication driver                                           XSMM
 DBCSR| Multrec recursion limit                                              512
 DBCSR| Multiplication stack size                                           1000
 DBCSR| Maximum elements for images                                    UNLIMITED
 DBCSR| Multiplicative factor virtual images                                   1
 DBCSR| Use multiplication densification                                       T
 DBCSR| Multiplication size stacks                                             3


  **** **** ******  **  PROGRAM STARTED AT               2020-05-29 13:06:48.517
 ***** ** ***  *** **   PROGRAM STARTED ON                               gnode44
 **    ****   ******    PROGRAM STARTED BY                           mayank.modi
 ***** **    ** ** **   PROGRAM PROCESS ID                                 33345
  **** **  *******  **  PROGRAM STARTED IN /home/mayank.modi/ab-initio-thermodyn
                                           amics-of-water/mayank/cp2k_energy_cal
                                           culations

 CP2K| version string:                                          CP2K version 7.1
 CP2K| source code revision number:                                  git:e635599
 CP2K| cp2kflags: omp libint fftw3 libxc xsmm spglib                            
 CP2K| is freely available from                            https://www.cp2k.org/
 CP2K| Program compiled at                          Mon Dec 23 19:23:12 CET 2019
 CP2K| Program compiled on                                                pc9404
 CP2K| Program compiled for                                Linux-x86-64-gfortran
 CP2K| Data directory path                                        /opt/cp2k/data
 CP2K| Input file name                                 input_training/input35.in

 GLOBAL| Force Environment number                                              1
 GLOBAL| Basis set file name                                           BASIS_SET
 GLOBAL| Potential file name                                      GTH_POTENTIALS
 GLOBAL| MM Potential file name                                     MM_POTENTIAL
 GLOBAL| Coordinate file name                                      __STD_INPUT__
 GLOBAL| Method name                                                        CP2K
 GLOBAL| Project name                                                   H2O_bulk
 GLOBAL| Preferred FFT library                                             FFTW3
 GLOBAL| Preferred diagonalization lib.                                       SL
 GLOBAL| Run type                                                   ENERGY_FORCE
 GLOBAL| All-to-all communication in single precision                          F
 GLOBAL| FFTs using library dependent lengths                                  F
 GLOBAL| Global print level                                                  LOW
 GLOBAL| MPI I/O enabled                                                       T
 GLOBAL| Total number of message passing processes                             1
 GLOBAL| Number of threads for this process                                   36
 GLOBAL| This output is from process                                           0
 GLOBAL| CPU model name                Intel(R) Xeon(R) CPU E5-2640 v4 @ 2.40GHz
 GLOBAL| CPUID                                                              1002
 GLOBAL| Compiled for CPUID                                                    0

 MEMORY| system memory details [Kb]
 MEMORY|                        rank 0           min           max       average
 MEMORY| MemTotal            131893056     131893056     131893056     131893056
 MEMORY| MemFree             119087452     119087452     119087452     119087452
 MEMORY| Buffers               2125052       2125052       2125052       2125052
 MEMORY| Cached                3182656       3182656       3182656       3182656
 MEMORY| Slab                  3312172       3312172       3312172       3312172
 MEMORY| SReclaimable          3101168       3101168       3101168       3101168
 MEMORY| MemLikelyFree       127496328     127496328     127496328     127496328


 GENERATE| WARNING:: No connections detected for Hydrogen - Atom Nr:       162 !
 GENERATE|  Preliminary Number of Bonds generated:                             0
 GENERATE|  Achieved consistency in connectivity generation.

 *******************************************************************************
 *******************************************************************************
 **                                                                           **
 **     #####                         ##              ##                      **
 **    ##   ##            ##          ##              ##                      **
 **   ##     ##                       ##            ######                    **
 **   ##     ##  ##   ##  ##   #####  ##  ##   ####   ##    #####    #####    **
 **   ##     ##  ##   ##  ##  ##      ## ##   ##      ##   ##   ##  ##   ##   **
 **   ##  ## ##  ##   ##  ##  ##      ####     ###    ##   ######   ######    **
 **    ##  ###   ##   ##  ##  ##      ## ##      ##   ##   ##       ##        **
 **     #######   #####   ##   #####  ##  ##  ####    ##    #####   ##        **
 **           ##                                                    ##        **
 **                                                                           **
 **                                                ... make the atoms dance   **
 **                                                                           **
 **            Copyright (C) by CP2K developers group (2000 - 2019)           **
 **                                                                           **
 *******************************************************************************


 TOTAL NUMBERS AND MAXIMUM NUMBERS

  Total number of            - Atomic kinds:                                   2
                             - Atoms:                                        192
                             - Shell sets:                                   384
                             - Shells:                                       704
                             - Primitive Cartesian functions:                960
                             - Cartesian basis functions:                   1536
                             - Spherical basis functions:                   1472

  Maximum angular momentum of- Orbital basis functions:                        2
                             - Local part of the GTH pseudopotential:          2
                             - Non-local part of the GTH pseudopotential:      0


 SCF PARAMETERS         Density guess:                                    ATOMIC
                        --------------------------------------------------------
                        max_scf:                                             300
                        max_scf_history:                                       0
                        max_diis:                                              4
                        --------------------------------------------------------
                        eps_scf:                                        1.00E-07
                        eps_scf_history:                                0.00E+00
                        eps_diis:                                       1.00E-01
                        eps_eigval:                                     1.00E-05
                        --------------------------------------------------------
                        level_shift [a.u.]:                                 0.00
                        --------------------------------------------------------
                        Mixing method:                            BROYDEN_MIXING
                                                charge density mixing in g-space
                        --------------------------------------------------------
                        No outer SCF

 Number of electrons:                                                        512
 Number of occupied orbitals:                                                256
 Number of molecular orbitals:                                               256

 Number of orbital functions:                                               1472
 Number of independent orbital functions:                                   1472

 Extrapolation method: initial_guess


 SCF WAVEFUNCTION OPTIMIZATION

  Step     Update method      Time    Convergence         Total energy    Change
  ------------------------------------------------------------------------------
     1 NoMix/Diag. 0.40E+00   11.0     0.68788751     -1064.1327301011 -1.06E+03
     2 Broy./Diag. 0.40E+00   16.1     1.93107960      -996.2951430248  6.78E+01
     3 Broy./Diag. 0.40E+00   17.2     1.95050186     -1262.7092788853 -2.66E+02
     4 Broy./Diag. 0.40E+00   17.2     1.55722449     -1116.0175039869  1.47E+02
     5 Broy./Diag. 0.40E+00   18.7     1.61142515     -1098.3465666227  1.77E+01
     6 Broy./Diag. 0.40E+00   18.9     1.82027516     -1097.8661246428  4.80E-01
     7 Broy./Diag. 0.40E+00   19.8     1.43060014     -1094.4294429242  3.44E+00
     8 Broy./Diag. 0.40E+00   20.5     1.37393158     -1084.5960525681  9.83E+00
     9 Broy./Diag. 0.40E+00   21.9     1.38971330     -1076.6696912843  7.93E+00
    10 Broy./Diag. 0.40E+00   23.6     1.74519486     -1079.1058027199 -2.44E+00
    11 Broy./Diag. 0.40E+00   21.4     1.78937498     -1079.9397911283 -8.34E-01
    12 Broy./Diag. 0.40E+00   22.8     1.32774921     -1073.1740824835  6.77E+00
    13 Broy./Diag. 0.40E+00   22.0     1.51725588     -1075.4504634079 -2.28E+00
    14 Broy./Diag. 0.40E+00   22.9     1.56408390     -1076.6451355479 -1.19E+00
    15 Broy./Diag. 0.40E+00   24.1     1.53124753     -1072.9162497154  3.73E+00
    16 Broy./Diag. 0.40E+00   24.4     1.74405192     -1078.8840463638 -5.97E+00
    17 Broy./Diag. 0.40E+00   23.9     1.45406411     -1080.7060152154 -1.82E+00
    18 Broy./Diag. 0.40E+00   23.4     0.21256370     -1072.6258113384  8.08E+00
    19 Broy./Diag. 0.40E+00   24.1     1.70492636     -1074.2778539410 -1.65E+00
    20 Broy./Diag. 0.40E+00   24.8     1.71760986     -1076.5164278204 -2.24E+00
    21 Broy./Diag. 0.40E+00   24.7     1.32832610     -1076.6996913185 -1.83E-01
    22 Broy./Diag. 0.40E+00   24.7     1.27177623     -1075.0745642688  1.63E+00
    23 Broy./Diag. 0.40E+00   23.9     1.27030429     -1077.7477095693 -2.67E+00
    24 Broy./Diag. 0.40E+00   24.1     1.17986188     -1074.4740825183  3.27E+00
    25 Broy./Diag. 0.40E+00   24.6     1.01097864     -1076.4994956705 -2.03E+00
    26 Broy./Diag. 0.40E+00   24.5     1.76257377     -1078.5185986985 -2.02E+00
    27 Broy./Diag. 0.40E+00   24.7     1.26003009     -1078.9354897318 -4.17E-01
    28 Broy./Diag. 0.40E+00   23.9     1.25953771     -1075.2107487913  3.72E+00
    29 Broy./Diag. 0.40E+00   23.8     1.71988789     -1076.7151614485 -1.50E+00
    30 Broy./Diag. 0.40E+00   24.4     1.74049015     -1077.2056245464 -4.90E-01
    31 Broy./Diag. 0.40E+00   24.6     1.58848520     -1079.0626709390 -1.86E+00
    32 Broy./Diag. 0.40E+00   24.4     1.45484277     -1074.1236459286  4.94E+00
    33 Broy./Diag. 0.40E+00   23.9     1.32379445     -1077.9091978446 -3.79E+00
    34 Broy./Diag. 0.40E+00   25.3     1.32222723     -1078.5032824213 -5.94E-01
    35 Broy./Diag. 0.40E+00   24.5     1.42725301     -1076.7386959081  1.76E+00
    36 Broy./Diag. 0.40E+00   24.7     1.48547912     -1077.0420791304 -3.03E-01
    37 Broy./Diag. 0.40E+00   24.5     1.27894285     -1076.8744499430  1.68E-01
    38 Broy./Diag. 0.40E+00   24.8     1.35191452     -1077.2271481532 -3.53E-01
    39 Broy./Diag. 0.40E+00   24.4     1.71745561     -1077.0115321588  2.16E-01
    40 Broy./Diag. 0.40E+00   24.4     1.74471056     -1079.6805203990 -2.67E+00
    41 Broy./Diag. 0.40E+00   24.5     1.58418471     -1075.3532396898  4.33E+00
    42 Broy./Diag. 0.40E+00   24.7     1.60708276     -1075.1487378630  2.05E-01
    43 Broy./Diag. 0.40E+00   24.6     1.72094012     -1073.3917585282  1.76E+00
    44 Broy./Diag. 0.40E+00   24.6     1.79117496     -1079.7777091157 -6.39E+00
    45 Broy./Diag. 0.40E+00   24.5     1.06469130     -1078.8035057322  9.74E-01
    46 Broy./Diag. 0.40E+00   24.5     1.41223066     -1076.9681811472  1.84E+00
    47 Broy./Diag. 0.40E+00   24.7     1.32864888     -1073.7490007191  3.22E+00
    48 Broy./Diag. 0.40E+00   24.4     1.36940371     -1078.9299110228 -5.18E+00
    49 Broy./Diag. 0.40E+00   24.5     1.33114735     -1078.6431483726  2.87E-01
    50 Broy./Diag. 0.40E+00   23.9     1.39863485     -1077.6948778234  9.48E-01
    51 Broy./Diag. 0.40E+00   24.4     1.46506371     -1076.6652741360  1.03E+00
    52 Broy./Diag. 0.40E+00   23.2     1.36859800     -1076.5407300794  1.25E-01
    53 Broy./Diag. 0.40E+00   24.1     1.40602230     -1076.1397592528  4.01E-01
    54 Broy./Diag. 0.40E+00   24.1     1.32851737     -1075.8639596752  2.76E-01
    55 Broy./Diag. 0.40E+00   23.1     1.36899636     -1076.9832666246 -1.12E+00
    56 Broy./Diag. 0.40E+00   23.6     1.39052388     -1077.5583452453 -5.75E-01
    57 Broy./Diag. 0.40E+00   22.5     1.62345013     -1073.0393081721  4.52E+00
    58 Broy./Diag. 0.40E+00   22.3     1.62230133     -1079.3736164221 -6.33E+00
    59 Broy./Diag. 0.40E+00   24.0     1.70640883     -1073.8372929285  5.54E+00
    60 Broy./Diag. 0.40E+00   24.1     1.72335885     -1079.2164322358 -5.38E+00
    61 Broy./Diag. 0.40E+00   24.1     1.41088518     -1078.0040196960  1.21E+00
    62 Broy./Diag. 0.40E+00   24.3     1.38018590     -1076.1178492751  1.89E+00
    63 Broy./Diag. 0.40E+00   24.0     1.27481789     -1073.4363324083  2.68E+00
    64 Broy./Diag. 0.40E+00   24.4     1.31694293     -1078.8814896730 -5.45E+00
    65 Broy./Diag. 0.40E+00   24.3     1.24873312     -1077.7535348428  1.13E+00
    66 Broy./Diag. 0.40E+00   24.8     1.31085623     -1075.5374100596  2.22E+00
    67 Broy./Diag. 0.40E+00   24.4     1.77062319     -1076.8956394130 -1.36E+00
    68 Broy./Diag. 0.40E+00   24.1     1.11152400     -1079.2056058131 -2.31E+00
    69 Broy./Diag. 0.40E+00   24.5     1.70713010     -1076.7731166365  2.43E+00
    70 Broy./Diag. 0.40E+00   23.1     1.78114886     -1076.8876324977 -1.15E-01
    71 Broy./Diag. 0.40E+00   24.3     1.57574586     -1078.6977938055 -1.81E+00
    72 Broy./Diag. 0.40E+00   23.5     0.98374941     -1074.6760636275  4.02E+00
    73 Broy./Diag. 0.40E+00   23.9     1.05854854     -1075.8485643239 -1.17E+00
    74 Broy./Diag. 0.40E+00   24.2     1.51362438     -1077.2931007161 -1.44E+00
    75 Broy./Diag. 0.40E+00   23.9     1.53888580     -1079.4873493509 -2.19E+00
    76 Broy./Diag. 0.40E+00   24.1     1.40972587     -1079.1865990496  3.01E-01
    77 Broy./Diag. 0.40E+00   24.9     1.33403810     -1076.3266391882  2.86E+00
    78 Broy./Diag. 0.40E+00   22.0     1.75284099     -1073.8783738818  2.45E+00
    79 Broy./Diag. 0.40E+00   24.3     1.80088484     -1079.6780069280 -5.80E+00
    80 Broy./Diag. 0.40E+00   22.9     1.39779395     -1078.1528515003  1.53E+00
    81 Broy./Diag. 0.40E+00   24.1     1.46574502     -1078.2398983166 -8.70E-02
    82 Broy./Diag. 0.40E+00   24.0     1.29157024     -1073.2342881460  5.01E+00
    83 Broy./Diag. 0.40E+00   24.6     1.30550181     -1077.4298340592 -4.20E+00
    84 Broy./Diag. 0.40E+00   24.4     1.24844091     -1075.5986914488  1.83E+00
    85 Broy./Diag. 0.40E+00   23.4     1.13692446     -1076.7303928826 -1.13E+00
    86 Broy./Diag. 0.40E+00   24.5     1.29160904     -1076.7020012314  2.84E-02
    87 Broy./Diag. 0.40E+00   23.6     1.29156191     -1076.6694034268  3.26E-02
    88 Broy./Diag. 0.40E+00   23.4     1.27930456     -1075.2745192532  1.39E+00
    89 Broy./Diag. 0.40E+00   24.5     1.73097066     -1079.6370704080 -4.36E+00
    90 Broy./Diag. 0.40E+00   24.5     1.58695157     -1076.1819429106  3.46E+00
    91 Broy./Diag. 0.40E+00   25.1     1.60815139     -1078.6261348394 -2.44E+00
    92 Broy./Diag. 0.40E+00   25.2     1.33580690     -1073.1099489843  5.52E+00
    93 Broy./Diag. 0.40E+00   24.8     1.37276425     -1077.8440384371 -4.73E+00
    94 Broy./Diag. 0.40E+00   24.8     1.70702670     -1077.0910711646  7.53E-01
    95 Broy./Diag. 0.40E+00   24.5     1.76047757     -1077.5115984293 -4.21E-01
    96 Broy./Diag. 0.40E+00   24.7     1.51209129     -1075.6603585705  1.85E+00
    97 Broy./Diag. 0.40E+00   24.6     1.54485947     -1076.9848029511 -1.32E+00
    98 Broy./Diag. 0.40E+00   25.2     1.29515373     -1076.9755267652  9.28E-03
    99 Broy./Diag. 0.40E+00   24.8     1.29441626     -1074.5344106798  2.44E+00
   100 Broy./Diag. 0.40E+00   24.7     1.02552396     -1076.9106998227 -2.38E+00
   101 Broy./Diag. 0.40E+00   24.4     1.50641467     -1074.4372970210  2.47E+00
   102 Broy./Diag. 0.40E+00   25.1     1.74150885     -1079.6670078948 -5.23E+00
   103 Broy./Diag. 0.40E+00   25.0     1.78644704     -1079.1262056199  5.41E-01
   104 Broy./Diag. 0.40E+00   25.3     1.18434805     -1075.5628417083  3.56E+00
   105 Broy./Diag. 0.40E+00   22.9     1.24624399     -1072.9311395603  2.63E+00
   106 Broy./Diag. 0.40E+00   25.1     1.32799089     -1076.7917578535 -3.86E+00
   107 Broy./Diag. 0.40E+00   24.7     1.38121493     -1076.7518741808  3.99E-02
   108 Broy./Diag. 0.40E+00   24.9     1.32618011     -1076.5113388129  2.41E-01
   109 Broy./Diag. 0.40E+00   25.0     1.37241448     -1076.7667649273 -2.55E-01
   110 Broy./Diag. 0.40E+00   24.4     1.51247459     -1076.3926246380  3.74E-01
   111 Broy./Diag. 0.40E+00   24.0     1.56533587     -1075.8743235703  5.18E-01
   112 Broy./Diag. 0.40E+00   24.6     1.56530179     -1079.3394291725 -3.47E+00
   113 Broy./Diag. 0.40E+00   25.2     1.45257899     -1073.7912179189  5.55E+00
   114 Broy./Diag. 0.40E+00   23.0     1.68097268     -1079.5056799268 -5.71E+00
   115 Broy./Diag. 0.40E+00   24.3     1.75297938     -1079.2022414867  3.03E-01
   116 Broy./Diag. 0.40E+00   24.8     1.39964662     -1076.4077877219  2.79E+00
   117 Broy./Diag. 0.40E+00   24.5     1.35520718     -1073.5306980326  2.88E+00
   118 Broy./Diag. 0.40E+00   24.6     1.37295513     -1077.0337122402 -3.50E+00
   119 Broy./Diag. 0.40E+00   24.9     1.30291434     -1077.0326153089  1.10E-03
   120 Broy./Diag. 0.40E+00   24.9     1.70543051     -1074.8677480224  2.16E+00
   121 Broy./Diag. 0.40E+00   24.5     1.72708045     -1076.8119556381 -1.94E+00
   122 Broy./Diag. 0.40E+00   24.7     1.11874844     -1076.5994383178  2.13E-01
   123 Broy./Diag. 0.40E+00   24.6     1.01659580     -1074.6509175475  1.95E+00
   124 Broy./Diag. 0.40E+00   24.7     1.66508905     -1076.5944550121 -1.94E+00
   125 Broy./Diag. 0.40E+00   24.9     1.73741445     -1079.2577748527 -2.66E+00
   126 Broy./Diag. 0.40E+00   24.7     1.47928668     -1074.1428008339  5.11E+00
   127 Broy./Diag. 0.40E+00   24.9     1.57198251     -1081.8803855144 -7.74E+00
   128 Broy./Diag. 0.40E+00   24.8     1.56397589     -1079.3222473627  2.56E+00
   129 Broy./Diag. 0.40E+00   24.6     1.76063843     -1078.3004706265  1.02E+00
   130 Broy./Diag. 0.40E+00   24.2     1.79193070     -1077.2367248826  1.06E+00
   131 Broy./Diag. 0.40E+00   22.0     1.79934471     -1076.4001761917  8.37E-01
   132 Broy./Diag. 0.40E+00   23.9     1.21770867     -1076.0985628506  3.02E-01
   133 Broy./Diag. 0.40E+00   24.5     1.26771134     -1075.9088989599  1.90E-01
   134 Broy./Diag. 0.40E+00   25.1     1.32833461     -1074.5999384348  1.31E+00
   135 Broy./Diag. 0.40E+00   24.7     1.37355507     -1079.1639082528 -4.56E+00
   136 Broy./Diag. 0.40E+00   25.0     1.75517543     -1079.0509137056  1.13E-01
   137 Broy./Diag. 0.40E+00   24.5     1.36661171     -1076.9144409300  2.14E+00
   138 Broy./Diag. 0.40E+00   24.5     1.05340741     -1075.9534993549  9.61E-01
   139 Broy./Diag. 0.40E+00   24.6     0.50587662     -1074.1217201153  1.83E+00
   140 Broy./Diag. 0.40E+00   24.2     1.45527894     -1074.4208919438 -2.99E-01
   141 Broy./Diag. 0.40E+00   24.3     1.47265022     -1079.5306624061 -5.11E+00
   142 Broy./Diag. 0.40E+00   25.2     1.38850661     -1076.8084061343  2.72E+00
   143 Broy./Diag. 0.40E+00   23.9     1.23422009     -1073.6538862214  3.15E+00
   144 Broy./Diag. 0.40E+00   24.6     1.35128168     -1076.8088795746 -3.15E+00
   145 Broy./Diag. 0.40E+00   24.6     1.41564713     -1076.8673647476 -5.85E-02
   146 Broy./Diag. 0.40E+00   24.8     1.72942532     -1078.8802995673 -2.01E+00
   147 Broy./Diag. 0.40E+00   24.5     1.71147878     -1073.6129638407  5.27E+00
   148 Broy./Diag. 0.40E+00   24.5     1.73755658     -1077.3581827982 -3.75E+00
   149 Broy./Diag. 0.40E+00   24.6     1.27358996     -1077.2189367512  1.39E-01
   150 Broy./Diag. 0.40E+00   24.6     1.32733147     -1076.1744812810  1.04E+00
   151 Broy./Diag. 0.40E+00   24.4     1.33106277     -1076.5288620245 -3.54E-01
   152 Broy./Diag. 0.40E+00   24.9     1.28603187     -1073.7214270558  2.81E+00
   153 Broy./Diag. 0.40E+00   24.6     1.29328546     -1077.0095686454 -3.29E+00
   154 Broy./Diag. 0.40E+00   24.7     1.51220374     -1076.9216421098  8.79E-02
   155 Broy./Diag. 0.40E+00   24.5     1.56284174     -1077.1825073278 -2.61E-01
   156 Broy./Diag. 0.40E+00   24.4     1.71463779     -1078.2239414677 -1.04E+00
   157 Broy./Diag. 0.40E+00   24.9     1.77960339     -1075.8980176507  2.33E+00
   158 Broy./Diag. 0.40E+00   24.6     1.39965357     -1074.6007725931  1.30E+00
   159 Broy./Diag. 0.40E+00   23.7     1.59501468     -1078.6532268397 -4.05E+00
   160 Broy./Diag. 0.40E+00   23.6     1.28496339     -1076.5334625472  2.12E+00
   161 Broy./Diag. 0.40E+00   24.6     1.50610849     -1073.3806429499  3.15E+00
   162 Broy./Diag. 0.40E+00   25.1     1.50418000     -1079.6733089464 -6.29E+00
   163 Broy./Diag. 0.40E+00   22.9     1.16126365     -1074.1108777004  5.56E+00
   164 Broy./Diag. 0.40E+00   23.3     1.27468183     -1079.4290064354 -5.32E+00
   165 Broy./Diag. 0.40E+00   24.3     1.35852508     -1079.0592668605  3.70E-01
   166 Broy./Diag. 0.40E+00   24.2     1.76684816     -1078.5992432653  4.60E-01
   167 Broy./Diag. 0.40E+00   24.2     1.32232226     -1073.9553264388  4.64E+00
   168 Broy./Diag. 0.40E+00   24.4     1.32834652     -1077.0512024456 -3.10E+00
   169 Broy./Diag. 0.40E+00   23.6     1.37275161     -1078.2944339153 -1.24E+00
   170 Broy./Diag. 0.40E+00   23.9     1.72021351     -1075.4756312065  2.82E+00
   171 Broy./Diag. 0.40E+00   24.0     1.72965425     -1079.3633121590 -3.89E+00
   172 Broy./Diag. 0.40E+00   24.4     1.40572752     -1076.4445676406  2.92E+00
   173 Broy./Diag. 0.40E+00   24.3     1.36832227     -1079.1513760130 -2.71E+00
   174 Broy./Diag. 0.40E+00   25.5     1.07030670     -1077.0073925413  2.14E+00
   175 Broy./Diag. 0.40E+00   22.9     1.11873610     -1076.4930521358  5.14E-01
   176 Broy./Diag. 0.40E+00   25.0     1.32996994     -1075.8200549604  6.73E-01
   177 Broy./Diag. 0.40E+00   24.7     1.39555822     -1076.3368831012 -5.17E-01
   178 Broy./Diag. 0.40E+00   24.1     1.59423836     -1075.9319828063  4.05E-01
   179 Broy./Diag. 0.40E+00   23.9     1.55731569     -1077.7403606040 -1.81E+00
   180 Broy./Diag. 0.40E+00   24.4     1.71912794     -1076.1194796100  1.62E+00
   181 Broy./Diag. 0.40E+00   25.6     1.78240741     -1076.2966519067 -1.77E-01
   182 Broy./Diag. 0.40E+00   24.7     1.71276889     -1073.7813930421  2.52E+00
   183 Broy./Diag. 0.40E+00   24.7     1.79647228     -1079.9048397776 -6.12E+00
   184 Broy./Diag. 0.40E+00   24.9     1.35778788     -1077.2206295084  2.68E+00
   185 Broy./Diag. 0.40E+00   25.0     1.47961169     -1077.9302457477 -7.10E-01
   186 Broy./Diag. 0.40E+00   24.6     1.13511118     -1073.2483202341  4.68E+00
   187 Broy./Diag. 0.40E+00   25.5     1.06215283     -1075.8282491862 -2.58E+00
   188 Broy./Diag. 0.40E+00   24.4     1.25788027     -1073.7233874372  2.10E+00
   189 Broy./Diag. 0.40E+00   23.3     1.21471759     -1077.9224926924 -4.20E+00
   190 Broy./Diag. 0.40E+00   23.7     1.51385697     -1074.9940193419  2.93E+00
   191 Broy./Diag. 0.40E+00   24.8     1.54066967     -1079.4303704088 -4.44E+00
   192 Broy./Diag. 0.40E+00   24.3     1.77267718     -1077.8444306046  1.59E+00
   193 Broy./Diag. 0.40E+00   22.8     1.78281844     -1079.5295150398 -1.69E+00
   194 Broy./Diag. 0.40E+00   22.5     1.52904132     -1079.3302305018  1.99E-01
   195 Broy./Diag. 0.40E+00   24.0     1.57971979     -1077.2293271309  2.10E+00
   196 Broy./Diag. 0.40E+00   24.1     1.39987758     -1076.3064129827  9.23E-01
   197 Broy./Diag. 0.40E+00   24.0     1.43037767     -1077.5702692224 -1.26E+00
   198 Broy./Diag. 0.40E+00   24.1     1.48375694     -1076.8401999799  7.30E-01
   199 Broy./Diag. 0.40E+00   24.2     1.46294762     -1077.1056750946 -2.65E-01
   200 Broy./Diag. 0.40E+00   24.3     1.46391232     -1072.5020893211  4.60E+00
   201 Broy./Diag. 0.40E+00   24.8     1.41927109     -1076.9738519003 -4.47E+00
   202 Broy./Diag. 0.40E+00   23.5     1.10467734     -1075.9949866204  9.79E-01
   203 Broy./Diag. 0.40E+00   25.2     1.37980643     -1073.8764630061  2.12E+00
   204 Broy./Diag. 0.40E+00   24.8     1.38032618     -1079.1486114390 -5.27E+00
   205 Broy./Diag. 0.40E+00   25.2     1.31054508     -1078.8813319758  2.67E-01
   206 Broy./Diag. 0.40E+00   24.7     1.06900740     -1077.4652731209  1.42E+00
   207 Broy./Diag. 0.40E+00   24.6     1.15286941     -1076.5190522332  9.46E-01
   208 Broy./Diag. 0.40E+00   24.8     1.35183397     -1075.4135817195  1.11E+00
   209 Broy./Diag. 0.40E+00   24.8     1.47741798     -1079.2657730980 -3.85E+00
   210 Broy./Diag. 0.40E+00   24.7     1.70701515     -1074.0270896534  5.24E+00
   211 Broy./Diag. 0.40E+00   24.1     1.73343632     -1079.0861477290 -5.06E+00
   212 Broy./Diag. 0.40E+00   24.0     1.43236448     -1078.0539490547  1.03E+00
   213 Broy./Diag. 0.40E+00   23.6     1.39583463     -1076.3978536052  1.66E+00
   214 Broy./Diag. 0.40E+00   24.8     1.32898018     -1073.6887539167  2.71E+00
   215 Broy./Diag. 0.40E+00   23.1     1.70579708     -1076.9176759674 -3.23E+00
   216 Broy./Diag. 0.40E+00   24.0     1.72414677     -1076.9325901083 -1.49E-02
   217 Broy./Diag. 0.40E+00   24.9     1.43586930     -1078.1316607789 -1.20E+00
   218 Broy./Diag. 0.40E+00   24.6     1.07933305     -1076.8888515852  1.24E+00
   219 Broy./Diag. 0.40E+00   24.2     1.46967812     -1073.5137555968  3.38E+00
   220 Broy./Diag. 0.40E+00   24.4     1.49284376     -1079.3006285290 -5.79E+00
   221 Broy./Diag. 0.40E+00   24.9     1.22482207     -1076.0555358208  3.25E+00
   222 Broy./Diag. 0.40E+00   24.3     1.79464077     -1077.6085578820 -1.55E+00
   223 Broy./Diag. 0.40E+00   24.3     1.59267849     -1076.4102453271  1.20E+00
   224 Broy./Diag. 0.40E+00   23.4     1.29323265     -1073.3001206420  3.11E+00
   225 Broy./Diag. 0.40E+00   24.4     1.71825011     -1079.4059593230 -6.11E+00
   226 Broy./Diag. 0.40E+00   23.3     1.73820230     -1079.0874249313  3.19E-01
   227 Broy./Diag. 0.40E+00   24.4     1.43026460     -1077.3408057205  1.75E+00
   228 Broy./Diag. 0.40E+00   24.3     1.39586181     -1073.8076261839  3.53E+00
   229 Broy./Diag. 0.40E+00   24.2     1.33780689     -1077.1798949269 -3.37E+00
   230 Broy./Diag. 0.40E+00   24.5     1.50898501     -1079.3654348439 -2.19E+00
   231 Broy./Diag. 0.40E+00   24.4     1.10784019     -1074.1022777598  5.26E+00
   232 Broy./Diag. 0.40E+00   24.6     1.23512613     -1077.4566630699 -3.35E+00
   233 Broy./Diag. 0.40E+00   24.5     1.21514203     -1074.6401260312  2.82E+00
   234 Broy./Diag. 0.40E+00   24.4     1.28503546     -1077.6122945181 -2.97E+00
   235 Broy./Diag. 0.40E+00   24.7     1.72012424     -1078.0368369973 -4.25E-01
   236 Broy./Diag. 0.40E+00   25.0     1.76543276     -1078.1807375190 -1.44E-01
   237 Broy./Diag. 0.40E+00   24.9     1.80784887     -1077.4196402329  7.61E-01
   238 Broy./Diag. 0.40E+00   22.8     1.53903230     -1076.7857066905  6.34E-01
   239 Broy./Diag. 0.40E+00   24.2     1.43756754     -1075.9369247811  8.49E-01
   240 Broy./Diag. 0.40E+00   24.3     1.42502957     -1075.5425712684  3.94E-01
   241 Broy./Diag. 0.40E+00   24.3     1.56539767     -1072.9936427625  2.55E+00
   242 Broy./Diag. 0.40E+00   24.5     1.72024228     -1079.9109885679 -6.92E+00
   243 Broy./Diag. 0.40E+00   24.7     1.75855889     -1079.2618111996  6.49E-01
   244 Broy./Diag. 0.40E+00   25.2     0.30560653     -1073.5193599478  5.74E+00
   245 Broy./Diag. 0.40E+00   24.7     1.26757894     -1074.2059622285 -6.87E-01
   246 Broy./Diag. 0.40E+00   24.1     1.42303616     -1079.2872656225 -5.08E+00
   247 Broy./Diag. 0.40E+00   22.4     1.47451901     -1077.0724502406  2.21E+00
   248 Broy./Diag. 0.40E+00   22.5     1.24207069     -1076.9642606625  1.08E-01
   249 Broy./Diag. 0.40E+00   24.3     1.35985071     -1073.9761387387  2.99E+00
   250 Broy./Diag. 0.40E+00   24.0     1.39862818     -1078.4508217217 -4.47E+00
   251 Broy./Diag. 0.40E+00   23.3     1.32892264     -1076.7016361317  1.75E+00
   252 Broy./Diag. 0.40E+00   24.4     1.73675763     -1076.8819554414 -1.80E-01
   253 Broy./Diag. 0.40E+00   24.4     1.77948600     -1078.7832664098 -1.90E+00
   254 Broy./Diag. 0.40E+00   24.4     1.28253974     -1075.8866354836  2.90E+00
   255 Broy./Diag. 0.40E+00   24.1     1.40163986     -1076.4840642197 -5.97E-01
   256 Broy./Diag. 0.40E+00   24.3     1.43704582     -1075.7767266631  7.07E-01
   257 Broy./Diag. 0.40E+00   24.7     1.40764380     -1075.8911777057 -1.14E-01
   258 Broy./Diag. 0.40E+00   24.8     1.45593077     -1073.0835359018  2.81E+00
   259 Broy./Diag. 0.40E+00   22.9     1.49964336     -1079.7361790813 -6.65E+00
   260 Broy./Diag. 0.40E+00   23.9     1.70552345     -1073.9278096387  5.81E+00
   261 Broy./Diag. 0.40E+00   24.7     1.74601393     -1079.5881805930 -5.66E+00
   262 Broy./Diag. 0.40E+00   24.4     1.51421361     -1078.1448622721  1.44E+00
   263 Broy./Diag. 0.40E+00   23.8     1.56702329     -1076.6267029462  1.52E+00
   264 Broy./Diag. 0.40E+00   24.8     1.31156654     -1073.6839862877  2.94E+00
   265 Broy./Diag. 0.40E+00   22.7     1.36707193     -1076.6917025372 -3.01E+00
   266 Broy./Diag. 0.40E+00   24.2     1.29812241     -1076.8359701527 -1.44E-01
   267 Broy./Diag. 0.40E+00   25.3     1.21752150     -1075.8373709683  9.99E-01
   268 Broy./Diag. 0.40E+00   24.0     1.09411479     -1077.1233931796 -1.29E+00
   269 Broy./Diag. 0.40E+00   23.3     1.32989761     -1073.9846256196  3.14E+00
   270 Broy./Diag. 0.40E+00   25.0     1.71798914     -1076.9689737468 -2.98E+00
   271 Broy./Diag. 0.40E+00   24.4     1.77885005     -1077.7254678600 -7.56E-01
   272 Broy./Diag. 0.40E+00   23.6     1.76430301     -1078.8585047102 -1.13E+00
   273 Broy./Diag. 0.40E+00   24.0     1.30168221     -1074.8151951439  4.04E+00
   274 Broy./Diag. 0.40E+00   23.9     0.38897606     -1077.4943364191 -2.68E+00
   275 Broy./Diag. 0.40E+00   24.5     1.45903681     -1078.1230068562 -6.29E-01
   276 Broy./Diag. 0.40E+00   25.0     1.57410168     -1079.4405634743 -1.32E+00
   277 Broy./Diag. 0.40E+00   24.9     1.04054214     -1076.5515887907  2.89E+00
   278 Broy./Diag. 0.40E+00   24.8     1.06538638     -1079.3078116935 -2.76E+00
   279 Broy./Diag. 0.40E+00   24.9     1.33558949     -1079.5423071564 -2.34E-01
   280 Broy./Diag. 0.40E+00   25.6     1.71332065     -1079.2136971340  3.29E-01
   281 Broy./Diag. 0.40E+00   24.8     1.77239108     -1077.2785947003  1.94E+00
   282 Broy./Diag. 0.40E+00   24.9     1.96775451     -1076.3225239329  9.56E-01
   283 Broy./Diag. 0.40E+00   24.7     0.37180394     -1071.1397311330  5.18E+00
   284 Broy./Diag. 0.40E+00   24.6     1.42857404     -1073.9286178639 -2.79E+00
   285 Broy./Diag. 0.40E+00   24.9     1.46463894     -1079.0262047677 -5.10E+00
   286 Broy./Diag. 0.40E+00   24.6     1.32897275     -1076.5656133794  2.46E+00
   287 Broy./Diag. 0.40E+00   24.8     1.40306176     -1076.2008300701  3.65E-01
   288 Broy./Diag. 0.40E+00   24.9     1.35838669     -1076.1717972179  2.90E-02
   289 Broy./Diag. 0.40E+00   25.1     1.26131038     -1073.7220485298  2.45E+00
   290 Broy./Diag. 0.40E+00   24.8     1.42290231     -1077.6125274599 -3.89E+00
   291 Broy./Diag. 0.40E+00   24.8     1.73417004     -1079.9755869414 -2.36E+00
   292 Broy./Diag. 0.40E+00   24.9     1.78254369     -1079.3754754973  6.00E-01
   293 Broy./Diag. 0.40E+00   24.7     1.48442572     -1078.2027718318  1.17E+00
   294 Broy./Diag. 0.40E+00   24.4     1.48923765     -1076.3941622088  1.81E+00
   295 Broy./Diag. 0.40E+00   24.6     0.39160972     -1072.9646305603  3.43E+00
   296 Broy./Diag. 0.40E+00   25.5     1.28528082     -1074.3359592342 -1.37E+00
   297 Broy./Diag. 0.40E+00   24.6     1.35256091     -1077.6856702887 -3.35E+00
   298 Broy./Diag. 0.40E+00   24.4     1.71322623     -1077.5186466093  1.67E-01
   299 Broy./Diag. 0.40E+00   23.7     1.72831617     -1079.5172335149 -2.00E+00
   300 Broy./Diag. 0.40E+00   24.0     1.40269295     -1076.1136045163  3.40E+00

  Leaving inner SCF loop after reaching   300 steps.


  Electronic density on regular grids:       -511.9999988268        0.0000011732
  Core density on regular grids:              511.9999814659       -0.0000185341
  Total charge density on r-space grids:       -0.0000173609
  Total charge density g-space grids:          -0.0000173609

  Overlap energy of the core charge distribution:               0.00000000000000
  Self energy of the core charge distribution:              -2838.21791979120962
  Core Hamiltonian energy:                                    759.75750032571977
  Hartree energy:                                            1240.93101722558299
  Exchange-correlation energy:                               -238.58420227640246

  Total energy:                                             -1076.11360451630935

 *** WARNING in qs_scf.F:542 :: SCF run NOT converged ***


 ENERGY| Total FORCE_EVAL ( QS ) energy (a.u.):            -1075.308808515630062


 ATOMIC FORCES in [a.u.]

 # Atom   Kind   Element          X              Y              Z
      1      1      O          -0.01364194    -0.07119896    -0.06705915
      2      2      H           0.06570875     0.04118391     0.01120116
      3      2      H          -0.02026264     0.03866464    -0.06128488
      4      1      O          -0.06496794     0.03194016     0.12777130
      5      2      H           0.03978195     0.06734912    -0.00405005
      6      2      H           0.04509625    -0.05410423    -0.00649010
      7      1      O           0.00291719     0.02048354     0.03255118
      8      2      H           0.06459041    -0.01793993    -0.06556168
      9      2      H          -0.05788012    -0.08045979     0.01983461
     10      1      O          -0.09521742     0.06548783     0.04246730
     11      2      H           0.02098354    -0.01910631     0.10568911
     12      2      H           0.02701450    -0.09606235    -0.00459685
     13      1      O          -0.03841883     0.10856664     0.02815426
     14      2      H          -0.00878009    -0.02187710     0.10689308
     15      2      H           0.06955241    -0.02389304    -0.01099697
     16      1      O          -0.02459117     0.04833747    -0.14087146
     17      2      H           0.07713822    -0.02310366     0.05171098
     18      2      H          -0.01414882     0.04340241     0.08110392
     19      1      O           0.05269288     0.03590620    -0.13416759
     20      2      H          -0.06343230    -0.03893653    -0.02755202
     21      2      H           0.05160624    -0.08345834     0.06337064
     22      1      O          -0.00534807     0.03539033    -0.16840997
     23      2      H           0.05640199    -0.00739563     0.01314328
     24      2      H          -0.06576174    -0.03582707     0.00808526
     25      1      O          -0.08481135     0.09587049     0.12303035
     26      2      H          -0.00128640    -0.10411144    -0.01427332
     27      2      H           0.08439321     0.01818818     0.00907696
     28      1      O          -0.04747966     0.05063675     0.04627475
     29      2      H           0.05047553    -0.04953340     0.06366868
     30      2      H           0.01142816    -0.06416550    -0.09341022
     31      1      O          -0.10287205    -0.05577918     0.09802524
     32      2      H           0.06054293    -0.01914906     0.02871812
     33      2      H           0.00768562    -0.01628033    -0.03455646
     34      1      O          -0.06867091     0.13090624    -0.04447690
     35      2      H          -0.03689556    -0.08113977    -0.00775933
     36      2      H           0.08889951     0.00174796     0.03240997
     37      1      O          -0.06111605    -0.01211175    -0.05273126
     38      2      H           0.08332654     0.00625391    -0.00925849
     39      2      H           0.01878531    -0.10046966     0.00569353
     40      1      O          -0.10255492     0.00850082    -0.11020924
     41      2      H           0.02588841     0.08967489     0.02362432
     42      2      H           0.05659892    -0.04058608    -0.00889230
     43      1      O          -0.07887204     0.04307265    -0.03040535
     44      2      H           0.06113531    -0.06454253    -0.04229377
     45      2      H          -0.00968788     0.07544446    -0.07846148
     46      1      O          -0.04430366    -0.01578117     0.08918410
     47      2      H          -0.03384153     0.07522701     0.01348524
     48      2      H           0.06260414     0.04419033    -0.01128676
     49      1      O          -0.05367108    -0.02758833    -0.05633694
     50      2      H           0.01861381    -0.08479962    -0.02032219
     51      2      H           0.06666294     0.02604962     0.02728698
     52      1      O          -0.03975573     0.13320371     0.05452149
     53      2      H           0.05137733    -0.02125850    -0.04738070
     54      2      H          -0.04961473    -0.07718391    -0.00122557
     55      1      O           0.01506217    -0.00692073     0.11794558
     56      2      H          -0.02068255     0.06849997    -0.03919198
     57      2      H          -0.00078410    -0.05955197    -0.04802220
     58      1      O          -0.00754508     0.12762509    -0.07047098
     59      2      H          -0.06445349    -0.03988989    -0.04250274
     60      2      H           0.06656913    -0.03149298    -0.04448265
     61      1      O          -0.07707741     0.07537800     0.10609860
     62      2      H           0.06265068    -0.00012837     0.00059784
     63      2      H           0.01834781    -0.00571585    -0.10537337
     64      1      O          -0.07930995     0.10237495    -0.07250670
     65      2      H           0.04857361    -0.00731605     0.02838441
     66      2      H           0.03853117     0.01028033    -0.04893666
     67      1      O          -0.04972384     0.10697290    -0.08409841
     68      2      H           0.05243183    -0.00229647    -0.03220463
     69      2      H           0.01690193    -0.09243167     0.04686611
     70      1      O           0.03175490    -0.04014550     0.02540511
     71      2      H          -0.04352477     0.03836738     0.04482712
     72      2      H           0.02818263     0.07691387    -0.03226569
     73      1      O           0.10311084     0.09811063     0.04054264
     74      2      H          -0.04613523     0.03068005    -0.06649528
     75      2      H          -0.04002554    -0.06162509     0.04144564
     76      1      O          -0.06764721    -0.04401639     0.10544851
     77      2      H           0.07156752    -0.06474063    -0.05388254
     78      2      H          -0.00829555     0.05550994     0.04571546
     79      1      O           0.02427830     0.05725788    -0.10729869
     80      2      H          -0.06714543    -0.00771905     0.05466554
     81      2      H           0.03220103    -0.08856361     0.02266769
     82      1      O           0.01505434    -0.03752382     0.00169636
     83      2      H          -0.00460968    -0.09631459    -0.01482975
     84      2      H           0.02970705     0.03029295    -0.09213620
     85      1      O          -0.08232804    -0.02649384    -0.12899659
     86      2      H           0.01296802     0.06770915     0.01541777
     87      2      H           0.08237624    -0.03005942    -0.03325228
     88      1      O          -0.01541093     0.02745387     0.05400318
     89      2      H          -0.00737540    -0.04610036    -0.03160203
     90      2      H          -0.01006111     0.05180079    -0.01920053
     91      1      O          -0.03999680     0.04623863     0.02875882
     92      2      H           0.03850358     0.04589094    -0.06819702
     93      2      H          -0.03572577    -0.08127346    -0.01530337
     94      1      O           0.05073747     0.07801468    -0.01362366
     95      2      H           0.00950513    -0.06046884     0.01186830
     96      2      H          -0.07639987     0.02407502    -0.01071484
     97      1      O          -0.09483573     0.13231255    -0.10742860
     98      2      H           0.06394125     0.01705188    -0.00002324
     99      2      H           0.00823243    -0.07196764     0.02770969
    100      1      O          -0.01122061     0.10177133     0.02003792
    101      2      H          -0.04476641     0.01749844    -0.02067295
    102      2      H           0.03294482    -0.09234799    -0.01425501
    103      1      O           0.08262104     0.01330295     0.07174184
    104      2      H          -0.01847773     0.10231081    -0.05592837
    105      2      H          -0.05653437    -0.04676296     0.03259438
    106      1      O          -0.07964820     0.05151027     0.15955618
    107      2      H           0.05881640     0.04966703     0.00457482
    108      2      H           0.05108820    -0.06218345     0.00063360
    109      1      O           0.03328287     0.10201929     0.08278326
    110      2      H          -0.05288571     0.01008709    -0.01355058
    111      2      H          -0.01225732    -0.06277924     0.00018480
    112      1      O          -0.06383006    -0.00398272     0.03221883
    113      2      H           0.06273621     0.04564837    -0.01794250
    114      2      H           0.00533066    -0.05595975    -0.04432232
    115      1      O           0.03092542     0.09917926     0.00042383
    116      2      H           0.02585168    -0.03259822    -0.09270055
    117      2      H          -0.00105794    -0.08618784     0.08373610
    118      1      O          -0.07925477     0.11042337     0.10152113
    119      2      H           0.06021871     0.01681957     0.00483796
    120      2      H           0.00300155    -0.07529205    -0.06735821
    121      1      O           0.02718689    -0.00032970     0.13220702
    122      2      H          -0.07813104     0.00823453    -0.06368888
    123      2      H           0.06398437     0.04450788     0.00021021
    124      1      O          -0.04472015    -0.03852842    -0.06005047
    125      2      H           0.03587441    -0.03579733     0.06629295
    126      2      H          -0.00779230    -0.00378123    -0.03608914
    127      1      O          -0.03895640    -0.11843344    -0.04805006
    128      2      H           0.04697196    -0.02255693    -0.02207955
    129      2      H          -0.02945022     0.08395815    -0.02007196
    130      1      O           0.00578223    -0.11762381     0.07664575
    131      2      H          -0.02448491     0.09800739     0.06502353
    132      2      H          -0.03335685    -0.03736356    -0.08007443
    133      1      O          -0.00086462     0.03873175    -0.15400937
    134      2      H           0.05745448    -0.08333824     0.03707798
    135      2      H          -0.02743630     0.02091365     0.08329959
    136      1      O           0.02711860     0.09220423    -0.01901196
    137      2      H           0.02792858     0.04486296     0.04145180
    138      2      H          -0.03182829    -0.10452887     0.04488805
    139      1      O           0.02223720     0.09411619     0.12540983
    140      2      H           0.05228956    -0.03127188    -0.06715132
    141      2      H          -0.06015190     0.03295399    -0.06784269
    142      1      O           0.02769285    -0.01375795     0.01018938
    143      2      H           0.03791168    -0.05649818     0.02659593
    144      2      H          -0.08585532     0.01177823     0.03753702
    145      1      O          -0.04878613     0.04004433     0.01952285
    146      2      H           0.02211452    -0.05550909     0.05350330
    147      2      H           0.05469435     0.02368974    -0.06714620
    148      1      O           0.04648724    -0.01431571    -0.08595310
    149      2      H           0.04715568     0.03578889    -0.07788916
    150      2      H          -0.06479425     0.03002186     0.02246664
    151      1      O          -0.04576606     0.10258245    -0.00032170
    152      2      H          -0.04494934    -0.01690489     0.02893766
    153      2      H           0.05167215    -0.02796303     0.01407421
    154      1      O          -0.06331766    -0.14154209     0.08445922
    155      2      H          -0.01925097     0.06735435    -0.05248038
    156      2      H           0.08678500    -0.00333581     0.02108644
    157      1      O          -0.01064791     0.11691763     0.11952757
    158      2      H           0.07356924    -0.00263478     0.06297037
    159      2      H          -0.03963374    -0.06178439    -0.08375682
    160      1      O          -0.03171244     0.09036503    -0.08010981
    161      2      H          -0.01396939    -0.14331972     0.09784250
    162      2      H           0.01591416     0.03280091     0.00449853
    163      1      O          -0.01427155    -0.02778970    -0.07970550
    164      2      H           0.01488894     0.02451277     0.09555652
    165      2      H          -0.00918815     0.09312466    -0.00753742
    166      1      O          -0.07665453     0.02856479     0.09553549
    167      2      H           0.07806752     0.00289722     0.02081966
    168      2      H           0.01027400    -0.03032817    -0.09816454
    169      1      O          -0.04233575    -0.01571850    -0.15302932
    170      2      H          -0.04223663    -0.02818150     0.03908368
    171      2      H           0.08393104    -0.02298336     0.02880043
    172      1      O           0.02137749    -0.06997673     0.15325611
    173      2      H           0.02060748     0.07805829    -0.04386194
    174      2      H          -0.05746853    -0.02669301     0.01657173
    175      1      O          -0.03132813     0.00774552    -0.07430417
    176      2      H          -0.00475366     0.01688905    -0.01871172
    177      2      H           0.04251407     0.06613413     0.08613783
    178      1      O          -0.00895926    -0.10856689    -0.04176520
    179      2      H           0.05840284    -0.01289070     0.06533973
    180      2      H          -0.06550282     0.05854961     0.03616787
    181      1      O          -0.01331152     0.01905061    -0.01694637
    182      2      H          -0.04198425    -0.01763965    -0.00632220
    183      2      H           0.07345270     0.03910043    -0.02795130
    184      1      O           0.05435645    -0.09476990    -0.03084918
    185      2      H           0.04675209     0.00930676    -0.04912055
    186      2      H          -0.06196453    -0.00144083    -0.04620730
    187      1      O          -0.06368844    -0.01667134    -0.03991044
    188      2      H           0.04407035     0.00345597     0.05417181
    189      2      H           0.03223213     0.02361275    -0.06809907
    190      1      O           0.04889512    -0.08523758    -0.04186103
    191      2      H           0.02140195     0.05483493    -0.09000611
    192      2      H          -0.07738895     0.00535786    -0.02910821
 SUM OF ATOMIC FORCES           0.06815383     0.44705748    -0.42428676     0.62010046

 -------------------------------------------------------------------------------
 -                                                                             -
 -                                DBCSR STATISTICS                             -
 -                                                                             -
 -------------------------------------------------------------------------------
 COUNTER                                    TOTAL       BLAS       SMM       ACC
 flops     5 x     5 x   256           3340377600       0.0%    100.0%      0.0%
 flops     5 x    13 x   256           3956825600       0.0%    100.0%      0.0%
 flops    13 x     5 x   256           4097067520       0.0%    100.0%      0.0%
 flops    13 x    13 x   256           5860108800       0.0%    100.0%      0.0%
 flops inhomo. stacks                           0       0.0%      0.0%      0.0%
 flops total                        17.254380E+09       0.0%    100.0%      0.0%
 flops max/rank                     17.254380E+09       0.0%    100.0%      0.0%
 matmuls inhomo. stacks                         0       0.0%      0.0%      0.0%
 matmuls total                             570696       0.0%    100.0%      0.0%
 number of processed stacks                 42140       0.0%    100.0%      0.0%
 average stack size                                     0.0      13.5       0.0
 marketing flops                   333.927416E+09
 -------------------------------------------------------------------------------
 # multiplications                            301
 max memory usage/rank              30.549934E+09
 # max total images/rank                        1
 # max 3D layers                                1
 # MPI messages exchanged                       0
 MPI messages size (bytes):
  total size                         0.000000E+00
  min size                           0.000000E+00
  max size                           0.000000E+00
  average size                       0.000000E+00
 MPI breakdown and total messages size (bytes):
             size <=      128                   0                        0
       128 < size <=     8192                   0                        0
      8192 < size <=    32768                   0                        0
     32768 < size <=   131072                   0                        0
    131072 < size <=  4194304                   0                        0
   4194304 < size <= 16777216                   0                        0
  16777216 < size                               0                        0
 -------------------------------------------------------------------------------

 MEMORY| Estimated peak process memory [MiB]                               29139

 -------------------------------------------------------------------------------
 -                                                                             -
 -                           R E F E R E N C E S                               -
 -                                                                             -
 -------------------------------------------------------------------------------
 
 CP2K version 7.1, the CP2K developers group (2019).
 CP2K is freely available from https://www.cp2k.org/ .

 Schuett, Ole; Messmer, Peter; Hutter, Juerg; VandeVondele, Joost. 
 Electronic Structure Calculations on Graphics Processing Units, John
 Wiley & Sons, Ltd, 173-190 (2016). 
 GPU-Accelerated Sparse Matrix-Matrix Multiplication for
 Linear Scaling Density Functional Theory.
 https://dx.doi.org/10.1002/9781118670712.ch8

 Borstnik, U; VandeVondele, J; Weber, V; Hutter, J. 
 PARALLEL COMPUTING, 40 (5-6), 47-58 (2014). 
 Sparse matrix multiplication: The distributed block-compressed sparse
 row library.
 https://dx.doi.org/10.1016/j.parco.2014.03.012

 Hutter, J; Iannuzzi, M; Schiffmann, F; VandeVondele, J. 
 WIREs Comput Mol Sci., 4 (1), 15-25 (2014). 
 CP2K: atomistic simulations of condensed matter systems.
 https://dx.doi.org/10.1002/wcms.1159

 Krack, M. 
 THEORETICAL CHEMISTRY ACCOUNTS, 114 (1-3), 145-152 (2005). 
 Pseudopotentials for H to Kr optimized for gradient-corrected
 exchange-correlation functionals.
 https://dx.doi.org/10.1007/s00214-005-0655-y

 VandeVondele, J; Krack, M; Mohamed, F; Parrinello, M; Chassaing, T;
 Hutter, J. COMPUTER PHYSICS COMMUNICATIONS, 167 (2), 103-128 (2005). 
 QUICKSTEP: Fast and accurate density functional calculations using a
 mixed Gaussian and plane waves approach.
 https://dx.doi.org/10.1016/j.cpc.2004.12.014

 Frigo, M; Johnson, SG. 
 PROCEEDINGS OF THE IEEE, 93 (2), 216-231 (2005). 
 The design and implementation of FFTW3.
 https://dx.doi.org/10.1109/JPROC.2004.840301

 Hartwigsen, C; Goedecker, S; Hutter, J. 
 PHYSICAL REVIEW B, 58 (7), 3641-3662 (1998). 
 Relativistic separable dual-space Gaussian pseudopotentials from H to Rn.
 https://dx.doi.org/10.1103/PhysRevB.58.3641

 Lippert, G; Hutter, J; Parrinello, M. 
 MOLECULAR PHYSICS, 92 (3), 477-487 (1997). 
 A hybrid Gaussian and plane wave density functional scheme.
 https://dx.doi.org/10.1080/002689797170220

 Goedecker, S; Teter, M; Hutter, J. 
 PHYSICAL REVIEW B, 54 (3), 1703-1710 (1996). 
 Separable dual-space Gaussian pseudopotentials.
 https://dx.doi.org/10.1103/PhysRevB.54.1703


 -------------------------------------------------------------------------------
 -                                                                             -
 -                                T I M I N G                                  -
 -                                                                             -
 -------------------------------------------------------------------------------
 SUBROUTINE                       CALLS  ASD         SELF TIME        TOTAL TIME
                                MAXIMUM       AVERAGE  MAXIMUM  AVERAGE  MAXIMUM
 CP2K                                 1  1.0    1.101    1.101 7267.003 7267.003
 qs_forces                            1  2.0    0.000    0.000 7255.596 7255.596
 qs_energies                          1  3.0    0.000    0.000 7251.636 7251.636
 scf_env_do_scf                       1  4.0    0.002    0.002 7239.299 7239.299
 scf_env_do_scf_inner_loop          300  5.0    0.051    0.051 7239.297 7239.297
 gspace_mixing                      299  6.0   42.250   42.250 2994.212 2994.212
 broyden_mixing                     299  7.0 2704.251 2704.251 2704.254 2704.254
 qs_scf_new_mos                     300  6.0    0.009    0.009 1975.550 1975.550
 eigensolver                        300  7.0    0.032    0.032 1910.108 1910.108
 cp_fm_syevd                        300  8.0 1273.106 1273.106 1274.296 1274.296
 pw_transfer                       3912  9.9    0.391    0.391 1187.646 1187.646
 rebuild_ks_matrix                  301  7.0    0.001    0.001 1170.644 1170.644
 qs_ks_build_kohn_sham_matrix       301  8.0    0.099    0.099 1170.643 1170.643
 qs_ks_update_qs_env                300  6.0    0.004    0.004 1167.196 1167.196
 fft_wrap_pw1pw2                   3310 10.9    0.050    0.050 1155.943 1155.943
 qs_rho_update_rho                  301  6.0    0.003    0.003 1103.826 1103.826
 calculate_rho_elec                 301  7.0  555.420  555.420 1103.823 1103.823
 fft_wrap_pw1pw2_70                1504 11.2   91.339   91.339 1048.637 1048.637
 cp_fm_cholesky_restore             900  8.0  634.727  634.727  634.727  634.727
 fft3d_s                           3311 12.9  556.401  556.401  556.461  556.461
 density_rs2pw                      301  8.0    0.041    0.041  538.745  538.745
 pw_scatter_s                      1804 13.2  409.844  409.844  409.844  409.844
 pw_poisson_solve                   301  9.0  332.799  332.799  364.543  364.543
 sum_up_and_integrate               301  9.0   17.930   17.930  342.831  342.831
 integrate_v_rspace                 301 10.0   10.513   10.513  324.900  324.900
 potential_pw2rs                    301 11.0    2.558    2.558  287.927  287.927
 qs_vxc_create                      301  9.0    0.006    0.006  167.403  167.403
 xc_vxc_pw_create                   301 10.0   42.380   42.380  167.396  167.396
 -------------------------------------------------------------------------------

 The number of warnings for this run is : 1
 
 -------------------------------------------------------------------------------
  **** **** ******  **  PROGRAM ENDED AT                 2020-05-29 15:07:55.959
 ***** ** ***  *** **   PROGRAM RAN ON                                   gnode44
 **    ****   ******    PROGRAM RAN BY                               mayank.modi
 ***** **    ** ** **   PROGRAM PROCESS ID                                 33345
  **** **  *******  **  PROGRAM STOPPED IN /home/mayank.modi/ab-initio-thermodyn
                                           amics-of-water/mayank/cp2k_energy_cal
                                           culations
