 DBCSR| CPU Multiplication driver                                           XSMM
 DBCSR| Multrec recursion limit                                              512
 DBCSR| Multiplication stack size                                           1000
 DBCSR| Maximum elements for images                                    UNLIMITED
 DBCSR| Multiplicative factor virtual images                                   1
 DBCSR| Use multiplication densification                                       T
 DBCSR| Multiplication size stacks                                             3


  **** **** ******  **  PROGRAM STARTED AT               2020-05-30 01:10:07.053
 ***** ** ***  *** **   PROGRAM STARTED ON                               gnode44
 **    ****   ******    PROGRAM STARTED BY                           mayank.modi
 ***** **    ** ** **   PROGRAM PROCESS ID                                  2144
  **** **  *******  **  PROGRAM STARTED IN /home/mayank.modi/ab-initio-thermodyn
                                           amics-of-water/mayank/cp2k_energy_cal
                                           culations

 CP2K| version string:                                          CP2K version 7.1
 CP2K| source code revision number:                                  git:e635599
 CP2K| cp2kflags: omp libint fftw3 libxc xsmm spglib                            
 CP2K| is freely available from                            https://www.cp2k.org/
 CP2K| Program compiled at                          Mon Dec 23 19:23:12 CET 2019
 CP2K| Program compiled on                                                pc9404
 CP2K| Program compiled for                                Linux-x86-64-gfortran
 CP2K| Data directory path                                        /opt/cp2k/data
 CP2K| Input file name                                 input_training/input41.in

 GLOBAL| Force Environment number                                              1
 GLOBAL| Basis set file name                                           BASIS_SET
 GLOBAL| Potential file name                                      GTH_POTENTIALS
 GLOBAL| MM Potential file name                                     MM_POTENTIAL
 GLOBAL| Coordinate file name                                      __STD_INPUT__
 GLOBAL| Method name                                                        CP2K
 GLOBAL| Project name                                                   H2O_bulk
 GLOBAL| Preferred FFT library                                             FFTW3
 GLOBAL| Preferred diagonalization lib.                                       SL
 GLOBAL| Run type                                                   ENERGY_FORCE
 GLOBAL| All-to-all communication in single precision                          F
 GLOBAL| FFTs using library dependent lengths                                  F
 GLOBAL| Global print level                                                  LOW
 GLOBAL| MPI I/O enabled                                                       T
 GLOBAL| Total number of message passing processes                             1
 GLOBAL| Number of threads for this process                                   36
 GLOBAL| This output is from process                                           0
 GLOBAL| CPU model name                Intel(R) Xeon(R) CPU E5-2640 v4 @ 2.40GHz
 GLOBAL| CPUID                                                              1002
 GLOBAL| Compiled for CPUID                                                    0

 MEMORY| system memory details [Kb]
 MEMORY|                        rank 0           min           max       average
 MEMORY| MemTotal            131893056     131893056     131893056     131893056
 MEMORY| MemFree             118785088     118785088     118785088     118785088
 MEMORY| Buffers               2128044       2128044       2128044       2128044
 MEMORY| Cached                3485720       3485720       3485720       3485720
 MEMORY| Slab                  3320292       3320292       3320292       3320292
 MEMORY| SReclaimable          3107064       3107064       3107064       3107064
 MEMORY| MemLikelyFree       127505916     127505916     127505916     127505916


 GENERATE|  Preliminary Number of Bonds generated:                             0
 GENERATE|  Achieved consistency in connectivity generation.

 *******************************************************************************
 *******************************************************************************
 **                                                                           **
 **     #####                         ##              ##                      **
 **    ##   ##            ##          ##              ##                      **
 **   ##     ##                       ##            ######                    **
 **   ##     ##  ##   ##  ##   #####  ##  ##   ####   ##    #####    #####    **
 **   ##     ##  ##   ##  ##  ##      ## ##   ##      ##   ##   ##  ##   ##   **
 **   ##  ## ##  ##   ##  ##  ##      ####     ###    ##   ######   ######    **
 **    ##  ###   ##   ##  ##  ##      ## ##      ##   ##   ##       ##        **
 **     #######   #####   ##   #####  ##  ##  ####    ##    #####   ##        **
 **           ##                                                    ##        **
 **                                                                           **
 **                                                ... make the atoms dance   **
 **                                                                           **
 **            Copyright (C) by CP2K developers group (2000 - 2019)           **
 **                                                                           **
 *******************************************************************************


 TOTAL NUMBERS AND MAXIMUM NUMBERS

  Total number of            - Atomic kinds:                                   2
                             - Atoms:                                        192
                             - Shell sets:                                   384
                             - Shells:                                       704
                             - Primitive Cartesian functions:                960
                             - Cartesian basis functions:                   1536
                             - Spherical basis functions:                   1472

  Maximum angular momentum of- Orbital basis functions:                        2
                             - Local part of the GTH pseudopotential:          2
                             - Non-local part of the GTH pseudopotential:      0


 SCF PARAMETERS         Density guess:                                    ATOMIC
                        --------------------------------------------------------
                        max_scf:                                             300
                        max_scf_history:                                       0
                        max_diis:                                              4
                        --------------------------------------------------------
                        eps_scf:                                        1.00E-07
                        eps_scf_history:                                0.00E+00
                        eps_diis:                                       1.00E-01
                        eps_eigval:                                     1.00E-05
                        --------------------------------------------------------
                        level_shift [a.u.]:                                 0.00
                        --------------------------------------------------------
                        Mixing method:                            BROYDEN_MIXING
                                                charge density mixing in g-space
                        --------------------------------------------------------
                        No outer SCF

 Number of electrons:                                                        512
 Number of occupied orbitals:                                                256
 Number of molecular orbitals:                                               256

 Number of orbital functions:                                               1472
 Number of independent orbital functions:                                   1472

 Extrapolation method: initial_guess


 SCF WAVEFUNCTION OPTIMIZATION

  Step     Update method      Time    Convergence         Total energy    Change
  ------------------------------------------------------------------------------
     1 NoMix/Diag. 0.40E+00   10.2     0.67515046     -1063.9617446166 -1.06E+03
     2 Broy./Diag. 0.40E+00   15.7     1.94037129      -993.6382330684  7.03E+01
     3 Broy./Diag. 0.40E+00   17.2     1.94025394     -1272.2210214943 -2.79E+02
     4 Broy./Diag. 0.40E+00   18.3     1.79048942     -1132.8444033712  1.39E+02
     5 Broy./Diag. 0.40E+00   18.2     1.78607454     -1095.4104458439  3.74E+01
     6 Broy./Diag. 0.40E+00   17.8     1.91318979     -1105.7617290862 -1.04E+01
     7 Broy./Diag. 0.40E+00   20.2     1.69153832     -1101.3278759921  4.43E+00
     8 Broy./Diag. 0.40E+00   21.2     1.89478550     -1082.5125740324  1.88E+01
     9 Broy./Diag. 0.40E+00   22.2     1.98345187     -1076.9420818208  5.57E+00
    10 Broy./Diag. 0.40E+00   24.9     1.51322146     -1073.4941916111  3.45E+00
    11 Broy./Diag. 0.40E+00   24.1     1.67215355     -1072.0236103589  1.47E+00
    12 Broy./Diag. 0.40E+00   24.2     1.67474223     -1071.9900408616  3.36E-02
    13 Broy./Diag. 0.40E+00   24.0     1.78819964     -1067.4259330062  4.56E+00
    14 Broy./Diag. 0.40E+00   25.0     1.65558543     -1078.1730597397 -1.07E+01
    15 Broy./Diag. 0.40E+00   24.4     1.77174976     -1081.4559669865 -3.28E+00
    16 Broy./Diag. 0.40E+00   24.0     1.83270930     -1087.7140877420 -6.26E+00
    17 Broy./Diag. 0.40E+00   24.3     1.30858401     -1075.7552078032  1.20E+01
    18 Broy./Diag. 0.40E+00   24.7     1.76836648     -1073.0484117594  2.71E+00
    19 Broy./Diag. 0.40E+00   24.4     1.84461602     -1081.8408107106 -8.79E+00
    20 Broy./Diag. 0.40E+00   24.0     1.78981691     -1079.6045653253  2.24E+00
    21 Broy./Diag. 0.40E+00   23.9     1.65978242     -1073.6683328934  5.94E+00
    22 Broy./Diag. 0.40E+00   23.9     1.77079931     -1077.2078096911 -3.54E+00
    23 Broy./Diag. 0.40E+00   23.8     1.83046014     -1078.4062068619 -1.20E+00
    24 Broy./Diag. 0.40E+00   24.6     1.37478276     -1073.7857500180  4.62E+00
    25 Broy./Diag. 0.40E+00   24.5     1.28878245     -1072.5480771061  1.24E+00
    26 Broy./Diag. 0.40E+00   24.4     1.29503155     -1076.3794011365 -3.83E+00
    27 Broy./Diag. 0.40E+00   24.0     1.18538969     -1074.0613229814  2.32E+00
    28 Broy./Diag. 0.40E+00   23.3     1.80587901     -1074.8655457469 -8.04E-01
    29 Broy./Diag. 0.40E+00   24.3     1.82759992     -1076.1416466507 -1.28E+00
    30 Broy./Diag. 0.40E+00   23.9     1.83490400     -1080.1847887364 -4.04E+00
    31 Broy./Diag. 0.40E+00   24.0     1.65533013     -1076.1711133058  4.01E+00
    32 Broy./Diag. 0.40E+00   24.0     1.80122918     -1071.4049299313  4.77E+00
    33 Broy./Diag. 0.40E+00   21.9     1.67594568     -1083.1180770463 -1.17E+01
    34 Broy./Diag. 0.40E+00   24.3     1.82302858     -1077.0914971018  6.03E+00
    35 Broy./Diag. 0.40E+00   22.7     1.70760054     -1077.3935937576 -3.02E-01
    36 Broy./Diag. 0.40E+00   23.1     1.69048231     -1076.3694997387  1.02E+00
    37 Broy./Diag. 0.40E+00   23.4     1.81554897     -1074.1704200200  2.20E+00
    38 Broy./Diag. 0.40E+00   23.8     1.77867009     -1074.9272845380 -7.57E-01
    39 Broy./Diag. 0.40E+00   24.5     1.85142585     -1076.7373497157 -1.81E+00
    40 Broy./Diag. 0.40E+00   25.8     1.64096763     -1072.3365648163  4.40E+00
    41 Broy./Diag. 0.40E+00   24.9     1.81745773     -1076.3810397086 -4.04E+00
    42 Broy./Diag. 0.40E+00   24.2     1.82159754     -1078.0379853718 -1.66E+00
    43 Broy./Diag. 0.40E+00   24.1     1.37442082     -1077.6955869233  3.42E-01
    44 Broy./Diag. 0.40E+00   24.0     1.79987853     -1074.7214123928  2.97E+00
    45 Broy./Diag. 0.40E+00   24.2     1.86791864     -1076.1029530270 -1.38E+00
    46 Broy./Diag. 0.40E+00   24.1     1.67887760     -1074.0239784259  2.08E+00
    47 Broy./Diag. 0.40E+00   23.1     1.80105510     -1079.3743423093 -5.35E+00
    48 Broy./Diag. 0.40E+00   24.2     1.83897852     -1074.9360812739  4.44E+00
    49 Broy./Diag. 0.40E+00   24.5     1.77445282     -1074.8762106036  5.99E-02
    50 Broy./Diag. 0.40E+00   24.5     1.84881683     -1077.2803381318 -2.40E+00
    51 Broy./Diag. 0.40E+00   24.7     1.79497624     -1073.3433500942  3.94E+00
    52 Broy./Diag. 0.40E+00   22.9     1.83406739     -1082.7124817328 -9.37E+00
    53 Broy./Diag. 0.40E+00   24.3     1.71378549     -1075.5183073016  7.19E+00
    54 Broy./Diag. 0.40E+00   23.4     1.82163372     -1074.0201128641  1.50E+00
    55 Broy./Diag. 0.40E+00   23.8     1.83566980     -1077.1038443267 -3.08E+00
    56 Broy./Diag. 0.40E+00   25.1     1.74608961     -1078.1376909236 -1.03E+00
    57 Broy./Diag. 0.40E+00   23.7     1.49842434     -1074.3667059816  3.77E+00
    58 Broy./Diag. 0.40E+00   24.4     1.48173837     -1072.9560456689  1.41E+00
    59 Broy./Diag. 0.40E+00   24.6     1.70431498     -1078.6932511166 -5.74E+00
    60 Broy./Diag. 0.40E+00   24.3     1.31738109     -1075.8684660752  2.82E+00
    61 Broy./Diag. 0.40E+00   24.7     1.77538564     -1073.8045922483  2.06E+00
    62 Broy./Diag. 0.40E+00   24.3     1.79404305     -1078.6532742707 -4.85E+00
    63 Broy./Diag. 0.40E+00   24.3     1.69188924     -1076.9186028058  1.73E+00
    64 Broy./Diag. 0.40E+00   24.5     1.77317343     -1072.8827584441  4.04E+00
    65 Broy./Diag. 0.40E+00   24.3     1.81799133     -1076.6441525276 -3.76E+00
    66 Broy./Diag. 0.40E+00   24.4     1.82661117     -1080.4044968723 -3.76E+00
    67 Broy./Diag. 0.40E+00   24.9     1.82076247     -1078.4448510139  1.96E+00
    68 Broy./Diag. 0.40E+00   24.4     1.52199765     -1075.6221106258  2.82E+00
    69 Broy./Diag. 0.40E+00   24.3     1.81563971     -1073.0997886713  2.52E+00
    70 Broy./Diag. 0.40E+00   24.3     1.85364572     -1076.2258619172 -3.13E+00
    71 Broy./Diag. 0.40E+00   24.1     1.72723199     -1077.5455775219 -1.32E+00
    72 Broy./Diag. 0.40E+00   24.7     1.65294172     -1074.2318813590  3.31E+00
    73 Broy./Diag. 0.40E+00   24.4     1.81408958     -1076.4553337856 -2.22E+00
    74 Broy./Diag. 0.40E+00   24.8     1.79594937     -1074.2317987797  2.22E+00
    75 Broy./Diag. 0.40E+00   24.5     1.50537287     -1075.7414705192 -1.51E+00
    76 Broy./Diag. 0.40E+00   24.5     1.79025071     -1072.4295060834  3.31E+00
    77 Broy./Diag. 0.40E+00   24.5     1.80076487     -1081.5567209266 -9.13E+00
    78 Broy./Diag. 0.40E+00   24.8     1.77261712     -1074.6591717848  6.90E+00
    79 Broy./Diag. 0.40E+00   24.3     1.81483048     -1074.7515913299 -9.24E-02
    80 Broy./Diag. 0.40E+00   24.2     1.75413469     -1072.8120304822  1.94E+00
    81 Broy./Diag. 0.40E+00   24.2     1.83669702     -1079.2100281296 -6.40E+00
    82 Broy./Diag. 0.40E+00   24.4     1.85663307     -1076.6193367057  2.59E+00
    83 Broy./Diag. 0.40E+00   24.5     1.80822019     -1079.9347876049 -3.32E+00
    84 Broy./Diag. 0.40E+00   24.2     1.73470732     -1075.3570042477  4.58E+00
    85 Broy./Diag. 0.40E+00   24.6     1.72919467     -1077.3568537355 -2.00E+00
    86 Broy./Diag. 0.40E+00   24.3     1.80571743     -1073.9235987960  3.43E+00
    87 Broy./Diag. 0.40E+00   24.3     1.55545052     -1074.7536263456 -8.30E-01
    88 Broy./Diag. 0.40E+00   24.5     1.78328948     -1079.8648984092 -5.11E+00
    89 Broy./Diag. 0.40E+00   24.6     1.83375645     -1077.2054051670  2.66E+00
    90 Broy./Diag. 0.40E+00   24.4     1.64342351     -1072.7228800418  4.48E+00
    91 Broy./Diag. 0.40E+00   24.2     1.78594109     -1081.9530620753 -9.23E+00
    92 Broy./Diag. 0.40E+00   24.4     1.89133827     -1078.1833791700  3.77E+00
    93 Broy./Diag. 0.40E+00   24.3     1.67577399     -1079.4692655419 -1.29E+00
    94 Broy./Diag. 0.40E+00   24.3     1.77878208     -1073.6057094969  5.86E+00
    95 Broy./Diag. 0.40E+00   24.2     1.77972156     -1076.5252912128 -2.92E+00
    96 Broy./Diag. 0.40E+00   25.2     1.87342447     -1077.0837639283 -5.58E-01
    97 Broy./Diag. 0.40E+00   24.1     1.67865983     -1073.5250008882  3.56E+00
    98 Broy./Diag. 0.40E+00   23.3     1.79742887     -1077.5146155848 -3.99E+00
    99 Broy./Diag. 0.40E+00   24.0     1.88491877     -1074.9152668503  2.60E+00
   100 Broy./Diag. 0.40E+00   24.1     1.79269105     -1075.0081940611 -9.29E-02
   101 Broy./Diag. 0.40E+00   23.3     1.78936199     -1074.5379692768  4.70E-01
   102 Broy./Diag. 0.40E+00   24.2     1.75980544     -1077.0832686130 -2.55E+00
   103 Broy./Diag. 0.40E+00   24.3     1.79896094     -1076.8110357656  2.72E-01
   104 Broy./Diag. 0.40E+00   24.2     1.72468803     -1075.2668005392  1.54E+00
   105 Broy./Diag. 0.40E+00   22.8     0.94577879     -1074.8439275010  4.23E-01
   106 Broy./Diag. 0.40E+00   23.6     1.28946121     -1076.4268831833 -1.58E+00
   107 Broy./Diag. 0.40E+00   23.3     1.27171211     -1075.1360060416  1.29E+00
   108 Broy./Diag. 0.40E+00   24.2     1.73938223     -1074.6935561992  4.42E-01
   109 Broy./Diag. 0.40E+00   25.3     1.77445234     -1082.1314644887 -7.44E+00
   110 Broy./Diag. 0.40E+00   24.5     1.80654979     -1076.6870945103  5.44E+00
   111 Broy./Diag. 0.40E+00   24.5     1.85635231     -1074.3863928938  2.30E+00
   112 Broy./Diag. 0.40E+00   24.5     1.74667605     -1077.1214709528 -2.74E+00
   113 Broy./Diag. 0.40E+00   24.4     1.81298239     -1075.9844201294  1.14E+00
   114 Broy./Diag. 0.40E+00   24.5     1.73587685     -1077.6784794343 -1.69E+00
   115 Broy./Diag. 0.40E+00   24.4     1.64426537     -1075.7732565031  1.91E+00
   116 Broy./Diag. 0.40E+00   24.3     1.63503693     -1078.1588386457 -2.39E+00
   117 Broy./Diag. 0.40E+00   24.6     1.78619085     -1074.7902074678  3.37E+00
   118 Broy./Diag. 0.40E+00   24.6     1.80218338     -1075.2549719894 -4.65E-01
   119 Broy./Diag. 0.40E+00   24.3     1.87523452     -1073.2999634738  1.96E+00
   120 Broy./Diag. 0.40E+00   24.4     1.82468654     -1073.3629392727 -6.30E-02
   121 Broy./Diag. 0.40E+00   24.4     1.82294500     -1081.9905211681 -8.63E+00
   122 Broy./Diag. 0.40E+00   24.2     1.69895628     -1076.2666461485  5.72E+00
   123 Broy./Diag. 0.40E+00   24.6     1.84718358     -1077.3669064112 -1.10E+00
   124 Broy./Diag. 0.40E+00   22.0     1.85153744     -1076.0656752575  1.30E+00
   125 Broy./Diag. 0.40E+00   23.5     1.85088952     -1076.8827589188 -8.17E-01
   126 Broy./Diag. 0.40E+00   24.1     1.38545434     -1072.0523286778  4.83E+00
   127 Broy./Diag. 0.40E+00   23.9     1.44433434     -1076.9804960616 -4.93E+00
   128 Broy./Diag. 0.40E+00   22.4     1.29183777     -1075.0518567794  1.93E+00
   129 Broy./Diag. 0.40E+00   24.3     1.65188268     -1074.7069979380  3.45E-01
   130 Broy./Diag. 0.40E+00   24.0     1.73794121     -1077.1355746667 -2.43E+00
   131 Broy./Diag. 0.40E+00   23.0     1.73237549     -1076.3192460140  8.16E-01
   132 Broy./Diag. 0.40E+00   24.6     1.67816562     -1076.1236442103  1.96E-01
   133 Broy./Diag. 0.40E+00   22.2     1.83766763     -1077.8571472324 -1.73E+00
   134 Broy./Diag. 0.40E+00   22.8     1.83960366     -1075.4804922767  2.38E+00
   135 Broy./Diag. 0.40E+00   24.0     1.85838576     -1075.8277325737 -3.47E-01
   136 Broy./Diag. 0.40E+00   24.4     1.80766764     -1070.1808819151  5.65E+00
   137 Broy./Diag. 0.40E+00   24.4     1.82175279     -1083.1068356734 -1.29E+01
   138 Broy./Diag. 0.40E+00   24.2     1.82869845     -1076.8648965134  6.24E+00
   139 Broy./Diag. 0.40E+00   23.9     1.84240084     -1077.2454926290 -3.81E-01
   140 Broy./Diag. 0.40E+00   24.2     1.69937786     -1074.7654808508  2.48E+00
   141 Broy./Diag. 0.40E+00   23.3     1.55178795     -1075.7339109710 -9.68E-01
   142 Broy./Diag. 0.40E+00   24.2     1.48932825     -1075.6448168709  8.91E-02
   143 Broy./Diag. 0.40E+00   24.6     1.65818074     -1072.5843235305  3.06E+00
   144 Broy./Diag. 0.40E+00   24.4     1.77028046     -1077.1713731042 -4.59E+00
   145 Broy./Diag. 0.40E+00   23.9     1.80334222     -1077.9665979678 -7.95E-01
   146 Broy./Diag. 0.40E+00   24.6     1.79154221     -1075.1918297843  2.77E+00
   147 Broy./Diag. 0.40E+00   22.1     1.66859413     -1077.2937030793 -2.10E+00
   148 Broy./Diag. 0.40E+00   24.1     1.72033864     -1075.8527202172  1.44E+00
   149 Broy./Diag. 0.40E+00   23.9     1.74563595     -1072.7873286157  3.07E+00
   150 Broy./Diag. 0.40E+00   23.7     1.78532066     -1079.3363017781 -6.55E+00
   151 Broy./Diag. 0.40E+00   24.5     1.84169170     -1076.1955642428  3.14E+00
   152 Broy./Diag. 0.40E+00   23.6     1.80803550     -1075.7694487100  4.26E-01
   153 Broy./Diag. 0.40E+00   24.4     1.74123040     -1074.8980884535  8.71E-01
   154 Broy./Diag. 0.40E+00   24.3     1.75294611     -1075.6982799933 -8.00E-01
   155 Broy./Diag. 0.40E+00   24.6     1.30250430     -1073.6332297180  2.07E+00
   156 Broy./Diag. 0.40E+00   24.1     1.75698630     -1074.8728367487 -1.24E+00
   157 Broy./Diag. 0.40E+00   21.8     1.82914146     -1079.5674134982 -4.69E+00
   158 Broy./Diag. 0.40E+00   23.5     1.74464221     -1077.0274633063  2.54E+00
   159 Broy./Diag. 0.40E+00   24.2     1.73374850     -1075.5998760662  1.43E+00
   160 Broy./Diag. 0.40E+00   24.3     1.84930058     -1070.5255703384  5.07E+00
   161 Broy./Diag. 0.40E+00   23.2     1.84980833     -1081.7115301049 -1.12E+01
   162 Broy./Diag. 0.40E+00   23.8     1.83487538     -1080.3549348537  1.36E+00
   163 Broy./Diag. 0.40E+00   23.4     1.64103041     -1073.8525624538  6.50E+00
   164 Broy./Diag. 0.40E+00   24.6     1.67744251     -1076.1016842739 -2.25E+00
   165 Broy./Diag. 0.40E+00   24.0     1.75007612     -1075.0058603461  1.10E+00
   166 Broy./Diag. 0.40E+00   24.3     1.82881609     -1074.7409301912  2.65E-01
   167 Broy./Diag. 0.40E+00   24.0     1.83235643     -1075.5659785212 -8.25E-01
   168 Broy./Diag. 0.40E+00   25.1     1.72305044     -1078.2691920117 -2.70E+00
   169 Broy./Diag. 0.40E+00   25.2     1.30172122     -1075.4942810259  2.77E+00
   170 Broy./Diag. 0.40E+00   24.8     1.67947684     -1073.0720216678  2.42E+00
   171 Broy./Diag. 0.40E+00   24.7     1.67015728     -1081.3901718186 -8.32E+00
   172 Broy./Diag. 0.40E+00   24.8     1.77847506     -1077.2236519534  4.17E+00
   173 Broy./Diag. 0.40E+00   24.5     1.86003215     -1075.9576134228  1.27E+00
   174 Broy./Diag. 0.40E+00   24.4     1.70011276     -1078.0876584526 -2.13E+00
   175 Broy./Diag. 0.40E+00   24.4     1.77805457     -1073.3745982896  4.71E+00
   176 Broy./Diag. 0.40E+00   24.4     1.82169750     -1079.0901081456 -5.72E+00
   177 Broy./Diag. 0.40E+00   24.7     1.71812945     -1076.9623326905  2.13E+00
   178 Broy./Diag. 0.40E+00   24.7     1.76222652     -1078.5428776865 -1.58E+00
   179 Broy./Diag. 0.40E+00   24.6     1.79051523     -1074.6209494108  3.92E+00
   180 Broy./Diag. 0.40E+00   25.0     1.80863805     -1074.5154044944  1.06E-01
   181 Broy./Diag. 0.40E+00   24.7     1.76145459     -1074.9713018283 -4.56E-01
   182 Broy./Diag. 0.40E+00   24.4     1.80176278     -1073.6346504746  1.34E+00
   183 Broy./Diag. 0.40E+00   24.5     1.85448147     -1078.8628733574 -5.23E+00
   184 Broy./Diag. 0.40E+00   24.4     1.66720086     -1073.0197767630  5.84E+00
   185 Broy./Diag. 0.40E+00   24.4     1.80389663     -1079.7717204213 -6.75E+00
   186 Broy./Diag. 0.40E+00   24.3     1.85563364     -1077.8878182099  1.88E+00
   187 Broy./Diag. 0.40E+00   24.3     1.80813341     -1074.4366660235  3.45E+00
   188 Broy./Diag. 0.40E+00   24.0     1.76692059     -1078.8573732881 -4.42E+00
   189 Broy./Diag. 0.40E+00   23.8     1.83946154     -1076.3598841939  2.50E+00
   190 Broy./Diag. 0.40E+00   24.5     1.84347608     -1077.4146759562 -1.05E+00
   191 Broy./Diag. 0.40E+00   24.7     1.83948783     -1074.3915972041  3.02E+00
   192 Broy./Diag. 0.40E+00   24.1     1.83627116     -1074.1131480955  2.78E-01
   193 Broy./Diag. 0.40E+00   25.4     1.70847179     -1076.8564801321 -2.74E+00
   194 Broy./Diag. 0.40E+00   24.1     1.47515690     -1076.6336311604  2.23E-01
   195 Broy./Diag. 0.40E+00   23.8     1.28055178     -1073.8468687931  2.79E+00
   196 Broy./Diag. 0.40E+00   24.3     1.79593732     -1077.6445174274 -3.80E+00
   197 Broy./Diag. 0.40E+00   24.4     1.84668421     -1079.3994596634 -1.75E+00
   198 Broy./Diag. 0.40E+00   24.4     1.82674365     -1073.5337076513  5.87E+00
   199 Broy./Diag. 0.40E+00   24.6     1.85223517     -1081.6022413738 -8.07E+00
   200 Broy./Diag. 0.40E+00   24.5     1.84714312     -1078.5822964848  3.02E+00
   201 Broy./Diag. 0.40E+00   24.7     1.80912497     -1074.8809455121  3.70E+00
   202 Broy./Diag. 0.40E+00   24.5     1.83252562     -1078.7614231158 -3.88E+00
   203 Broy./Diag. 0.40E+00   24.2     1.71725245     -1076.1228327997  2.64E+00
   204 Broy./Diag. 0.40E+00   25.2     1.29748464     -1074.1980915695  1.92E+00
   205 Broy./Diag. 0.40E+00   24.5     1.77419117     -1075.4323275566 -1.23E+00
   206 Broy./Diag. 0.40E+00   24.2     1.78338420     -1076.6715002978 -1.24E+00
   207 Broy./Diag. 0.40E+00   24.7     1.82494964     -1075.7879196471  8.84E-01
   208 Broy./Diag. 0.40E+00   24.4     1.70821686     -1078.3908197327 -2.60E+00
   209 Broy./Diag. 0.40E+00   24.5     1.85295808     -1071.3464566256  7.04E+00
   210 Broy./Diag. 0.40E+00   24.5     1.84582364     -1081.5401678016 -1.02E+01
   211 Broy./Diag. 0.40E+00   24.4     1.70857376     -1078.4051246142  3.14E+00
   212 Broy./Diag. 0.40E+00   24.5     1.65225413     -1073.7523874145  4.65E+00
   213 Broy./Diag. 0.40E+00   24.7     1.69319951     -1076.4412303167 -2.69E+00
   214 Broy./Diag. 0.40E+00   24.7     1.01558108     -1073.6664778479  2.77E+00
   215 Broy./Diag. 0.40E+00   24.3     1.61645130     -1074.6598901533 -9.93E-01
   216 Broy./Diag. 0.40E+00   24.5     1.80741164     -1076.7180980387 -2.06E+00
   217 Broy./Diag. 0.40E+00   24.4     1.85130597     -1075.8373420871  8.81E-01
   218 Broy./Diag. 0.40E+00   24.6     1.58208558     -1076.4774815257 -6.40E-01
   219 Broy./Diag. 0.40E+00   24.3     1.28603947     -1074.4581218541  2.02E+00
   220 Broy./Diag. 0.40E+00   24.1     1.27641583     -1073.8778404354  5.80E-01
   221 Broy./Diag. 0.40E+00   24.5     1.77687245     -1073.2950089696  5.83E-01
   222 Broy./Diag. 0.40E+00   24.6     1.81326873     -1080.9041571085 -7.61E+00
   223 Broy./Diag. 0.40E+00   22.3     1.77055738     -1079.8407161023  1.06E+00
   224 Broy./Diag. 0.40E+00   24.3     1.85329986     -1075.8092023572  4.03E+00
   225 Broy./Diag. 0.40E+00   24.0     1.41496378     -1074.8165957504  9.93E-01
   226 Broy./Diag. 0.40E+00   22.8     1.79142432     -1073.2997105054  1.52E+00
   227 Broy./Diag. 0.40E+00   24.5     1.85111543     -1076.1203707238 -2.82E+00
   228 Broy./Diag. 0.40E+00   23.1     1.76600806     -1078.8787798625 -2.76E+00
   229 Broy./Diag. 0.40E+00   23.8     1.87547846     -1076.8592253467  2.02E+00
   230 Broy./Diag. 0.40E+00   24.7     1.61203408     -1074.5529022752  2.31E+00
   231 Broy./Diag. 0.40E+00   22.1     1.71386750     -1074.8458256873 -2.93E-01
   232 Broy./Diag. 0.40E+00   23.1     1.70341560     -1074.3944931819  4.51E-01
   233 Broy./Diag. 0.40E+00   22.3     1.78856962     -1077.1585699192 -2.76E+00
   234 Broy./Diag. 0.40E+00   22.5     1.78997063     -1075.3681741051  1.79E+00
   235 Broy./Diag. 0.40E+00   23.5     1.70417148     -1077.0391324494 -1.67E+00
   236 Broy./Diag. 0.40E+00   23.7     1.51368253     -1074.9710836445  2.07E+00
   237 Broy./Diag. 0.40E+00   24.3     1.78527793     -1073.8047198951  1.17E+00
   238 Broy./Diag. 0.40E+00   24.4     1.83702091     -1081.0581005945 -7.25E+00
   239 Broy./Diag. 0.40E+00   23.9     1.88495813     -1076.9744199621  4.08E+00
   240 Broy./Diag. 0.40E+00   24.1     1.89571600     -1074.9845571117  1.99E+00
   241 Broy./Diag. 0.40E+00   24.8     1.74588410     -1073.8300908181  1.15E+00
   242 Broy./Diag. 0.40E+00   24.4     1.81216074     -1078.6530316504 -4.82E+00
   243 Broy./Diag. 0.40E+00   25.5     1.84562127     -1073.1884084065  5.46E+00
   244 Broy./Diag. 0.40E+00   24.9     1.76871294     -1076.5818813658 -3.39E+00
   245 Broy./Diag. 0.40E+00   24.2     1.85268801     -1077.9677489701 -1.39E+00
   246 Broy./Diag. 0.40E+00   24.1     1.58214695     -1076.6206115521  1.35E+00
   247 Broy./Diag. 0.40E+00   24.5     1.65336502     -1073.2557584750  3.36E+00
   248 Broy./Diag. 0.40E+00   24.0     1.73816414     -1078.8936020647 -5.64E+00
   249 Broy./Diag. 0.40E+00   24.0     1.85802052     -1077.0301981279  1.86E+00
   250 Broy./Diag. 0.40E+00   22.9     1.35751770     -1075.6737476466  1.36E+00
   251 Broy./Diag. 0.40E+00   23.6     1.66991406     -1073.1941998581  2.48E+00
   252 Broy./Diag. 0.40E+00   24.4     1.81458141     -1077.9292094218 -4.74E+00
   253 Broy./Diag. 0.40E+00   24.2     1.82602758     -1078.3619298708 -4.33E-01
   254 Broy./Diag. 0.40E+00   24.1     1.80541762     -1071.7167712496  6.65E+00
   255 Broy./Diag. 0.40E+00   24.6     1.79351081     -1082.5098567582 -1.08E+01
   256 Broy./Diag. 0.40E+00   24.2     1.78661402     -1077.1397547670  5.37E+00
   257 Broy./Diag. 0.40E+00   24.7     1.82730911     -1077.4653837706 -3.26E-01
   258 Broy./Diag. 0.40E+00   24.6     1.83023903     -1076.6986433983  7.67E-01
   259 Broy./Diag. 0.40E+00   24.3     1.81023897     -1078.7083045215 -2.01E+00
   260 Broy./Diag. 0.40E+00   24.8     1.76989585     -1074.9779109240  3.73E+00
   261 Broy./Diag. 0.40E+00   23.9     1.83807726     -1074.6262334763  3.52E-01
   262 Broy./Diag. 0.40E+00   25.2     1.82626267     -1079.9938751423 -5.37E+00
   263 Broy./Diag. 0.40E+00   24.7     1.85202325     -1076.2027476578  3.79E+00
   264 Broy./Diag. 0.40E+00   24.1     1.68554762     -1075.1531169862  1.05E+00
   265 Broy./Diag. 0.40E+00   22.8     1.77138681     -1075.7009604168 -5.48E-01
   266 Broy./Diag. 0.40E+00   22.2     1.85683359     -1075.2486457544  4.52E-01
   267 Broy./Diag. 0.40E+00   24.0     1.59495125     -1073.4368360721  1.81E+00
   268 Broy./Diag. 0.40E+00   23.5     1.76215521     -1078.4108738511 -4.97E+00
   269 Broy./Diag. 0.40E+00   23.4     1.82523379     -1078.2227356041  1.88E-01
   270 Broy./Diag. 0.40E+00   24.0     1.41408962     -1075.3017061760  2.92E+00
   271 Broy./Diag. 0.40E+00   23.7     1.73276538     -1072.7460564041  2.56E+00
   272 Broy./Diag. 0.40E+00   23.6     1.76747171     -1077.7900560649 -5.04E+00
   273 Broy./Diag. 0.40E+00   24.5     1.62585457     -1074.2760666928  3.51E+00
   274 Broy./Diag. 0.40E+00   25.4     1.66308780     -1077.1592701523 -2.88E+00
   275 Broy./Diag. 0.40E+00   24.5     1.60733149     -1074.7194707994  2.44E+00
   276 Broy./Diag. 0.40E+00   24.6     1.76565785     -1074.1332838803  5.86E-01
   277 Broy./Diag. 0.40E+00   23.7     1.82733170     -1074.2982577977 -1.65E-01
   278 Broy./Diag. 0.40E+00   23.8     1.81306764     -1072.8316164298  1.47E+00
   279 Broy./Diag. 0.40E+00   25.5     1.80883743     -1084.2671191194 -1.14E+01
   280 Broy./Diag. 0.40E+00   24.1     1.43487005     -1074.0843918476  1.02E+01
   281 Broy./Diag. 0.40E+00   23.2     1.81855205     -1075.9128794851 -1.83E+00
   282 Broy./Diag. 0.40E+00   24.3     1.82511486     -1079.0928123674 -3.18E+00
   283 Broy./Diag. 0.40E+00   24.3     1.76957636     -1076.2157065300  2.88E+00
   284 Broy./Diag. 0.40E+00   24.1     1.75795978     -1076.7123163758 -4.97E-01
   285 Broy./Diag. 0.40E+00   24.2     1.81206328     -1075.1501485141  1.56E+00
   286 Broy./Diag. 0.40E+00   24.4     1.80484253     -1075.4438951159 -2.94E-01
   287 Broy./Diag. 0.40E+00   25.3     1.85384167     -1077.2323279028 -1.79E+00
   288 Broy./Diag. 0.40E+00   24.2     1.29753782     -1074.5760294337  2.66E+00
   289 Broy./Diag. 0.40E+00   24.3     1.28111457     -1075.9663517291 -1.39E+00
   290 Broy./Diag. 0.40E+00   24.2     1.18962619     -1076.7933186394 -8.27E-01
   291 Broy./Diag. 0.40E+00   23.9     1.78363542     -1073.8987043151  2.89E+00
   292 Broy./Diag. 0.40E+00   24.7     1.82173295     -1081.7863725916 -7.89E+00
   293 Broy./Diag. 0.40E+00   22.7     1.70617038     -1077.5431762177  4.24E+00
   294 Broy./Diag. 0.40E+00   23.4     1.73319862     -1076.7234391409  8.20E-01
   295 Broy./Diag. 0.40E+00   24.0     1.83575512     -1074.3358287547  2.39E+00
   296 Broy./Diag. 0.40E+00   24.5     1.84940431     -1076.0630069480 -1.73E+00
   297 Broy./Diag. 0.40E+00   24.3     1.81771312     -1076.2095809573 -1.47E-01
   298 Broy./Diag. 0.40E+00   24.0     1.80879566     -1076.7392737431 -5.30E-01
   299 Broy./Diag. 0.40E+00   24.8     1.81101618     -1078.5160061041 -1.78E+00
   300 Broy./Diag. 0.40E+00   24.2     1.60798210     -1077.1245930776  1.39E+00

  Leaving inner SCF loop after reaching   300 steps.


  Electronic density on regular grids:       -511.9999505369        0.0000494631
  Core density on regular grids:              512.0006217706        0.0006217706
  Total charge density on r-space grids:        0.0006712337
  Total charge density g-space grids:           0.0006712337

  Overlap energy of the core charge distribution:               0.00000000000000
  Self energy of the core charge distribution:              -2838.21791979120962
  Core Hamiltonian energy:                                    758.54031086721875
  Hartree energy:                                            1240.89562897336464
  Exchange-correlation energy:                               -238.34261312696444

  Total energy:                                             -1077.12459307759082

 *** WARNING in qs_scf.F:542 :: SCF run NOT converged ***


 ENERGY| Total FORCE_EVAL ( QS ) energy (a.u.):            -1074.711093667473278


 ATOMIC FORCES in [a.u.]

 # Atom   Kind   Element          X              Y              Z
      1      1      O          -0.04264948    -0.02353004    -0.05410375
      2      2      H           0.05302220     0.04496828     0.02565866
      3      2      H           0.02782963    -0.07152600     0.01843388
      4      1      O           0.01314495    -0.00678777    -0.14020749
      5      2      H           0.07202111    -0.04487557     0.04519330
      6      2      H          -0.05070191    -0.02187415     0.08704540
      7      1      O           0.03368174     0.15319729     0.04636252
      8      2      H          -0.06234527    -0.01210600    -0.03401443
      9      2      H           0.04258312    -0.03104910    -0.04431616
     10      1      O          -0.03596742    -0.00068400     0.05661615
     11      2      H           0.05118443     0.02961587    -0.04422829
     12      2      H          -0.00586051    -0.08619174    -0.04719763
     13      1      O           0.02916158    -0.07636780     0.17812787
     14      2      H          -0.07683431     0.02997705    -0.01609714
     15      2      H           0.06994519     0.00261561    -0.03240680
     16      1      O           0.06433364    -0.00059258     0.14746445
     17      2      H          -0.01835780    -0.00267796    -0.03917316
     18      2      H          -0.03842547    -0.07318075     0.02239531
     19      1      O          -0.04892557    -0.06345971    -0.12051571
     20      2      H          -0.01141457     0.01274906    -0.01907374
     21      2      H           0.05463279     0.00724622    -0.03900334
     22      1      O          -0.06057949    -0.03666268     0.00328187
     23      2      H          -0.00358818     0.07824870     0.02885686
     24      2      H           0.03174282    -0.00492021     0.06139718
     25      1      O          -0.05986500    -0.08519423     0.08296770
     26      2      H          -0.00458976     0.03242687     0.01400594
     27      2      H           0.06909266     0.00884058    -0.00075910
     28      1      O           0.02203725    -0.12049294     0.12252895
     29      2      H          -0.00225090     0.06485445     0.05672817
     30      2      H          -0.00733499    -0.01108711    -0.10405113
     31      1      O           0.02253379     0.12304071     0.03483485
     32      2      H           0.02470856    -0.01354700     0.04893444
     33      2      H          -0.07056354    -0.01966127    -0.03448851
     34      1      O          -0.07024303    -0.03033269     0.01052480
     35      2      H          -0.01497152     0.03302034     0.08090371
     36      2      H           0.07147392     0.03667513    -0.05255806
     37      1      O           0.04701932    -0.03674415    -0.12478409
     38      2      H           0.00943519     0.09410364    -0.01204702
     39      2      H          -0.04784136     0.03021933    -0.01934698
     40      1      O          -0.03572759     0.05328535     0.01569806
     41      2      H          -0.04641703     0.04749826     0.03997091
     42      2      H           0.08211442    -0.03950272     0.05114260
     43      1      O          -0.10882663    -0.04684340     0.00099297
     44      2      H           0.05433010     0.01666518    -0.02251461
     45      2      H           0.02458402    -0.03188961     0.01907616
     46      1      O          -0.06034926     0.00533399    -0.04872760
     47      2      H           0.01896381    -0.01346936     0.08933172
     48      2      H           0.04278685    -0.08608106     0.00800464
     49      1      O          -0.00754750     0.03808655    -0.02585997
     50      2      H          -0.05433823    -0.02564465     0.02985282
     51      2      H           0.04033989     0.02989256     0.03881896
     52      1      O           0.01532429    -0.04619447    -0.05494495
     53      2      H           0.02659797     0.06118129    -0.02488623
     54      2      H          -0.02641062     0.07263690     0.10879051
     55      1      O          -0.01707563    -0.01188077     0.07748844
     56      2      H          -0.00849502     0.02758985     0.02831014
     57      2      H          -0.00187604    -0.01146159     0.02964701
     58      1      O           0.03210587    -0.03021906     0.02771979
     59      2      H          -0.02509985    -0.04825134    -0.00874121
     60      2      H           0.02965398     0.00455543     0.02706570
     61      1      O          -0.08973115     0.04270150    -0.08027938
     62      2      H           0.05133545     0.02983907     0.01496279
     63      2      H           0.05645464    -0.04667939    -0.01779088
     64      1      O           0.01379417     0.13066498    -0.09255112
     65      2      H           0.00367316    -0.04854417     0.09310676
     66      2      H          -0.05598844    -0.02830767    -0.07971736
     67      1      O          -0.06909242     0.05841529     0.13958080
     68      2      H           0.06348008    -0.07598125     0.01336586
     69      2      H           0.01822047     0.02214005    -0.06171346
     70      1      O          -0.01034046    -0.12579198    -0.12316011
     71      2      H           0.02921436     0.05050372     0.03555850
     72      2      H          -0.04665255     0.05764136     0.01980497
     73      1      O          -0.02062885     0.02672690    -0.02457530
     74      2      H           0.05148358    -0.03018115     0.10631475
     75      2      H          -0.02199962    -0.08438151     0.02538132
     76      1      O          -0.11294441    -0.06436275     0.02286743
     77      2      H           0.07497777    -0.03805191    -0.01409766
     78      2      H           0.05421484     0.07476953     0.01476354
     79      1      O          -0.02005750     0.12856888    -0.05070998
     80      2      H          -0.02950698    -0.07526740     0.00615667
     81      2      H           0.04314451    -0.01980308     0.06866573
     82      1      O          -0.06283805    -0.09048715    -0.03623093
     83      2      H           0.06377105    -0.00280988     0.03787220
     84      2      H          -0.01971235     0.08679888     0.10654217
     85      1      O          -0.02889031    -0.00004912     0.00336087
     86      2      H          -0.00311650     0.03755070    -0.07229894
     87      2      H           0.05520846     0.04368309     0.01344516
     88      1      O          -0.00660684    -0.04209207     0.04246702
     89      2      H           0.07751288    -0.01484833     0.03272884
     90      2      H          -0.05186343     0.08984993    -0.02665148
     91      1      O          -0.03398422     0.02510672     0.05987032
     92      2      H           0.03821022    -0.08007078     0.01274560
     93      2      H           0.02055933     0.03721455    -0.00181626
     94      1      O          -0.03050192    -0.03661552     0.04841157
     95      2      H           0.08900448    -0.03711592    -0.02403901
     96      2      H          -0.04439791    -0.00444538     0.08509676
     97      1      O          -0.00070262    -0.00450505     0.00763932
     98      2      H          -0.01157972     0.05429472     0.05972383
     99      2      H           0.05134513    -0.07079076     0.01969389
    100      1      O           0.05022590     0.08386908    -0.01402765
    101      2      H          -0.07237954    -0.06335093     0.03285391
    102      2      H           0.04756445     0.02020937     0.01216156
    103      1      O          -0.05530193    -0.02598932    -0.04180604
    104      2      H           0.06123831    -0.00856328     0.03840226
    105      2      H          -0.00026171     0.10606814    -0.04578348
    106      1      O           0.02125356    -0.03118305    -0.01428703
    107      2      H          -0.05935881     0.06131372    -0.02607316
    108      2      H           0.03806848    -0.03441186     0.11986223
    109      1      O          -0.08266415     0.06665923    -0.16155676
    110      2      H           0.04255539     0.07116785    -0.00195404
    111      2      H           0.03232723    -0.08204020    -0.01838093
    112      1      O          -0.03894774     0.00522146     0.08870125
    113      2      H           0.04371703     0.05535824     0.03441414
    114      2      H           0.02125086    -0.04428695     0.00194455
    115      1      O           0.02336759     0.03117826     0.07905161
    116      2      H          -0.01638396     0.01464315    -0.07788603
    117      2      H          -0.00858436    -0.08265949     0.03056187
    118      1      O           0.03834983    -0.11412416     0.07994891
    119      2      H          -0.03107508     0.03709139    -0.00379728
    120      2      H          -0.02134788    -0.01662229     0.01849904
    121      1      O          -0.01472361     0.01885844     0.13959146
    122      2      H           0.04812175     0.00310125     0.01888384
    123      2      H           0.01274312    -0.03154075     0.00992785
    124      1      O          -0.07025716     0.06561958     0.00082354
    125      2      H          -0.00211797    -0.02630994     0.08970257
    126      2      H           0.05920709    -0.04301982    -0.01238400
    127      1      O          -0.09731661    -0.03796178    -0.10272233
    128      2      H           0.00507177    -0.07998116    -0.05184783
    129      2      H           0.08020770     0.06142411     0.05402560
    130      1      O          -0.11060780     0.02136068     0.01832989
    131      2      H           0.07477552    -0.09898086    -0.05074365
    132      2      H           0.01677423     0.02435778     0.03242521
    133      1      O           0.01425796    -0.10528142     0.08810439
    134      2      H           0.04881773     0.04713601     0.01751098
    135      2      H          -0.05859137     0.02381936    -0.01561331
    136      1      O           0.00759188     0.12906059    -0.00362831
    137      2      H           0.07202397    -0.05075069     0.07188406
    138      2      H          -0.06342802     0.01469517     0.00243939
    139      1      O           0.01690669    -0.02345848     0.11863806
    140      2      H           0.05443997     0.04016709    -0.00432242
    141      2      H          -0.03342189     0.03356713     0.03963297
    142      1      O          -0.05478982    -0.00931787    -0.09936996
    143      2      H           0.05688329     0.07852379    -0.01104085
    144      2      H           0.00732612     0.02531884     0.10085934
    145      1      O          -0.05492410    -0.02799340     0.17616142
    146      2      H          -0.02727397    -0.06670021    -0.01676153
    147      2      H           0.04585148     0.05369840    -0.07348181
    148      1      O           0.04458032    -0.10659515    -0.09336985
    149      2      H           0.00167690     0.04749400    -0.05344065
    150      2      H          -0.06231448    -0.03494591     0.07052865
    151      1      O           0.06867533     0.02741838     0.02766107
    152      2      H          -0.01488853    -0.03152811     0.07141842
    153      2      H          -0.03584170    -0.07082385    -0.03151765
    154      1      O           0.02173147     0.10932321     0.17810624
    155      2      H           0.04836972    -0.02499661    -0.08036184
    156      2      H          -0.07625621    -0.02037446     0.00226639
    157      1      O           0.04264440     0.05719554     0.04863816
    158      2      H          -0.00116414    -0.07931612    -0.00380438
    159      2      H          -0.01016479    -0.00156459    -0.09861184
    160      1      O           0.02798204     0.01667611     0.14835872
    161      2      H          -0.05794581     0.08260664    -0.03107064
    162      2      H           0.01120389    -0.04673231    -0.04372831
    163      1      O          -0.05384134     0.06581385     0.08007799
    164      2      H           0.05984416     0.03131915    -0.00361952
    165      2      H           0.03196930    -0.06127233    -0.03558883
    166      1      O           0.01311256    -0.07255892    -0.08690768
    167      2      H           0.01831194    -0.00361525     0.04123317
    168      2      H          -0.05401564     0.01756033    -0.00977567
    169      1      O          -0.06092626    -0.00463219    -0.06567379
    170      2      H          -0.02684046    -0.04263488    -0.00931731
    171      2      H           0.07160080     0.02603125     0.00527535
    172      1      O           0.02211245    -0.02895411    -0.09309586
    173      2      H          -0.00594569    -0.05371172     0.03769741
    174      2      H           0.02188543     0.02001847     0.07910532
    175      1      O           0.04806886     0.04972662    -0.06443459
    176      2      H          -0.02578444     0.05900424     0.03366703
    177      2      H          -0.00842288    -0.08135954     0.03386391
    178      1      O           0.02803463     0.03918728    -0.07220102
    179      2      H           0.01733713    -0.04273631    -0.05253281
    180      2      H          -0.05322265     0.01813407    -0.01672202
    181      1      O          -0.05270221     0.07130554     0.07233760
    182      2      H          -0.00215965    -0.00457426    -0.06771546
    183      2      H           0.08852887    -0.05905331    -0.00069475
    184      1      O           0.03509454    -0.00930294     0.08470435
    185      2      H          -0.02527782     0.01327038    -0.06334973
    186      2      H          -0.03949597    -0.06388186     0.03850548
    187      1      O           0.01524031    -0.08151641    -0.08571126
    188      2      H           0.06478876     0.03378152     0.00974409
    189      2      H          -0.04294778     0.08339096    -0.05453219
    190      1      O           0.00219352    -0.03307215     0.02233145
    191      2      H          -0.00681131     0.01714736     0.08961111
    192      2      H           0.01759645     0.05359630    -0.02039906
 SUM OF ATOMIC FORCES           0.30815544    -0.18196328     1.58944883     1.62923847

 -------------------------------------------------------------------------------
 -                                                                             -
 -                                DBCSR STATISTICS                             -
 -                                                                             -
 -------------------------------------------------------------------------------
 COUNTER                                    TOTAL       BLAS       SMM       ACC
 flops     5 x     5 x   256           3224793600       0.0%    100.0%      0.0%
 flops    13 x     5 x   256           3666324480       0.0%    100.0%      0.0%
 flops     5 x    13 x   256           3916756480       0.0%    100.0%      0.0%
 flops    13 x    13 x   256           5547569664       0.0%    100.0%      0.0%
 flops inhomo. stacks                           0       0.0%      0.0%      0.0%
 flops total                        16.355444E+09       0.0%    100.0%      0.0%
 flops max/rank                     16.355444E+09       0.0%    100.0%      0.0%
 matmuls inhomo. stacks                         0       0.0%      0.0%      0.0%
 matmuls total                             543907       0.0%    100.0%      0.0%
 number of processed stacks                 42140       0.0%    100.0%      0.0%
 average stack size                                     0.0      12.9       0.0
 marketing flops                   333.927416E+09
 -------------------------------------------------------------------------------
 # multiplications                            301
 max memory usage/rank              30.536266E+09
 # max total images/rank                        1
 # max 3D layers                                1
 # MPI messages exchanged                       0
 MPI messages size (bytes):
  total size                         0.000000E+00
  min size                           0.000000E+00
  max size                           0.000000E+00
  average size                       0.000000E+00
 MPI breakdown and total messages size (bytes):
             size <=      128                   0                        0
       128 < size <=     8192                   0                        0
      8192 < size <=    32768                   0                        0
     32768 < size <=   131072                   0                        0
    131072 < size <=  4194304                   0                        0
   4194304 < size <= 16777216                   0                        0
  16777216 < size                               0                        0
 -------------------------------------------------------------------------------

 MEMORY| Estimated peak process memory [MiB]                               29126

 -------------------------------------------------------------------------------
 -                                                                             -
 -                           R E F E R E N C E S                               -
 -                                                                             -
 -------------------------------------------------------------------------------
 
 CP2K version 7.1, the CP2K developers group (2019).
 CP2K is freely available from https://www.cp2k.org/ .

 Schuett, Ole; Messmer, Peter; Hutter, Juerg; VandeVondele, Joost. 
 Electronic Structure Calculations on Graphics Processing Units, John
 Wiley & Sons, Ltd, 173-190 (2016). 
 GPU-Accelerated Sparse Matrix-Matrix Multiplication for
 Linear Scaling Density Functional Theory.
 https://dx.doi.org/10.1002/9781118670712.ch8

 Borstnik, U; VandeVondele, J; Weber, V; Hutter, J. 
 PARALLEL COMPUTING, 40 (5-6), 47-58 (2014). 
 Sparse matrix multiplication: The distributed block-compressed sparse
 row library.
 https://dx.doi.org/10.1016/j.parco.2014.03.012

 Hutter, J; Iannuzzi, M; Schiffmann, F; VandeVondele, J. 
 WIREs Comput Mol Sci., 4 (1), 15-25 (2014). 
 CP2K: atomistic simulations of condensed matter systems.
 https://dx.doi.org/10.1002/wcms.1159

 Krack, M. 
 THEORETICAL CHEMISTRY ACCOUNTS, 114 (1-3), 145-152 (2005). 
 Pseudopotentials for H to Kr optimized for gradient-corrected
 exchange-correlation functionals.
 https://dx.doi.org/10.1007/s00214-005-0655-y

 VandeVondele, J; Krack, M; Mohamed, F; Parrinello, M; Chassaing, T;
 Hutter, J. COMPUTER PHYSICS COMMUNICATIONS, 167 (2), 103-128 (2005). 
 QUICKSTEP: Fast and accurate density functional calculations using a
 mixed Gaussian and plane waves approach.
 https://dx.doi.org/10.1016/j.cpc.2004.12.014

 Frigo, M; Johnson, SG. 
 PROCEEDINGS OF THE IEEE, 93 (2), 216-231 (2005). 
 The design and implementation of FFTW3.
 https://dx.doi.org/10.1109/JPROC.2004.840301

 Hartwigsen, C; Goedecker, S; Hutter, J. 
 PHYSICAL REVIEW B, 58 (7), 3641-3662 (1998). 
 Relativistic separable dual-space Gaussian pseudopotentials from H to Rn.
 https://dx.doi.org/10.1103/PhysRevB.58.3641

 Lippert, G; Hutter, J; Parrinello, M. 
 MOLECULAR PHYSICS, 92 (3), 477-487 (1997). 
 A hybrid Gaussian and plane wave density functional scheme.
 https://dx.doi.org/10.1080/002689797170220

 Goedecker, S; Teter, M; Hutter, J. 
 PHYSICAL REVIEW B, 54 (3), 1703-1710 (1996). 
 Separable dual-space Gaussian pseudopotentials.
 https://dx.doi.org/10.1103/PhysRevB.54.1703


 -------------------------------------------------------------------------------
 -                                                                             -
 -                                T I M I N G                                  -
 -                                                                             -
 -------------------------------------------------------------------------------
 SUBROUTINE                       CALLS  ASD         SELF TIME        TOTAL TIME
                                MAXIMUM       AVERAGE  MAXIMUM  AVERAGE  MAXIMUM
 CP2K                                 1  1.0    1.115    1.115 7224.821 7224.821
 qs_forces                            1  2.0    0.000    0.000 7213.343 7213.343
 qs_energies                          1  3.0    0.000    0.000 7209.411 7209.411
 scf_env_do_scf                       1  4.0    0.001    0.001 7198.219 7198.219
 scf_env_do_scf_inner_loop          300  5.0    0.051    0.051 7198.219 7198.219
 gspace_mixing                      299  6.0   42.286   42.286 3002.203 3002.203
 broyden_mixing                     299  7.0 2710.773 2710.773 2710.776 2710.776
 qs_scf_new_mos                     300  6.0    0.008    0.008 1953.897 1953.897
 eigensolver                        300  7.0    0.034    0.034 1884.294 1884.294
 cp_fm_syevd                        300  8.0 1268.816 1268.816 1270.023 1270.023
 pw_transfer                       3912  9.9    0.399    0.399 1190.701 1190.701
 rebuild_ks_matrix                  301  7.0    0.001    0.001 1170.344 1170.344
 qs_ks_build_kohn_sham_matrix       301  8.0    0.107    0.107 1170.343 1170.343
 qs_ks_update_qs_env                300  6.0    0.004    0.004 1166.796 1166.796
 fft_wrap_pw1pw2                   3310 10.9    0.068    0.068 1159.036 1159.036
 qs_rho_update_rho                  301  6.0    0.003    0.003 1074.846 1074.846
 calculate_rho_elec                 301  7.0  520.220  520.220 1074.843 1074.843
 fft_wrap_pw1pw2_70                1504 11.2   91.616   91.616 1049.784 1049.784
 cp_fm_cholesky_restore             900  8.0  613.170  613.170  613.170  613.170
 fft3d_s                           3311 12.9  556.220  556.220  556.254  556.254
 density_rs2pw                      301  8.0    0.031    0.031  544.670  544.670
 pw_scatter_s                      1804 13.2  410.596  410.596  410.596  410.596
 pw_poisson_solve                   301  9.0  331.117  331.117  362.731  362.731
 sum_up_and_integrate               301  9.0   17.779   17.779  345.033  345.033
 integrate_v_rspace                 301 10.0   10.713   10.713  327.251  327.251
 potential_pw2rs                    301 11.0    2.510    2.510  288.535  288.535
 qs_vxc_create                      301  9.0    0.009    0.009  167.565  167.565
 xc_vxc_pw_create                   301 10.0   42.413   42.413  167.556  167.556
 -------------------------------------------------------------------------------

 The number of warnings for this run is : 1
 
 -------------------------------------------------------------------------------
  **** **** ******  **  PROGRAM ENDED AT                 2020-05-30 03:10:32.520
 ***** ** ***  *** **   PROGRAM RAN ON                                   gnode44
 **    ****   ******    PROGRAM RAN BY                               mayank.modi
 ***** **    ** ** **   PROGRAM PROCESS ID                                  2144
  **** **  *******  **  PROGRAM STOPPED IN /home/mayank.modi/ab-initio-thermodyn
                                           amics-of-water/mayank/cp2k_energy_cal
                                           culations
