 DBCSR| CPU Multiplication driver                                           XSMM
 DBCSR| Multrec recursion limit                                              512
 DBCSR| Multiplication stack size                                           1000
 DBCSR| Maximum elements for images                                    UNLIMITED
 DBCSR| Multiplicative factor virtual images                                   1
 DBCSR| Use multiplication densification                                       T
 DBCSR| Multiplication size stacks                                             3


  **** **** ******  **  PROGRAM STARTED AT               2020-05-29 01:07:51.053
 ***** ** ***  *** **   PROGRAM STARTED ON                               gnode44
 **    ****   ******    PROGRAM STARTED BY                           mayank.modi
 ***** **    ** ** **   PROGRAM PROCESS ID                                 23987
  **** **  *******  **  PROGRAM STARTED IN /home/mayank.modi/ab-initio-thermodyn
                                           amics-of-water/mayank/cp2k_energy_cal
                                           culations

 CP2K| version string:                                          CP2K version 7.1
 CP2K| source code revision number:                                  git:e635599
 CP2K| cp2kflags: omp libint fftw3 libxc xsmm spglib                            
 CP2K| is freely available from                            https://www.cp2k.org/
 CP2K| Program compiled at                          Mon Dec 23 19:23:12 CET 2019
 CP2K| Program compiled on                                                pc9404
 CP2K| Program compiled for                                Linux-x86-64-gfortran
 CP2K| Data directory path                                        /opt/cp2k/data
 CP2K| Input file name                                 input_training/input29.in

 GLOBAL| Force Environment number                                              1
 GLOBAL| Basis set file name                                           BASIS_SET
 GLOBAL| Potential file name                                      GTH_POTENTIALS
 GLOBAL| MM Potential file name                                     MM_POTENTIAL
 GLOBAL| Coordinate file name                                      __STD_INPUT__
 GLOBAL| Method name                                                        CP2K
 GLOBAL| Project name                                                   H2O_bulk
 GLOBAL| Preferred FFT library                                             FFTW3
 GLOBAL| Preferred diagonalization lib.                                       SL
 GLOBAL| Run type                                                   ENERGY_FORCE
 GLOBAL| All-to-all communication in single precision                          F
 GLOBAL| FFTs using library dependent lengths                                  F
 GLOBAL| Global print level                                                  LOW
 GLOBAL| MPI I/O enabled                                                       T
 GLOBAL| Total number of message passing processes                             1
 GLOBAL| Number of threads for this process                                   36
 GLOBAL| This output is from process                                           0
 GLOBAL| CPU model name                Intel(R) Xeon(R) CPU E5-2640 v4 @ 2.40GHz
 GLOBAL| CPUID                                                              1002
 GLOBAL| Compiled for CPUID                                                    0

 MEMORY| system memory details [Kb]
 MEMORY|                        rank 0           min           max       average
 MEMORY| MemTotal            131893056     131893056     131893056     131893056
 MEMORY| MemFree             119192836     119192836     119192836     119192836
 MEMORY| Buffers               2121372       2121372       2121372       2121372
 MEMORY| Cached                3087320       3087320       3087320       3087320
 MEMORY| Slab                  3313040       3313040       3313040       3313040
 MEMORY| SReclaimable          3100776       3100776       3100776       3100776
 MEMORY| MemLikelyFree       127502304     127502304     127502304     127502304


 GENERATE| WARNING:: No connections detected for Hydrogen - Atom Nr:        20 !
 GENERATE|  Preliminary Number of Bonds generated:                             0
 GENERATE|  Achieved consistency in connectivity generation.

 *******************************************************************************
 *******************************************************************************
 **                                                                           **
 **     #####                         ##              ##                      **
 **    ##   ##            ##          ##              ##                      **
 **   ##     ##                       ##            ######                    **
 **   ##     ##  ##   ##  ##   #####  ##  ##   ####   ##    #####    #####    **
 **   ##     ##  ##   ##  ##  ##      ## ##   ##      ##   ##   ##  ##   ##   **
 **   ##  ## ##  ##   ##  ##  ##      ####     ###    ##   ######   ######    **
 **    ##  ###   ##   ##  ##  ##      ## ##      ##   ##   ##       ##        **
 **     #######   #####   ##   #####  ##  ##  ####    ##    #####   ##        **
 **           ##                                                    ##        **
 **                                                                           **
 **                                                ... make the atoms dance   **
 **                                                                           **
 **            Copyright (C) by CP2K developers group (2000 - 2019)           **
 **                                                                           **
 *******************************************************************************


 TOTAL NUMBERS AND MAXIMUM NUMBERS

  Total number of            - Atomic kinds:                                   2
                             - Atoms:                                        192
                             - Shell sets:                                   384
                             - Shells:                                       704
                             - Primitive Cartesian functions:                960
                             - Cartesian basis functions:                   1536
                             - Spherical basis functions:                   1472

  Maximum angular momentum of- Orbital basis functions:                        2
                             - Local part of the GTH pseudopotential:          2
                             - Non-local part of the GTH pseudopotential:      0


 SCF PARAMETERS         Density guess:                                    ATOMIC
                        --------------------------------------------------------
                        max_scf:                                             300
                        max_scf_history:                                       0
                        max_diis:                                              4
                        --------------------------------------------------------
                        eps_scf:                                        1.00E-07
                        eps_scf_history:                                0.00E+00
                        eps_diis:                                       1.00E-01
                        eps_eigval:                                     1.00E-05
                        --------------------------------------------------------
                        level_shift [a.u.]:                                 0.00
                        --------------------------------------------------------
                        Mixing method:                            BROYDEN_MIXING
                                                charge density mixing in g-space
                        --------------------------------------------------------
                        No outer SCF

 Number of electrons:                                                        512
 Number of occupied orbitals:                                                256
 Number of molecular orbitals:                                               256

 Number of orbital functions:                                               1472
 Number of independent orbital functions:                                   1472

 Extrapolation method: initial_guess


 SCF WAVEFUNCTION OPTIMIZATION

  Step     Update method      Time    Convergence         Total energy    Change
  ------------------------------------------------------------------------------
     1 NoMix/Diag. 0.40E+00    9.9     0.68791509     -1064.2859406794 -1.06E+03
     2 Broy./Diag. 0.40E+00   14.4     1.90757656      -996.1979696553  6.81E+01
     3 Broy./Diag. 0.40E+00   16.0     1.92275485     -1262.5525401664 -2.66E+02
     4 Broy./Diag. 0.40E+00   17.7     1.68142445     -1115.2899311122  1.47E+02
     5 Broy./Diag. 0.40E+00   18.5     1.78387851     -1101.8739905502  1.34E+01
     6 Broy./Diag. 0.40E+00   18.8     1.53193328     -1097.2664680402  4.61E+00
     7 Broy./Diag. 0.40E+00   20.6     1.63210840     -1091.5007572567  5.77E+00
     8 Broy./Diag. 0.40E+00   21.8     1.74712365     -1084.8433449514  6.66E+00
     9 Broy./Diag. 0.40E+00   23.3     1.47817701     -1080.0124103277  4.83E+00
    10 Broy./Diag. 0.40E+00   24.6     1.39956953     -1074.2384551349  5.77E+00
    11 Broy./Diag. 0.40E+00   24.4     1.41621249     -1078.2685079121 -4.03E+00
    12 Broy./Diag. 0.40E+00   24.7     1.45932867     -1077.1855152470  1.08E+00
    13 Broy./Diag. 0.40E+00   24.3     1.70745163     -1076.5795650871  6.06E-01
    14 Broy./Diag. 0.40E+00   25.2     1.76537739     -1078.6014058081 -2.02E+00
    15 Broy./Diag. 0.40E+00   24.6     1.11100052     -1078.8402297161 -2.39E-01
    16 Broy./Diag. 0.40E+00   24.3     1.29668364     -1077.4823484940  1.36E+00
    17 Broy./Diag. 0.40E+00   25.1     0.25272900     -1072.6086743371  4.87E+00
    18 Broy./Diag. 0.40E+00   24.3     1.60258652     -1075.7227555985 -3.11E+00
    19 Broy./Diag. 0.40E+00   25.4     0.12664606     -1078.6974198924 -2.97E+00
    20 Broy./Diag. 0.40E+00   25.3     0.21603553     -1079.0607238094 -3.63E-01
    21 Broy./Diag. 0.40E+00   23.8     0.99153957     -1078.6764013312  3.84E-01
    22 Broy./Diag. 0.40E+00   23.7     1.63642483     -1077.6359073621  1.04E+00
    23 Broy./Diag. 0.40E+00   24.3     1.71834894     -1077.8444409954 -2.09E-01
    24 Broy./Diag. 0.40E+00   24.5     1.51910100     -1075.8993942889  1.95E+00
    25 Broy./Diag. 0.40E+00   25.3     1.17627510     -1078.0594840232 -2.16E+00
    26 Broy./Diag. 0.40E+00   24.6     1.36078500     -1077.8038371483  2.56E-01
    27 Broy./Diag. 0.40E+00   25.1     1.38098425     -1076.6385148956  1.17E+00
    28 Broy./Diag. 0.40E+00   24.5     1.74765508     -1072.5034145632  4.14E+00
    29 Broy./Diag. 0.40E+00   25.1     1.71148534     -1078.0621959391 -5.56E+00
    30 Broy./Diag. 0.40E+00   24.6     1.42656224     -1075.1968576148  2.87E+00
    31 Broy./Diag. 0.40E+00   25.9     1.42970793     -1077.1721818314 -1.98E+00
    32 Broy./Diag. 0.40E+00   23.7     1.09679133     -1077.3147262862 -1.43E-01
    33 Broy./Diag. 0.40E+00   23.7     1.03095274     -1076.6957245457  6.19E-01
    34 Broy./Diag. 0.40E+00   24.3     1.74819802     -1078.6684661236 -1.97E+00
    35 Broy./Diag. 0.40E+00   24.6     1.53226765     -1074.4576691693  4.21E+00
    36 Broy./Diag. 0.40E+00   24.6     1.56415761     -1078.0700682928 -3.61E+00
    37 Broy./Diag. 0.40E+00   24.7     1.44911062     -1077.9215843905  1.48E-01
    38 Broy./Diag. 0.40E+00   24.7     1.20939817     -1075.0016168523  2.92E+00
    39 Broy./Diag. 0.40E+00   25.3     1.49325769     -1077.7890219675 -2.79E+00
    40 Broy./Diag. 0.40E+00   24.0     1.55268417     -1078.0958697755 -3.07E-01
    41 Broy./Diag. 0.40E+00   24.4     1.69088892     -1074.0678674050  4.03E+00
    42 Broy./Diag. 0.40E+00   24.3     1.73354792     -1079.4952751410 -5.43E+00
    43 Broy./Diag. 0.40E+00   25.2     1.01320351     -1076.8577694445  2.64E+00
    44 Broy./Diag. 0.40E+00   23.8     1.15235575     -1077.2791971802 -4.21E-01
    45 Broy./Diag. 0.40E+00   24.2     1.42582850     -1074.5996845422  2.68E+00
    46 Broy./Diag. 0.40E+00   24.3     1.26434736     -1077.2731038938 -2.67E+00
    47 Broy./Diag. 0.40E+00   25.0     0.99101512     -1075.0769076234  2.20E+00
    48 Broy./Diag. 0.40E+00   24.3     1.04579203     -1077.4101840191 -2.33E+00
    49 Broy./Diag. 0.40E+00   25.1     1.65889849     -1074.8686269790  2.54E+00
    50 Broy./Diag. 0.40E+00   24.6     1.68975835     -1079.6329760809 -4.76E+00
    51 Broy./Diag. 0.40E+00   23.9     1.57739501     -1077.4893591168  2.14E+00
    52 Broy./Diag. 0.40E+00   23.4     1.18451615     -1076.1020718047  1.39E+00
    53 Broy./Diag. 0.40E+00   24.5     1.46062681     -1074.1956680353  1.91E+00
    54 Broy./Diag. 0.40E+00   24.3     1.55897052     -1078.0097639983 -3.81E+00
    55 Broy./Diag. 0.40E+00   24.2     1.58023482     -1076.4055695867  1.60E+00
    56 Broy./Diag. 0.40E+00   24.4     1.42315810     -1077.6431868940 -1.24E+00
    57 Broy./Diag. 0.40E+00   24.8     1.38551796     -1077.5013125117  1.42E-01
    58 Broy./Diag. 0.40E+00   25.7     1.42499363     -1077.9828017038 -4.81E-01
    59 Broy./Diag. 0.40E+00   23.9     1.49426305     -1077.8043248538  1.78E-01
    60 Broy./Diag. 0.40E+00   23.9     0.85476096     -1077.3562419701  4.48E-01
    61 Broy./Diag. 0.40E+00   24.4     1.74744627     -1079.1952906522 -1.84E+00
    62 Broy./Diag. 0.40E+00   25.0     0.45530497     -1074.4888473342  4.71E+00
    63 Broy./Diag. 0.40E+00   24.2     1.14195843     -1074.9178662928 -4.29E-01
    64 Broy./Diag. 0.40E+00   24.5     1.49012075     -1077.6421912619 -2.72E+00
    65 Broy./Diag. 0.40E+00   24.4     1.65519764     -1077.6077875598  3.44E-02
    66 Broy./Diag. 0.40E+00   24.1     1.77292172     -1074.8705149960  2.74E+00
    67 Broy./Diag. 0.40E+00   23.9     1.79016602     -1077.4168461704 -2.55E+00
    68 Broy./Diag. 0.40E+00   24.4     1.64562272     -1077.3264639224  9.04E-02
    69 Broy./Diag. 0.40E+00   23.9     1.69873733     -1079.2298352511 -1.90E+00
    70 Broy./Diag. 0.40E+00   23.9     1.17647532     -1073.7983438122  5.43E+00
    71 Broy./Diag. 0.40E+00   24.2     1.14673687     -1076.7199544241 -2.92E+00
    72 Broy./Diag. 0.40E+00   25.0     1.24339770     -1076.4619661228  2.58E-01
    73 Broy./Diag. 0.40E+00   24.0     1.52897900     -1077.7426745479 -1.28E+00
    74 Broy./Diag. 0.40E+00   24.0     1.59412556     -1077.3701145767  3.73E-01
    75 Broy./Diag. 0.40E+00   22.7     1.35289846     -1077.1552180076  2.15E-01
    76 Broy./Diag. 0.40E+00   24.1     1.60323621     -1074.6584448517  2.50E+00
    77 Broy./Diag. 0.40E+00   24.5     1.48017991     -1077.5866061667 -2.93E+00
    78 Broy./Diag. 0.40E+00   24.3     1.73990624     -1079.1697725555 -1.58E+00
    79 Broy./Diag. 0.40E+00   22.9     1.59468847     -1074.2794110691  4.89E+00
    80 Broy./Diag. 0.40E+00   24.2     1.59292347     -1078.6958444921 -4.42E+00
    81 Broy./Diag. 0.40E+00   23.0     1.18165332     -1076.8474527463  1.85E+00
    82 Broy./Diag. 0.40E+00   22.5     1.18375860     -1073.9251571301  2.92E+00
    83 Broy./Diag. 0.40E+00   22.7     1.29451006     -1078.0980333321 -4.17E+00
    84 Broy./Diag. 0.40E+00   24.0     1.28940987     -1077.9522918074  1.46E-01
    85 Broy./Diag. 0.40E+00   23.6     1.22659240     -1075.1493975204  2.80E+00
    86 Broy./Diag. 0.40E+00   24.4     1.32668222     -1077.3146870303 -2.17E+00
    87 Broy./Diag. 0.40E+00   24.3     1.49411391     -1077.2160055549  9.87E-02
    88 Broy./Diag. 0.40E+00   24.6     1.21743783     -1074.4335779066  2.78E+00
    89 Broy./Diag. 0.40E+00   24.9     1.69734767     -1076.2504914655 -1.82E+00
    90 Broy./Diag. 0.40E+00   22.8     1.69248514     -1079.0438625973 -2.79E+00
    91 Broy./Diag. 0.40E+00   24.4     1.22368250     -1077.4907678325  1.55E+00
    92 Broy./Diag. 0.40E+00   23.1     1.46881343     -1074.1263804189  3.36E+00
    93 Broy./Diag. 0.40E+00   23.2     1.71065616     -1078.0727942189 -3.95E+00
    94 Broy./Diag. 0.40E+00   24.0     1.73833310     -1079.3415148364 -1.27E+00
    95 Broy./Diag. 0.40E+00   24.1     1.44740817     -1077.4426357574  1.90E+00
    96 Broy./Diag. 0.40E+00   24.1     1.40267694     -1077.4480799020 -5.44E-03
    97 Broy./Diag. 0.40E+00   24.1     0.26270416     -1075.0258953954  2.42E+00
    98 Broy./Diag. 0.40E+00   23.9     1.41148072     -1074.2615269465  7.64E-01
    99 Broy./Diag. 0.40E+00   25.0     0.05181986     -1077.4104566498 -3.15E+00
   100 Broy./Diag. 0.40E+00   24.4     1.47865240     -1077.6340510547 -2.24E-01
   101 Broy./Diag. 0.40E+00   23.4     1.03578438     -1077.3848826623  2.49E-01
   102 Broy./Diag. 0.40E+00   23.7     1.41233235     -1077.1398945149  2.45E-01
   103 Broy./Diag. 0.40E+00   24.3     1.73982286     -1077.3898799820 -2.50E-01
   104 Broy./Diag. 0.40E+00   24.8     1.59764572     -1079.2778863048 -1.89E+00
   105 Broy./Diag. 0.40E+00   24.2     1.63077774     -1077.8640261339  1.41E+00
   106 Broy./Diag. 0.40E+00   22.3     1.71592618     -1074.9507283240  2.91E+00
   107 Broy./Diag. 0.40E+00   24.0     1.75409464     -1078.9675829506 -4.02E+00
   108 Broy./Diag. 0.40E+00   24.3     1.44596975     -1077.3405817734  1.63E+00
   109 Broy./Diag. 0.40E+00   23.9     1.52555561     -1073.8366921436  3.50E+00
   110 Broy./Diag. 0.40E+00   24.2     1.55501421     -1078.5647975175 -4.73E+00
   111 Broy./Diag. 0.40E+00   24.1     1.47922406     -1077.4439251333  1.12E+00
   112 Broy./Diag. 0.40E+00   24.8     1.22340811     -1077.3007889154  1.43E-01
   113 Broy./Diag. 0.40E+00   24.7     1.58179085     -1076.0799349582  1.22E+00
   114 Broy./Diag. 0.40E+00   24.4     1.41910048     -1074.4708549909  1.61E+00
   115 Broy./Diag. 0.40E+00   24.5     1.02472567     -1077.0911904945 -2.62E+00
   116 Broy./Diag. 0.40E+00   24.8     1.30449020     -1077.3284346460 -2.37E-01
   117 Broy./Diag. 0.40E+00   24.5     1.22077091     -1074.4019254815  2.93E+00
   118 Broy./Diag. 0.40E+00   24.6     1.21376024     -1077.3785275092 -2.98E+00
   119 Broy./Diag. 0.40E+00   24.5     1.62180081     -1077.3962148422 -1.77E-02
   120 Broy./Diag. 0.40E+00   24.7     1.70357386     -1079.3929744338 -2.00E+00
   121 Broy./Diag. 0.40E+00   24.4     1.53682075     -1074.1574094627  5.24E+00
   122 Broy./Diag. 0.40E+00   24.5     1.71409095     -1075.8885451994 -1.73E+00
   123 Broy./Diag. 0.40E+00   24.8     1.75129103     -1075.7916762637  9.69E-02
   124 Broy./Diag. 0.40E+00   24.6     1.77221423     -1077.2142949877 -1.42E+00
   125 Broy./Diag. 0.40E+00   24.7     1.82121343     -1077.0196558971  1.95E-01
   126 Broy./Diag. 0.40E+00   24.6     1.23066216     -1076.8521809723  1.67E-01
   127 Broy./Diag. 0.40E+00   24.8     1.40452886     -1074.3348023153  2.52E+00
   128 Broy./Diag. 0.40E+00   24.8     1.40110854     -1078.1115842517 -3.78E+00
   129 Broy./Diag. 0.40E+00   24.1     1.43283098     -1078.0205613197  9.10E-02
   130 Broy./Diag. 0.40E+00   24.4     1.51947741     -1077.9158564285  1.05E-01
   131 Broy./Diag. 0.40E+00   24.3     0.34686062     -1074.5224071816  3.39E+00
   132 Broy./Diag. 0.40E+00   23.7     1.73017974     -1074.7497609168 -2.27E-01
   133 Broy./Diag. 0.40E+00   24.0     1.74718022     -1078.9657527285 -4.22E+00
   134 Broy./Diag. 0.40E+00   24.0     1.06102810     -1077.2159890863  1.75E+00
   135 Broy./Diag. 0.40E+00   24.3     1.23547460     -1077.0216770894  1.94E-01
   136 Broy./Diag. 0.40E+00   24.0     1.43029984     -1073.9497059030  3.07E+00
   137 Broy./Diag. 0.40E+00   24.6     1.53844980     -1078.2339522840 -4.28E+00
   138 Broy./Diag. 0.40E+00   23.0     1.25108846     -1077.3528497312  8.81E-01
   139 Broy./Diag. 0.40E+00   24.2     1.52478991     -1077.4492947887 -9.64E-02
   140 Broy./Diag. 0.40E+00   23.6     1.11654859     -1076.3442471046  1.11E+00
   141 Broy./Diag. 0.40E+00   24.7     0.31365615     -1074.6304685200  1.71E+00
   142 Broy./Diag. 0.40E+00   25.4     1.30953905     -1074.3052420300  3.25E-01
   143 Broy./Diag. 0.40E+00   25.2     1.41533447     -1077.5846134889 -3.28E+00
   144 Broy./Diag. 0.40E+00   25.0     1.04427580     -1076.1608962425  1.42E+00
   145 Broy./Diag. 0.40E+00   24.2     1.39501862     -1074.4466174576  1.71E+00
   146 Broy./Diag. 0.40E+00   23.3     1.61796755     -1077.8621447219 -3.42E+00
   147 Broy./Diag. 0.40E+00   23.5     1.69956156     -1079.2209742110 -1.36E+00
   148 Broy./Diag. 0.40E+00   23.6     1.72278815     -1078.6983390570  5.23E-01
   149 Broy./Diag. 0.40E+00   24.4     1.11418138     -1077.2141757808  1.48E+00
   150 Broy./Diag. 0.40E+00   25.8     1.39568880     -1076.6328488354  5.81E-01
   151 Broy./Diag. 0.40E+00   24.6     1.31997491     -1076.4684455808  1.64E-01
   152 Broy./Diag. 0.40E+00   24.6     1.23263990     -1074.5518785687  1.92E+00
   153 Broy./Diag. 0.40E+00   24.8     1.20720861     -1077.6974716340 -3.15E+00
   154 Broy./Diag. 0.40E+00   24.7     1.45458542     -1074.5775497863  3.12E+00
   155 Broy./Diag. 0.40E+00   24.9     1.45631654     -1077.9789307613 -3.40E+00
   156 Broy./Diag. 0.40E+00   24.7     1.44443032     -1077.4011841926  5.78E-01
   157 Broy./Diag. 0.40E+00   24.8     1.24116423     -1077.2933079275  1.08E-01
   158 Broy./Diag. 0.40E+00   24.7     1.71481906     -1074.8148885040  2.48E+00
   159 Broy./Diag. 0.40E+00   24.7     1.73870764     -1079.3465859156 -4.53E+00
   160 Broy./Diag. 0.40E+00   24.8     1.77199592     -1077.4545712201  1.89E+00
   161 Broy./Diag. 0.40E+00   24.7     1.82859786     -1076.7793713368  6.75E-01
   162 Broy./Diag. 0.40E+00   24.6     1.48302325     -1073.6790945694  3.10E+00
   163 Broy./Diag. 0.40E+00   24.7     1.46265542     -1078.1969224379 -4.52E+00
   164 Broy./Diag. 0.40E+00   25.5     1.67903154     -1074.5191883676  3.68E+00
   165 Broy./Diag. 0.40E+00   24.8     1.54078290     -1077.8181763865 -3.30E+00
   166 Broy./Diag. 0.40E+00   24.7     1.22799371     -1077.6409111934  1.77E-01
   167 Broy./Diag. 0.40E+00   25.0     0.81166970     -1076.0450372351  1.60E+00
   168 Broy./Diag. 0.40E+00   24.8     0.80482921     -1074.3058390583  1.74E+00
   169 Broy./Diag. 0.40E+00   22.4     1.00451334     -1076.5361434509 -2.23E+00
   170 Broy./Diag. 0.40E+00   22.5     1.53244215     -1077.6363315082 -1.10E+00
   171 Broy./Diag. 0.40E+00   25.0     1.56870543     -1077.5191516351  1.17E-01
   172 Broy./Diag. 0.40E+00   24.4     1.45229682     -1077.4600507129  5.91E-02
   173 Broy./Diag. 0.40E+00   24.4     1.15190233     -1074.3819737504  3.08E+00
   174 Broy./Diag. 0.40E+00   23.9     1.50384207     -1078.4147530641 -4.03E+00
   175 Broy./Diag. 0.40E+00   24.7     1.20787327     -1076.2179495648  2.20E+00
   176 Broy./Diag. 0.40E+00   24.8     1.69822489     -1077.3486932325 -1.13E+00
   177 Broy./Diag. 0.40E+00   25.0     1.23747547     -1077.3839210826 -3.52E-02
   178 Broy./Diag. 0.40E+00   23.6     1.23484283     -1074.1848718550  3.20E+00
   179 Broy./Diag. 0.40E+00   24.1     1.01644425     -1077.3197688277 -3.13E+00
   180 Broy./Diag. 0.40E+00   25.2     1.16671598     -1077.2914143705  2.84E-02
   181 Broy./Diag. 0.40E+00   22.2     1.67503666     -1074.3488464931  2.94E+00
   182 Broy./Diag. 0.40E+00   23.4     1.68837870     -1079.2173967802 -4.87E+00
   183 Broy./Diag. 0.40E+00   24.3     1.33298855     -1077.3226302507  1.89E+00
   184 Broy./Diag. 0.40E+00   24.6     1.72323882     -1074.4507201436  2.87E+00
   185 Broy./Diag. 0.40E+00   24.8     1.73419158     -1079.1439592601 -4.69E+00
   186 Broy./Diag. 0.40E+00   24.6     1.36576769     -1077.2109921661  1.93E+00
   187 Broy./Diag. 0.40E+00   24.5     1.22084304     -1077.8111138684 -6.00E-01
   188 Broy./Diag. 0.40E+00   25.2     1.35895406     -1074.4760167335  3.34E+00
   189 Broy./Diag. 0.40E+00   22.7     1.36422292     -1077.7661525205 -3.29E+00
   190 Broy./Diag. 0.40E+00   23.8     1.59283011     -1075.0210602115  2.75E+00
   191 Broy./Diag. 0.40E+00   24.4     1.52196285     -1077.2629682173 -2.24E+00
   192 Broy./Diag. 0.40E+00   24.7     1.50114305     -1074.6460802871  2.62E+00
   193 Broy./Diag. 0.40E+00   25.4     1.55731061     -1078.3224608285 -3.68E+00
   194 Broy./Diag. 0.40E+00   24.6     1.57658389     -1077.4209969742  9.01E-01
   195 Broy./Diag. 0.40E+00   25.3     1.65385002     -1076.0764211758  1.34E+00
   196 Broy./Diag. 0.40E+00   24.4     1.15807455     -1077.3031153197 -1.23E+00
   197 Broy./Diag. 0.40E+00   24.8     1.43361575     -1077.1493568269  1.54E-01
   198 Broy./Diag. 0.40E+00   24.4     1.32229347     -1077.0680017696  8.14E-02
   199 Broy./Diag. 0.40E+00   24.6     1.07302567     -1078.4000015290 -1.33E+00
   200 Broy./Diag. 0.40E+00   24.3     1.20305022     -1078.0078470015  3.92E-01
   201 Broy./Diag. 0.40E+00   24.3     0.69976397     -1075.2501999674  2.76E+00
   202 Broy./Diag. 0.40E+00   24.5     1.71616482     -1074.2552679277  9.95E-01
   203 Broy./Diag. 0.40E+00   25.4     1.73718335     -1079.4009560067 -5.15E+00
   204 Broy./Diag. 0.40E+00   24.5     1.54442363     -1077.3770969570  2.02E+00
   205 Broy./Diag. 0.40E+00   23.7     1.21283817     -1073.7335896990  3.64E+00
   206 Broy./Diag. 0.40E+00   24.5     0.99258525     -1077.7648616466 -4.03E+00
   207 Broy./Diag. 0.40E+00   24.7     1.13561434     -1077.5215035742  2.43E-01
   208 Broy./Diag. 0.40E+00   25.6     1.24235070     -1074.8329375682  2.69E+00
   209 Broy./Diag. 0.40E+00   23.5     1.23459551     -1077.3309308243 -2.50E+00
   210 Broy./Diag. 0.40E+00   24.6     1.77255912     -1074.5772514973  2.75E+00
   211 Broy./Diag. 0.40E+00   24.1     1.79057593     -1077.3391159536 -2.76E+00
   212 Broy./Diag. 0.40E+00   24.3     1.50004860     -1076.8200775064  5.19E-01
   213 Broy./Diag. 0.40E+00   24.4     1.70770049     -1076.2171305591  6.03E-01
   214 Broy./Diag. 0.40E+00   24.3     1.72005571     -1078.9156802330 -2.70E+00
   215 Broy./Diag. 0.40E+00   24.6     1.09757666     -1076.7933811736  2.12E+00
   216 Broy./Diag. 0.40E+00   22.9     1.22508198     -1076.5891491364  2.04E-01
   217 Broy./Diag. 0.40E+00   24.2     1.46186913     -1073.6020645273  2.99E+00
   218 Broy./Diag. 0.40E+00   24.1     1.71401881     -1078.4088764486 -4.81E+00
   219 Broy./Diag. 0.40E+00   24.8     1.75078273     -1079.4963130176 -1.09E+00
   220 Broy./Diag. 0.40E+00   24.6     1.39809529     -1074.4000650078  5.10E+00
   221 Broy./Diag. 0.40E+00   25.0     0.08172617     -1077.4141486222 -3.01E+00
   222 Broy./Diag. 0.40E+00   24.7     1.42066649     -1077.7267534125 -3.13E-01
   223 Broy./Diag. 0.40E+00   24.3     1.53237615     -1074.6450040802  3.08E+00
   224 Broy./Diag. 0.40E+00   24.6     1.55596838     -1076.9951004149 -2.35E+00
   225 Broy./Diag. 0.40E+00   24.8     1.40383450     -1076.9727859587  2.23E-02
   226 Broy./Diag. 0.40E+00   23.8     1.45658728     -1076.8858999402  8.69E-02
   227 Broy./Diag. 0.40E+00   23.2     1.46782125     -1074.0469084436  2.84E+00
   228 Broy./Diag. 0.40E+00   22.2     1.72715223     -1078.8144029850 -4.77E+00
   229 Broy./Diag. 0.40E+00   24.0     1.62533634     -1079.2510341877 -4.37E-01
   230 Broy./Diag. 0.40E+00   24.1     1.66965863     -1077.3079352847  1.94E+00
   231 Broy./Diag. 0.40E+00   23.5     1.58707405     -1077.2438481469  6.41E-02
   232 Broy./Diag. 0.40E+00   24.0     1.56279251     -1076.3948407743  8.49E-01
   233 Broy./Diag. 0.40E+00   24.5     1.22726780     -1074.1506222352  2.24E+00
   234 Broy./Diag. 0.40E+00   25.4     1.05786206     -1077.4802649314 -3.33E+00
   235 Broy./Diag. 0.40E+00   24.8     1.59428157     -1077.3600000554  1.20E-01
   236 Broy./Diag. 0.40E+00   24.9     1.21785024     -1077.3899241576 -2.99E-02
   237 Broy./Diag. 0.40E+00   24.7     1.64735142     -1074.6166909785  2.77E+00
   238 Broy./Diag. 0.40E+00   24.6     1.69576737     -1079.5106437642 -4.89E+00
   239 Broy./Diag. 0.40E+00   24.7     1.71920492     -1074.1392834289  5.37E+00
   240 Broy./Diag. 0.40E+00   25.0     1.76569824     -1079.0274063864 -4.89E+00
   241 Broy./Diag. 0.40E+00   24.7     1.81866776     -1077.3977644784  1.63E+00
   242 Broy./Diag. 0.40E+00   24.8     1.39865015     -1077.4067497505 -8.99E-03
   243 Broy./Diag. 0.40E+00   24.5     1.19448874     -1077.9058518412 -4.99E-01
   244 Broy./Diag. 0.40E+00   24.6     1.59607450     -1074.5798964240  3.33E+00
   245 Broy./Diag. 0.40E+00   24.8     1.58895448     -1077.5446587228 -2.96E+00
   246 Broy./Diag. 0.40E+00   24.3     1.53932528     -1077.6143905254 -6.97E-02
   247 Broy./Diag. 0.40E+00   24.5     1.05782204     -1076.2870142943  1.33E+00
   248 Broy./Diag. 0.40E+00   22.9     0.48570286     -1074.7243838868  1.56E+00
   249 Broy./Diag. 0.40E+00   24.3     1.55012332     -1074.9976573002 -2.73E-01
   250 Broy./Diag. 0.40E+00   24.5     1.58068412     -1078.1650781862 -3.17E+00
   251 Broy./Diag. 0.40E+00   22.1     1.19824405     -1075.8707065403  2.29E+00
   252 Broy./Diag. 0.40E+00   23.9     1.27032085     -1077.2949801336 -1.42E+00
   253 Broy./Diag. 0.40E+00   23.9     1.30366431     -1077.0885542148  2.06E-01
   254 Broy./Diag. 0.40E+00   24.3     1.23399837     -1077.0464494177  4.21E-02
   255 Broy./Diag. 0.40E+00   24.9     0.17957886     -1073.7966212667  3.25E+00
   256 Broy./Diag. 0.40E+00   24.0     1.39285619     -1074.9157745067 -1.12E+00
   257 Broy./Diag. 0.40E+00   23.0     1.40861027     -1077.6187828117 -2.70E+00
   258 Broy./Diag. 0.40E+00   22.6     1.65863625     -1074.7524337465  2.87E+00
   259 Broy./Diag. 0.40E+00   23.9     1.75049750     -1079.2810539571 -4.53E+00
   260 Broy./Diag. 0.40E+00   23.8     1.71966196     -1078.8477510353  4.33E-01
   261 Broy./Diag. 0.40E+00   23.8     1.77215290     -1076.9866509845  1.86E+00
   262 Broy./Diag. 0.40E+00   24.4     1.83796068     -1076.6147157167  3.72E-01
   263 Broy./Diag. 0.40E+00   24.6     1.44819819     -1073.5835932859  3.03E+00
   264 Broy./Diag. 0.40E+00   24.6     0.04942879     -1078.2779898775 -4.69E+00
   265 Broy./Diag. 0.40E+00   24.8     1.71019202     -1078.1830627391  9.49E-02
   266 Broy./Diag. 0.40E+00   24.9     1.58189759     -1078.0217652157  1.61E-01
   267 Broy./Diag. 0.40E+00   24.8     1.46742187     -1076.1667383607  1.86E+00
   268 Broy./Diag. 0.40E+00   24.7     1.60819338     -1077.0899077966 -9.23E-01
   269 Broy./Diag. 0.40E+00   24.2     0.09630875     -1074.1448926599  2.95E+00
   270 Broy./Diag. 0.40E+00   25.0     1.70991990     -1074.0250977515  1.20E-01
   271 Broy./Diag. 0.40E+00   24.5     1.72282704     -1079.0552419117 -5.03E+00
   272 Broy./Diag. 0.40E+00   24.5     1.26198901     -1074.7537637561  4.30E+00
   273 Broy./Diag. 0.40E+00   24.7     1.07582535     -1077.3391306695 -2.59E+00
   274 Broy./Diag. 0.40E+00   24.7     1.69121862     -1077.2825764023  5.66E-02
   275 Broy./Diag. 0.40E+00   24.6     1.71064306     -1078.1477357498 -8.65E-01
   276 Broy./Diag. 0.40E+00   25.0     1.19896945     -1076.8884057171  1.26E+00
   277 Broy./Diag. 0.40E+00   24.5     1.57447650     -1077.0088384286 -1.20E-01
   278 Broy./Diag. 0.40E+00   24.8     1.49709162     -1076.0640456026  9.45E-01
   279 Broy./Diag. 0.40E+00   24.1     1.47787781     -1078.1353929995 -2.07E+00
   280 Broy./Diag. 0.40E+00   24.3     1.23904787     -1074.2417886483  3.89E+00
   281 Broy./Diag. 0.40E+00   24.7     1.23948279     -1078.2190761402 -3.98E+00
   282 Broy./Diag. 0.40E+00   24.8     1.70045475     -1076.4806596601  1.74E+00
   283 Broy./Diag. 0.40E+00   24.8     1.51896401     -1074.5131233876  1.97E+00
   284 Broy./Diag. 0.40E+00   24.2     1.53486450     -1077.2699400124 -2.76E+00
   285 Broy./Diag. 0.40E+00   24.5     1.53242323     -1077.1293778753  1.41E-01
   286 Broy./Diag. 0.40E+00   25.1     1.58075219     -1077.1328385105 -3.46E-03
   287 Broy./Diag. 0.40E+00   25.2     1.46611522     -1074.2104771991  2.92E+00
   288 Broy./Diag. 0.40E+00   24.8     1.57086952     -1077.7863301340 -3.58E+00
   289 Broy./Diag. 0.40E+00   24.6     1.58301443     -1077.5772954126  2.09E-01
   290 Broy./Diag. 0.40E+00   24.5     0.19476042     -1077.5111609650  6.61E-02
   291 Broy./Diag. 0.40E+00   23.4     1.74014774     -1077.7822473792 -2.71E-01
   292 Broy./Diag. 0.40E+00   23.0     1.75042190     -1079.4209174571 -1.64E+00
   293 Broy./Diag. 0.40E+00   24.1     1.24784393     -1074.2485066860  5.17E+00
   294 Broy./Diag. 0.40E+00   24.6     1.63612343     -1077.7427660476 -3.49E+00
   295 Broy./Diag. 0.40E+00   24.6     1.63095020     -1077.4986433319  2.44E-01
   296 Broy./Diag. 0.40E+00   24.5     1.26096873     -1074.8244775757  2.67E+00
   297 Broy./Diag. 0.40E+00   24.8     1.46777937     -1077.4774926277 -2.65E+00
   298 Broy./Diag. 0.40E+00   24.9     1.32585480     -1077.2950930439  1.82E-01
   299 Broy./Diag. 0.40E+00   25.1     1.24473282     -1077.4136485728 -1.19E-01
   300 Broy./Diag. 0.40E+00   24.1     1.69952049     -1076.5245553131  8.89E-01

  Leaving inner SCF loop after reaching   300 steps.


  Electronic density on regular grids:       -512.0015154699       -0.0015154699
  Core density on regular grids:              511.9995835295       -0.0004164705
  Total charge density on r-space grids:       -0.0019319404
  Total charge density g-space grids:          -0.0019319404

  Overlap energy of the core charge distribution:               0.00000000000000
  Self energy of the core charge distribution:              -2838.21791979120962
  Core Hamiltonian energy:                                    759.80636733552308
  Hartree energy:                                            1240.55595780579961
  Exchange-correlation energy:                               -238.66896066317375

  Total energy:                                             -1076.52455531306055

 *** WARNING in qs_scf.F:542 :: SCF run NOT converged ***


 ENERGY| Total FORCE_EVAL ( QS ) energy (a.u.):            -1072.417430215871718


 ATOMIC FORCES in [a.u.]

 # Atom   Kind   Element          X              Y              Z
      1      1      O          -0.05583563    -0.00887635     0.02078133
      2      2      H          -0.02926292    -0.00841209     0.09560290
      3      2      H           0.06564028    -0.00145659     0.02825686
      4      1      O           0.06677678    -0.01623905     0.11633790
      5      2      H          -0.04440770     0.05222315     0.06124719
      6      2      H           0.00393668     0.02317522    -0.03815826
      7      1      O          -0.08409702    -0.02394945    -0.00560654
      8      2      H           0.01493513    -0.07536890     0.02887423
      9      2      H           0.06561970     0.02003434     0.01618181
     10      1      O           0.02119933     0.03261397     0.00016947
     11      2      H           0.05827955     0.04883321    -0.06141875
     12      2      H          -0.08268305     0.00715225     0.02178026
     13      1      O           0.04364912    -0.05355069    -0.01236103
     14      2      H          -0.04944346    -0.03018459     0.01624834
     15      2      H           0.01854203     0.04685795     0.07912005
     16      1      O          -0.04790897    -0.10092392    -0.03146833
     17      2      H           0.05938839     0.02767336     0.06399262
     18      2      H          -0.00700361     0.04218939    -0.05128435
     19      1      O          -0.03642564     0.05321279     0.09791757
     20      2      H           0.01474860     0.00597337    -0.03819927
     21      2      H          -0.01056769     0.02250592     0.01665934
     22      1      O           0.03845272     0.09564921     0.02306111
     23      2      H           0.02267180    -0.00378351     0.08826386
     24      2      H          -0.08384025    -0.03227245    -0.02773013
     25      1      O           0.08915733    -0.01099008     0.06730519
     26      2      H          -0.03868089     0.04690200    -0.07823093
     27      2      H          -0.06597422    -0.00505066     0.06862309
     28      1      O           0.00253609     0.01187111     0.01975309
     29      2      H          -0.06659241    -0.00347518     0.03914213
     30      2      H           0.06794912     0.05328380     0.01157929
     31      1      O           0.04780315     0.12609377     0.14192244
     32      2      H           0.02093503    -0.07624651     0.03323241
     33      2      H          -0.03735788    -0.00043357    -0.10107882
     34      1      O          -0.03143360    -0.02718912     0.01441082
     35      2      H          -0.02683857     0.04806460     0.03700932
     36      2      H           0.05310690     0.00131829     0.04450715
     37      1      O           0.03770602     0.11140623     0.07217805
     38      2      H          -0.04853533    -0.01506982     0.00258450
     39      2      H           0.02131712    -0.08150474     0.06294422
     40      1      O          -0.04496481     0.08606700    -0.10192891
     41      2      H           0.03749725    -0.07465353    -0.00877913
     42      2      H           0.02181546     0.04857295    -0.06791032
     43      1      O           0.00543539     0.14577875     0.11459081
     44      2      H           0.10387832    -0.05043481    -0.02043840
     45      2      H          -0.07639786    -0.01815613    -0.03559377
     46      1      O           0.02007109     0.04785978     0.09420815
     47      2      H          -0.07386851    -0.04151381     0.05203049
     48      2      H           0.05652128    -0.02869694    -0.03316281
     49      1      O          -0.03181096     0.11869653     0.07543635
     50      2      H           0.00209187    -0.02889219     0.09611711
     51      2      H          -0.00450777    -0.05768508    -0.09875868
     52      1      O          -0.06690254     0.03942799    -0.10250854
     53      2      H           0.06599672    -0.04092191    -0.01743886
     54      2      H          -0.00212172    -0.07713645     0.03263105
     55      1      O          -0.05352867    -0.03101427     0.30155348
     56      2      H           0.09907573     0.07563119    -0.22717112
     57      2      H           0.00380656     0.03300733     0.00314267
     58      1      O           0.03339385     0.10988565     0.07719504
     59      2      H          -0.07360076    -0.02686439    -0.02762553
     60      2      H           0.06801242    -0.06969582     0.01515606
     61      1      O          -0.05902305     0.08492009     0.07255498
     62      2      H          -0.00919012    -0.00516538    -0.05901981
     63      2      H           0.11122654     0.01702963     0.04282355
     64      1      O           0.04788229     0.10657730     0.02408255
     65      2      H          -0.06281837     0.01670819     0.01270145
     66      2      H           0.00424255    -0.05262849    -0.05574876
     67      1      O           0.05542923     0.11144567    -0.03725217
     68      2      H          -0.09089872     0.03369468    -0.02688893
     69      2      H          -0.00540167    -0.09876741    -0.00086832
     70      1      O          -0.04682926     0.02847284    -0.10478301
     71      2      H           0.05061046     0.05531368     0.06495736
     72      2      H          -0.00428856    -0.06678992     0.01137113
     73      1      O           0.03576157     0.08853800     0.07830960
     74      2      H           0.01364541    -0.00621400    -0.10647439
     75      2      H          -0.02253190    -0.04363696    -0.00709437
     76      1      O          -0.07113415    -0.13318931    -0.12902410
     77      2      H           0.01423612    -0.00645473     0.06027921
     78      2      H           0.00774269     0.04006146    -0.03664840
     79      1      O           0.02340100     0.13085805     0.00391386
     80      2      H           0.04199518    -0.06878452    -0.04062959
     81      2      H          -0.04308259    -0.04263129     0.04058485
     82      1      O          -0.05518319     0.02712178     0.09503680
     83      2      H           0.01889359    -0.05255496    -0.00691029
     84      2      H           0.02722254     0.07325298     0.01453406
     85      1      O           0.00680308    -0.04995631    -0.14769437
     86      2      H          -0.03281540     0.04091082     0.00889047
     87      2      H           0.04931270    -0.02943065     0.06989866
     88      1      O           0.09487457    -0.08328226     0.00150914
     89      2      H          -0.05755854    -0.02280484     0.06278421
     90      2      H          -0.00517841     0.04962717    -0.08733358
     91      1      O           0.00759635    -0.04678072    -0.00519186
     92      2      H          -0.00768210    -0.04376300     0.02372481
     93      2      H           0.03028989     0.08151481    -0.02186089
     94      1      O           0.07491007     0.04121365    -0.01283629
     95      2      H           0.01060016    -0.03176875    -0.02379601
     96      2      H          -0.08174441    -0.05301342     0.06528958
     97      1      O          -0.02047726     0.10832217     0.15421084
     98      2      H           0.01678916     0.05207983    -0.10574949
     99      2      H          -0.04732116    -0.09812917    -0.02436749
    100      1      O          -0.08384510     0.06944170    -0.05684891
    101      2      H          -0.00834705    -0.04088436    -0.04254435
    102      2      H           0.01280960    -0.04185869     0.04704901
    103      1      O           0.00724826     0.00050170    -0.12994935
    104      2      H           0.03336655     0.00727376     0.09652157
    105      2      H          -0.06935203     0.05278306    -0.06212352
    106      1      O          -0.06646762    -0.09677057     0.12090692
    107      2      H          -0.01793274     0.05406374     0.04162526
    108      2      H           0.05152855    -0.04548627    -0.03883527
    109      1      O          -0.09494964    -0.00938238     0.11775306
    110      2      H           0.04491048     0.03881482    -0.04630685
    111      2      H           0.05602618    -0.04634559     0.07634547
    112      1      O          -0.02442112     0.09502051    -0.03012791
    113      2      H          -0.00059458    -0.08565834    -0.05451769
    114      2      H           0.03364845     0.02248393     0.04739328
    115      1      O          -0.03915680    -0.02627066    -0.02001822
    116      2      H           0.06769758     0.03097216     0.01934800
    117      2      H          -0.04170159     0.00609469     0.08751763
    118      1      O          -0.03465211     0.01734704    -0.08410435
    119      2      H           0.06195537    -0.01531219    -0.00982177
    120      2      H          -0.04690680    -0.03327225     0.08045729
    121      1      O          -0.06232570     0.02532035    -0.04837849
    122      2      H           0.03661586     0.05610108     0.00143016
    123      2      H          -0.00688582     0.01057204    -0.05893143
    124      1      O          -0.06872646    -0.00257082    -0.16037685
    125      2      H          -0.00374218     0.06622230     0.06592895
    126      2      H           0.02507956    -0.07661071     0.00748196
    127      1      O          -0.06207400     0.07283010     0.19859217
    128      2      H           0.10714159     0.04905235    -0.03039784
    129      2      H          -0.03286561    -0.08814097    -0.08990989
    130      1      O           0.04438021     0.08050517    -0.07249494
    131      2      H          -0.06058420     0.04426959     0.01677212
    132      2      H          -0.00803292    -0.07165462    -0.00782595
    133      1      O           0.03082543    -0.04341342     0.14695071
    134      2      H           0.01355624     0.07035310    -0.00827896
    135      2      H          -0.08878656     0.02383127    -0.03225601
    136      1      O           0.02595685    -0.05333442    -0.06135942
    137      2      H           0.04040449     0.04145738     0.07247366
    138      2      H          -0.03920009    -0.07776229     0.06925912
    139      1      O           0.08828028    -0.05302777     0.02259011
    140      2      H          -0.04003325     0.02066097    -0.06833691
    141      2      H          -0.03136314     0.04750608     0.03273185
    142      1      O          -0.02032493    -0.02662470    -0.11237489
    143      2      H           0.00023515    -0.04588133     0.03907572
    144      2      H          -0.01425736     0.10851675     0.02885905
    145      1      O           0.07746039    -0.03093895     0.06131654
    146      2      H          -0.04790972    -0.03741767     0.01248782
    147      2      H          -0.03112687     0.02910613    -0.05476746
    148      1      O          -0.02944180     0.09504699     0.15539525
    149      2      H           0.07029187     0.00472941    -0.05201197
    150      2      H          -0.03820228    -0.05639914     0.00069433
    151      1      O          -0.04492079    -0.00759728     0.04862257
    152      2      H           0.00275436    -0.07029893     0.09671145
    153      2      H           0.06387966    -0.00647640    -0.02352515
    154      1      O          -0.02071296    -0.03938464     0.03554327
    155      2      H           0.00537312     0.02627947    -0.06504670
    156      2      H           0.03737796     0.07958771     0.08223342
    157      1      O           0.02724749     0.07830373    -0.02974128
    158      2      H          -0.02523199     0.02072894     0.06835353
    159      2      H           0.03134809    -0.09125186     0.01800177
    160      1      O           0.07817073    -0.04542228     0.01688537
    161      2      H          -0.03093609     0.03623813     0.01323379
    162      2      H          -0.02887971    -0.04614560    -0.03605090
    163      1      O           0.05494365     0.04143342    -0.07877866
    164      2      H          -0.03974608     0.06841021    -0.01187170
    165      2      H          -0.01749561    -0.06005518     0.04928636
    166      1      O           0.03581728     0.11813687    -0.00701064
    167      2      H           0.01867057     0.01361360     0.07791339
    168      2      H          -0.05065471    -0.02297399    -0.03595154
    169      1      O           0.01180799     0.01936114    -0.14511996
    170      2      H          -0.05398752     0.06164444    -0.04262698
    171      2      H           0.01974986     0.01380159     0.03799078
    172      1      O          -0.03035114    -0.07682772    -0.10946232
    173      2      H          -0.04568338    -0.02011607     0.08078020
    174      2      H           0.05231961     0.05604057     0.02494481
    175      1      O           0.07004121    -0.01879067    -0.03324444
    176      2      H          -0.07122178     0.04920426     0.01391683
    177      2      H           0.01823753    -0.02840813     0.09496248
    178      1      O          -0.00562620     0.12357748     0.11172023
    179      2      H           0.04286859    -0.03770510     0.02209194
    180      2      H          -0.02476308    -0.00891934    -0.08070008
    181      1      O           0.05279866    -0.00286250     0.06713092
    182      2      H          -0.02385644     0.07677241    -0.00561235
    183      2      H          -0.00298505    -0.04603372    -0.00544346
    184      1      O           0.03614027    -0.03438660     0.03340448
    185      2      H          -0.01707442     0.08439470    -0.05104102
    186      2      H           0.01246409    -0.01010022     0.05764022
    187      1      O           0.00617759    -0.09820312     0.01819108
    188      2      H           0.01512556     0.06930745    -0.03717227
    189      2      H          -0.05367060    -0.03883959    -0.06036044
    190      1      O          -0.07188990    -0.04122815     0.00867074
    191      2      H           0.03752272    -0.08068766    -0.01591817
    192      2      H           0.05159222     0.07717515     0.01833887
 SUM OF ATOMIC FORCES          -0.06438911     0.93039181     1.38812850     1.67232640

 -------------------------------------------------------------------------------
 -                                                                             -
 -                                DBCSR STATISTICS                             -
 -                                                                             -
 -------------------------------------------------------------------------------
 COUNTER                                    TOTAL       BLAS       SMM       ACC
 flops     5 x     5 x   256           3502195200       0.0%    100.0%      0.0%
 flops     5 x    13 x   256           4167188480       0.0%    100.0%      0.0%
 flops    13 x     5 x   256           4357516800       0.0%    100.0%      0.0%
 flops    13 x    13 x   256           6276827648       0.0%    100.0%      0.0%
 flops inhomo. stacks                           0       0.0%      0.0%      0.0%
 flops total                        18.303728E+09       0.0%    100.0%      0.0%
 flops max/rank                     18.303728E+09       0.0%    100.0%      0.0%
 matmuls inhomo. stacks                         0       0.0%      0.0%      0.0%
 matmuls total                             602301       0.0%    100.0%      0.0%
 number of processed stacks                 42140       0.0%    100.0%      0.0%
 average stack size                                     0.0      14.3       0.0
 marketing flops                   333.927416E+09
 -------------------------------------------------------------------------------
 # multiplications                            301
 max memory usage/rank              30.519992E+09
 # max total images/rank                        1
 # max 3D layers                                1
 # MPI messages exchanged                       0
 MPI messages size (bytes):
  total size                         0.000000E+00
  min size                           0.000000E+00
  max size                           0.000000E+00
  average size                       0.000000E+00
 MPI breakdown and total messages size (bytes):
             size <=      128                   0                        0
       128 < size <=     8192                   0                        0
      8192 < size <=    32768                   0                        0
     32768 < size <=   131072                   0                        0
    131072 < size <=  4194304                   0                        0
   4194304 < size <= 16777216                   0                        0
  16777216 < size                               0                        0
 -------------------------------------------------------------------------------

 MEMORY| Estimated peak process memory [MiB]                               29101

 -------------------------------------------------------------------------------
 -                                                                             -
 -                           R E F E R E N C E S                               -
 -                                                                             -
 -------------------------------------------------------------------------------
 
 CP2K version 7.1, the CP2K developers group (2019).
 CP2K is freely available from https://www.cp2k.org/ .

 Schuett, Ole; Messmer, Peter; Hutter, Juerg; VandeVondele, Joost. 
 Electronic Structure Calculations on Graphics Processing Units, John
 Wiley & Sons, Ltd, 173-190 (2016). 
 GPU-Accelerated Sparse Matrix-Matrix Multiplication for
 Linear Scaling Density Functional Theory.
 https://dx.doi.org/10.1002/9781118670712.ch8

 Borstnik, U; VandeVondele, J; Weber, V; Hutter, J. 
 PARALLEL COMPUTING, 40 (5-6), 47-58 (2014). 
 Sparse matrix multiplication: The distributed block-compressed sparse
 row library.
 https://dx.doi.org/10.1016/j.parco.2014.03.012

 Hutter, J; Iannuzzi, M; Schiffmann, F; VandeVondele, J. 
 WIREs Comput Mol Sci., 4 (1), 15-25 (2014). 
 CP2K: atomistic simulations of condensed matter systems.
 https://dx.doi.org/10.1002/wcms.1159

 Krack, M. 
 THEORETICAL CHEMISTRY ACCOUNTS, 114 (1-3), 145-152 (2005). 
 Pseudopotentials for H to Kr optimized for gradient-corrected
 exchange-correlation functionals.
 https://dx.doi.org/10.1007/s00214-005-0655-y

 VandeVondele, J; Krack, M; Mohamed, F; Parrinello, M; Chassaing, T;
 Hutter, J. COMPUTER PHYSICS COMMUNICATIONS, 167 (2), 103-128 (2005). 
 QUICKSTEP: Fast and accurate density functional calculations using a
 mixed Gaussian and plane waves approach.
 https://dx.doi.org/10.1016/j.cpc.2004.12.014

 Frigo, M; Johnson, SG. 
 PROCEEDINGS OF THE IEEE, 93 (2), 216-231 (2005). 
 The design and implementation of FFTW3.
 https://dx.doi.org/10.1109/JPROC.2004.840301

 Hartwigsen, C; Goedecker, S; Hutter, J. 
 PHYSICAL REVIEW B, 58 (7), 3641-3662 (1998). 
 Relativistic separable dual-space Gaussian pseudopotentials from H to Rn.
 https://dx.doi.org/10.1103/PhysRevB.58.3641

 Lippert, G; Hutter, J; Parrinello, M. 
 MOLECULAR PHYSICS, 92 (3), 477-487 (1997). 
 A hybrid Gaussian and plane wave density functional scheme.
 https://dx.doi.org/10.1080/002689797170220

 Goedecker, S; Teter, M; Hutter, J. 
 PHYSICAL REVIEW B, 54 (3), 1703-1710 (1996). 
 Separable dual-space Gaussian pseudopotentials.
 https://dx.doi.org/10.1103/PhysRevB.54.1703


 -------------------------------------------------------------------------------
 -                                                                             -
 -                                T I M I N G                                  -
 -                                                                             -
 -------------------------------------------------------------------------------
 SUBROUTINE                       CALLS  ASD         SELF TIME        TOTAL TIME
                                MAXIMUM       AVERAGE  MAXIMUM  AVERAGE  MAXIMUM
 CP2K                                 1  1.0    0.977    0.977 7279.210 7279.210
 qs_forces                            1  2.0    0.000    0.000 7267.385 7267.385
 qs_energies                          1  3.0    0.000    0.000 7263.674 7263.674
 scf_env_do_scf                       1  4.0    0.001    0.001 7252.323 7252.323
 scf_env_do_scf_inner_loop          300  5.0    0.053    0.053 7252.322 7252.322
 gspace_mixing                      299  6.0   42.336   42.336 2994.484 2994.484
 broyden_mixing                     299  7.0 2706.180 2706.180 2706.183 2706.183
 qs_scf_new_mos                     300  6.0    0.008    0.008 1986.546 1986.546
 eigensolver                        300  7.0    0.032    0.032 1912.676 1912.676
 cp_fm_syevd                        300  8.0 1275.775 1275.775 1277.001 1277.001
 pw_transfer                       3912  9.9    0.393    0.393 1187.769 1187.769
 rebuild_ks_matrix                  301  7.0    0.001    0.001 1171.123 1171.123
 qs_ks_build_kohn_sham_matrix       301  8.0    0.104    0.104 1171.122 1171.122
 qs_ks_update_qs_env                300  6.0    0.004    0.004 1167.780 1167.780
 fft_wrap_pw1pw2                   3310 10.9    0.046    0.046 1155.034 1155.034
 qs_rho_update_rho                  301  6.0    0.003    0.003 1104.104 1104.104
 calculate_rho_elec                 301  7.0  549.376  549.376 1104.101 1104.101
 fft_wrap_pw1pw2_70                1504 11.2   90.565   90.565 1048.191 1048.191
 cp_fm_cholesky_restore             900  8.0  634.562  634.562  634.562  634.562
 fft3d_s                           3311 12.9  554.391  554.391  554.438  554.438
 density_rs2pw                      301  8.0    0.058    0.058  544.777  544.777
 pw_scatter_s                      1804 13.2  409.588  409.588  409.588  409.588
 pw_poisson_solve                   301  9.0  333.471  333.471  366.162  366.162
 sum_up_and_integrate               301  9.0   18.129   18.129  341.072  341.072
 integrate_v_rspace                 301 10.0   10.769   10.769  322.942  322.942
 potential_pw2rs                    301 11.0    2.578    2.578  286.796  286.796
 qs_vxc_create                      301  9.0    0.009    0.009  168.205  168.205
 xc_vxc_pw_create                   301 10.0   42.383   42.383  168.197  168.197
 -------------------------------------------------------------------------------

 The number of warnings for this run is : 1
 
 -------------------------------------------------------------------------------
  **** **** ******  **  PROGRAM ENDED AT                 2020-05-29 03:09:10.716
 ***** ** ***  *** **   PROGRAM RAN ON                                   gnode44
 **    ****   ******    PROGRAM RAN BY                               mayank.modi
 ***** **    ** ** **   PROGRAM PROCESS ID                                 23987
  **** **  *******  **  PROGRAM STOPPED IN /home/mayank.modi/ab-initio-thermodyn
                                           amics-of-water/mayank/cp2k_energy_cal
                                           culations
