 DBCSR| CPU Multiplication driver                                           XSMM
 DBCSR| Multrec recursion limit                                              512
 DBCSR| Multiplication stack size                                           1000
 DBCSR| Maximum elements for images                                    UNLIMITED
 DBCSR| Multiplicative factor virtual images                                   1
 DBCSR| Use multiplication densification                                       T
 DBCSR| Multiplication size stacks                                             3


  **** **** ******  **  PROGRAM STARTED AT               2020-05-29 07:11:52.515
 ***** ** ***  *** **   PROGRAM STARTED ON                               gnode44
 **    ****   ******    PROGRAM STARTED BY                           mayank.modi
 ***** **    ** ** **   PROGRAM PROCESS ID                                 28696
  **** **  *******  **  PROGRAM STARTED IN /home/mayank.modi/ab-initio-thermodyn
                                           amics-of-water/mayank/cp2k_energy_cal
                                           culations

 CP2K| version string:                                          CP2K version 7.1
 CP2K| source code revision number:                                  git:e635599
 CP2K| cp2kflags: omp libint fftw3 libxc xsmm spglib                            
 CP2K| is freely available from                            https://www.cp2k.org/
 CP2K| Program compiled at                          Mon Dec 23 19:23:12 CET 2019
 CP2K| Program compiled on                                                pc9404
 CP2K| Program compiled for                                Linux-x86-64-gfortran
 CP2K| Data directory path                                        /opt/cp2k/data
 CP2K| Input file name                                 input_training/input32.in

 GLOBAL| Force Environment number                                              1
 GLOBAL| Basis set file name                                           BASIS_SET
 GLOBAL| Potential file name                                      GTH_POTENTIALS
 GLOBAL| MM Potential file name                                     MM_POTENTIAL
 GLOBAL| Coordinate file name                                      __STD_INPUT__
 GLOBAL| Method name                                                        CP2K
 GLOBAL| Project name                                                   H2O_bulk
 GLOBAL| Preferred FFT library                                             FFTW3
 GLOBAL| Preferred diagonalization lib.                                       SL
 GLOBAL| Run type                                                   ENERGY_FORCE
 GLOBAL| All-to-all communication in single precision                          F
 GLOBAL| FFTs using library dependent lengths                                  F
 GLOBAL| Global print level                                                  LOW
 GLOBAL| MPI I/O enabled                                                       T
 GLOBAL| Total number of message passing processes                             1
 GLOBAL| Number of threads for this process                                   36
 GLOBAL| This output is from process                                           0
 GLOBAL| CPU model name                Intel(R) Xeon(R) CPU E5-2640 v4 @ 2.40GHz
 GLOBAL| CPUID                                                              1002
 GLOBAL| Compiled for CPUID                                                    0

 MEMORY| system memory details [Kb]
 MEMORY|                        rank 0           min           max       average
 MEMORY| MemTotal            131893056     131893056     131893056     131893056
 MEMORY| MemFree             119185036     119185036     119185036     119185036
 MEMORY| Buffers               2123556       2123556       2123556       2123556
 MEMORY| Cached                3087612       3087612       3087612       3087612
 MEMORY| Slab                  3312560       3312560       3312560       3312560
 MEMORY| SReclaimable          3101008       3101008       3101008       3101008
 MEMORY| MemLikelyFree       127497212     127497212     127497212     127497212


 GENERATE| WARNING:: No connections detected for Hydrogen - Atom Nr:       137 !
 GENERATE|  Preliminary Number of Bonds generated:                             0
 GENERATE|  Achieved consistency in connectivity generation.

 *******************************************************************************
 *******************************************************************************
 **                                                                           **
 **     #####                         ##              ##                      **
 **    ##   ##            ##          ##              ##                      **
 **   ##     ##                       ##            ######                    **
 **   ##     ##  ##   ##  ##   #####  ##  ##   ####   ##    #####    #####    **
 **   ##     ##  ##   ##  ##  ##      ## ##   ##      ##   ##   ##  ##   ##   **
 **   ##  ## ##  ##   ##  ##  ##      ####     ###    ##   ######   ######    **
 **    ##  ###   ##   ##  ##  ##      ## ##      ##   ##   ##       ##        **
 **     #######   #####   ##   #####  ##  ##  ####    ##    #####   ##        **
 **           ##                                                    ##        **
 **                                                                           **
 **                                                ... make the atoms dance   **
 **                                                                           **
 **            Copyright (C) by CP2K developers group (2000 - 2019)           **
 **                                                                           **
 *******************************************************************************


 TOTAL NUMBERS AND MAXIMUM NUMBERS

  Total number of            - Atomic kinds:                                   2
                             - Atoms:                                        192
                             - Shell sets:                                   384
                             - Shells:                                       704
                             - Primitive Cartesian functions:                960
                             - Cartesian basis functions:                   1536
                             - Spherical basis functions:                   1472

  Maximum angular momentum of- Orbital basis functions:                        2
                             - Local part of the GTH pseudopotential:          2
                             - Non-local part of the GTH pseudopotential:      0


 SCF PARAMETERS         Density guess:                                    ATOMIC
                        --------------------------------------------------------
                        max_scf:                                             300
                        max_scf_history:                                       0
                        max_diis:                                              4
                        --------------------------------------------------------
                        eps_scf:                                        1.00E-07
                        eps_scf_history:                                0.00E+00
                        eps_diis:                                       1.00E-01
                        eps_eigval:                                     1.00E-05
                        --------------------------------------------------------
                        level_shift [a.u.]:                                 0.00
                        --------------------------------------------------------
                        Mixing method:                            BROYDEN_MIXING
                                                charge density mixing in g-space
                        --------------------------------------------------------
                        No outer SCF

 Number of electrons:                                                        512
 Number of occupied orbitals:                                                256
 Number of molecular orbitals:                                               256

 Number of orbital functions:                                               1472
 Number of independent orbital functions:                                   1472

 Extrapolation method: initial_guess


 SCF WAVEFUNCTION OPTIMIZATION

  Step     Update method      Time    Convergence         Total energy    Change
  ------------------------------------------------------------------------------
     1 NoMix/Diag. 0.40E+00   10.5     0.68792749     -1063.9076785020 -1.06E+03
     2 Broy./Diag. 0.40E+00   16.0     1.88026598      -993.0107803376  7.09E+01
     3 Broy./Diag. 0.40E+00   16.5     1.94083786     -1273.9872338496 -2.81E+02
     4 Broy./Diag. 0.40E+00   16.8     1.74645839     -1126.4909926058  1.47E+02
     5 Broy./Diag. 0.40E+00   16.9     1.66164396     -1097.9795393166  2.85E+01
     6 Broy./Diag. 0.40E+00   19.4     1.74148757     -1103.7500603822 -5.77E+00
     7 Broy./Diag. 0.40E+00   20.7     1.67032783     -1101.1918046411  2.56E+00
     8 Broy./Diag. 0.40E+00   21.1     1.58147185     -1085.2603374260  1.59E+01
     9 Broy./Diag. 0.40E+00   23.0     1.50732798     -1078.1571623781  7.10E+00
    10 Broy./Diag. 0.40E+00   24.1     1.51789601     -1073.9992602444  4.16E+00
    11 Broy./Diag. 0.40E+00   22.3     1.34188852     -1072.2953718779  1.70E+00
    12 Broy./Diag. 0.40E+00   21.8     1.26921135     -1075.6640618200 -3.37E+00
    13 Broy./Diag. 0.40E+00   23.2     1.48957971     -1065.9633596583  9.70E+00
    14 Broy./Diag. 0.40E+00   24.4     1.58897897     -1078.0729197125 -1.21E+01
    15 Broy./Diag. 0.40E+00   24.2     1.67468436     -1080.8142519334 -2.74E+00
    16 Broy./Diag. 0.40E+00   23.5     1.71043855     -1088.5781968332 -7.76E+00
    17 Broy./Diag. 0.40E+00   23.0     1.75574040     -1073.5701320098  1.50E+01
    18 Broy./Diag. 0.40E+00   21.5     0.50264110     -1072.1965099137  1.37E+00
    19 Broy./Diag. 0.40E+00   24.1     1.55343566     -1074.1572502753 -1.96E+00
    20 Broy./Diag. 0.40E+00   22.9     1.68365392     -1078.0821732064 -3.92E+00
    21 Broy./Diag. 0.40E+00   22.5     1.58720624     -1078.4972054174 -4.15E-01
    22 Broy./Diag. 0.40E+00   24.3     1.65238859     -1078.5158652196 -1.87E-02
    23 Broy./Diag. 0.40E+00   24.3     1.28909916     -1075.0508385991  3.47E+00
    24 Broy./Diag. 0.40E+00   24.1     1.52062713     -1071.9818552952  3.07E+00
    25 Broy./Diag. 0.40E+00   24.8     1.57734764     -1076.0202266106 -4.04E+00
    26 Broy./Diag. 0.40E+00   25.1     1.64894650     -1077.9299541279 -1.91E+00
    27 Broy./Diag. 0.40E+00   22.9     1.62355932     -1073.9304890962  4.00E+00
    28 Broy./Diag. 0.40E+00   23.7     1.61397324     -1078.0419622150 -4.11E+00
    29 Broy./Diag. 0.40E+00   23.9     1.34980790     -1072.8578785476  5.18E+00
    30 Broy./Diag. 0.40E+00   24.9     1.63182123     -1077.9714453154 -5.11E+00
    31 Broy./Diag. 0.40E+00   22.6     1.64716853     -1077.5719184281  4.00E-01
    32 Broy./Diag. 0.40E+00   23.9     1.34594508     -1077.7680869075 -1.96E-01
    33 Broy./Diag. 0.40E+00   22.3     1.54056857     -1077.5043557740  2.64E-01
    34 Broy./Diag. 0.40E+00   25.4     1.55369507     -1075.5401246692  1.96E+00
    35 Broy./Diag. 0.40E+00   23.4     1.55089953     -1076.5439894086 -1.00E+00
    36 Broy./Diag. 0.40E+00   24.3     1.69062248     -1075.3568810677  1.19E+00
    37 Broy./Diag. 0.40E+00   24.4     1.56866387     -1075.7765063171 -4.20E-01
    38 Broy./Diag. 0.40E+00   24.3     1.70991940     -1075.8016250242 -2.51E-02
    39 Broy./Diag. 0.40E+00   24.2     1.26255182     -1071.1806575489  4.62E+00
    40 Broy./Diag. 0.40E+00   23.6     1.25869432     -1078.0866004487 -6.91E+00
    41 Broy./Diag. 0.40E+00   23.1     1.32509392     -1074.6174802999  3.47E+00
    42 Broy./Diag. 0.40E+00   23.1     1.11529899     -1076.6278632238 -2.01E+00
    43 Broy./Diag. 0.40E+00   22.4     1.28120826     -1078.7692584879 -2.14E+00
    44 Broy./Diag. 0.40E+00   24.4     1.29707065     -1073.6369194681  5.13E+00
    45 Broy./Diag. 0.40E+00   23.8     1.58790272     -1078.6192937073 -4.98E+00
    46 Broy./Diag. 0.40E+00   23.8     1.65829668     -1078.7723528789 -1.53E-01
    47 Broy./Diag. 0.40E+00   23.7     1.70165100     -1076.6826664160  2.09E+00
    48 Broy./Diag. 0.40E+00   23.9     1.75358265     -1076.1698244689  5.13E-01
    49 Broy./Diag. 0.40E+00   23.5     1.66471516     -1077.5707593381 -1.40E+00
    50 Broy./Diag. 0.40E+00   23.4     1.70643146     -1074.7953725073  2.78E+00
    51 Broy./Diag. 0.40E+00   23.6     1.57930496     -1072.5948163553  2.20E+00
    52 Broy./Diag. 0.40E+00   24.9     1.67556247     -1079.1594770048 -6.56E+00
    53 Broy./Diag. 0.40E+00   22.8     1.28387927     -1077.6356349067  1.52E+00
    54 Broy./Diag. 0.40E+00   21.5     1.31709545     -1073.8713793524  3.76E+00
    55 Broy./Diag. 0.40E+00   22.1     1.56000939     -1076.8774250732 -3.01E+00
    56 Broy./Diag. 0.40E+00   20.9     1.65674756     -1076.7735502731  1.04E-01
    57 Broy./Diag. 0.40E+00   23.4     1.67301994     -1076.4941101175  2.79E-01
    58 Broy./Diag. 0.40E+00   23.4     1.30267246     -1076.3773601022  1.17E-01
    59 Broy./Diag. 0.40E+00   22.5     1.29285714     -1072.9663578145  3.41E+00
    60 Broy./Diag. 0.40E+00   23.0     1.26714293     -1077.5495311476 -4.58E+00
    61 Broy./Diag. 0.40E+00   23.0     1.30979711     -1076.9761948111  5.73E-01
    62 Broy./Diag. 0.40E+00   24.5     1.65840539     -1075.9217801684  1.05E+00
    63 Broy./Diag. 0.40E+00   23.9     1.62914401     -1078.5264262855 -2.60E+00
    64 Broy./Diag. 0.40E+00   23.5     1.28669930     -1076.1283718003  2.40E+00
    65 Broy./Diag. 0.40E+00   23.5     1.57021923     -1073.1561492661  2.97E+00
    66 Broy./Diag. 0.40E+00   23.3     1.66888484     -1078.6235488185 -5.47E+00
    67 Broy./Diag. 0.40E+00   23.0     1.68050527     -1078.4910284384  1.33E-01
    68 Broy./Diag. 0.40E+00   23.7     1.34269066     -1078.8658348494 -3.75E-01
    69 Broy./Diag. 0.40E+00   23.5     1.30826370     -1073.6516572602  5.21E+00
    70 Broy./Diag. 0.40E+00   22.9     1.11678581     -1077.0434732158 -3.39E+00
    71 Broy./Diag. 0.40E+00   23.3     1.21500748     -1075.6810736716  1.36E+00
    72 Broy./Diag. 0.40E+00   23.6     1.60465131     -1073.6053824513  2.08E+00
    73 Broy./Diag. 0.40E+00   24.0     1.63481719     -1079.3349303438 -5.73E+00
    74 Broy./Diag. 0.40E+00   22.3     1.67953245     -1077.8541602787  1.48E+00
    75 Broy./Diag. 0.40E+00   22.5     1.66770787     -1076.5963484871  1.26E+00
    76 Broy./Diag. 0.40E+00   22.4     1.65076829     -1076.5121169421  8.42E-02
    77 Broy./Diag. 0.40E+00   22.6     1.46855718     -1074.9075004047  1.60E+00
    78 Broy./Diag. 0.40E+00   22.9     1.32460833     -1075.6891840579 -7.82E-01
    79 Broy./Diag. 0.40E+00   22.6     1.27461658     -1072.8536153797  2.84E+00
    80 Broy./Diag. 0.40E+00   23.0     1.51582629     -1077.1658685340 -4.31E+00
    81 Broy./Diag. 0.40E+00   23.6     1.59303165     -1077.0056924745  1.60E-01
    82 Broy./Diag. 0.40E+00   23.5     1.63972801     -1075.8172765940  1.19E+00
    83 Broy./Diag. 0.40E+00   24.0     1.23607057     -1073.7406707791  2.08E+00
    84 Broy./Diag. 0.40E+00   24.5     1.10881084     -1078.5544467155 -4.81E+00
    85 Broy./Diag. 0.40E+00   23.4     1.66143314     -1076.8457062452  1.71E+00
    86 Broy./Diag. 0.40E+00   23.8     1.67119865     -1077.9126125808 -1.07E+00
    87 Broy./Diag. 0.40E+00   23.7     1.66064995     -1077.6882674029  2.24E-01
    88 Broy./Diag. 0.40E+00   25.0     1.26727338     -1072.5702251164  5.12E+00
    89 Broy./Diag. 0.40E+00   22.8     1.30212787     -1078.2064234091 -5.64E+00
    90 Broy./Diag. 0.40E+00   24.2     1.64836537     -1074.2197042661  3.99E+00
    91 Broy./Diag. 0.40E+00   24.9     1.66967147     -1077.7695229580 -3.55E+00
    92 Broy./Diag. 0.40E+00   21.5     1.58182214     -1076.8286553846  9.41E-01
    93 Broy./Diag. 0.40E+00   22.2     1.63235713     -1077.9291687203 -1.10E+00
    94 Broy./Diag. 0.40E+00   21.6     1.57447426     -1075.9325241311  2.00E+00
    95 Broy./Diag. 0.40E+00   23.7     1.62679978     -1074.1580566542  1.77E+00
    96 Broy./Diag. 0.40E+00   23.6     1.66875850     -1078.1590084896 -4.00E+00
    97 Broy./Diag. 0.40E+00   23.6     1.42107299     -1074.4018122658  3.76E+00
    98 Broy./Diag. 0.40E+00   23.5     1.64680296     -1072.2407608966  2.16E+00
    99 Broy./Diag. 0.40E+00   23.1     1.64812231     -1081.9369137650 -9.70E+00
   100 Broy./Diag. 0.40E+00   23.8     1.59055078     -1078.0452698696  3.89E+00
   101 Broy./Diag. 0.40E+00   22.9     1.29394116     -1077.1087676838  9.37E-01
   102 Broy./Diag. 0.40E+00   21.3     1.52856843     -1073.8385238529  3.27E+00
   103 Broy./Diag. 0.40E+00   23.1     1.48163863     -1076.2666681473 -2.43E+00
   104 Broy./Diag. 0.40E+00   24.0     1.21973722     -1075.4917620905  7.75E-01
   105 Broy./Diag. 0.40E+00   24.1     1.15128236     -1073.6229443888  1.87E+00
   106 Broy./Diag. 0.40E+00   22.1     1.59036629     -1077.4940267402 -3.87E+00
   107 Broy./Diag. 0.40E+00   23.5     1.64402627     -1077.2949656959  1.99E-01
   108 Broy./Diag. 0.40E+00   24.1     1.63151427     -1078.6616264363 -1.37E+00
   109 Broy./Diag. 0.40E+00   22.8     1.66700295     -1078.7753775393 -1.14E-01
   110 Broy./Diag. 0.40E+00   23.3     1.65807936     -1074.5960167792  4.18E+00
   111 Broy./Diag. 0.40E+00   23.2     1.57495838     -1077.8835948700 -3.29E+00
   112 Broy./Diag. 0.40E+00   22.2     1.34995720     -1072.9979906596  4.89E+00
   113 Broy./Diag. 0.40E+00   23.6     1.64672896     -1076.8923405315 -3.89E+00
   114 Broy./Diag. 0.40E+00   23.9     1.66599572     -1078.1111228211 -1.22E+00
   115 Broy./Diag. 0.40E+00   23.6     1.29709990     -1076.9169687438  1.19E+00
   116 Broy./Diag. 0.40E+00   22.0     1.31544208     -1073.6130384250  3.30E+00
   117 Broy./Diag. 0.40E+00   21.9     1.63977682     -1076.6619297617 -3.05E+00
   118 Broy./Diag. 0.40E+00   23.5     1.65985115     -1077.9382285023 -1.28E+00
   119 Broy./Diag. 0.40E+00   22.6     1.68481590     -1077.0028973010  9.35E-01
   120 Broy./Diag. 0.40E+00   21.6     1.58039938     -1073.3354270060  3.67E+00
   121 Broy./Diag. 0.40E+00   21.7     1.63453700     -1078.0364010034 -4.70E+00
   122 Broy./Diag. 0.40E+00   21.8     1.58687071     -1074.7156628365  3.32E+00
   123 Broy./Diag. 0.40E+00   21.7     1.61994558     -1076.3794055298 -1.66E+00
   124 Broy./Diag. 0.40E+00   23.0     1.41681748     -1076.3751568139  4.25E-03
   125 Broy./Diag. 0.40E+00   21.8     1.44477415     -1076.8919851122 -5.17E-01
   126 Broy./Diag. 0.40E+00   22.2     1.29642499     -1076.7832762379  1.09E-01
   127 Broy./Diag. 0.40E+00   23.1     1.31327911     -1074.8011068283  1.98E+00
   128 Broy./Diag. 0.40E+00   23.4     1.33318685     -1075.5896483804 -7.89E-01
   129 Broy./Diag. 0.40E+00   23.4     1.53905196     -1074.1863187092  1.40E+00
   130 Broy./Diag. 0.40E+00   24.1     1.64379315     -1078.9300476132 -4.74E+00
   131 Broy./Diag. 0.40E+00   23.8     1.27400202     -1074.9500697184  3.98E+00
   132 Broy./Diag. 0.40E+00   24.2     1.62337792     -1076.1460948761 -1.20E+00
   133 Broy./Diag. 0.40E+00   24.3     1.67246829     -1075.7335439874  4.13E-01
   134 Broy./Diag. 0.40E+00   24.7     1.71749112     -1077.5826546235 -1.85E+00
   135 Broy./Diag. 0.40E+00   21.9     1.43017354     -1077.2447349336  3.38E-01
   136 Broy./Diag. 0.40E+00   22.3     1.37914302     -1076.5617512984  6.83E-01
   137 Broy./Diag. 0.40E+00   24.6     1.43955764     -1076.9083270082 -3.47E-01
   138 Broy./Diag. 0.40E+00   22.1     1.34596350     -1074.6862926995  2.22E+00
   139 Broy./Diag. 0.40E+00   22.4     1.37409181     -1072.4602605095  2.23E+00
   140 Broy./Diag. 0.40E+00   23.9     1.37921942     -1076.9857847039 -4.53E+00
   141 Broy./Diag. 0.40E+00   22.4     1.30330270     -1075.7965698616  1.19E+00
   142 Broy./Diag. 0.40E+00   23.5     1.56993249     -1076.6322094715 -8.36E-01
   143 Broy./Diag. 0.40E+00   23.7     1.63874107     -1075.7085614092  9.24E-01
   144 Broy./Diag. 0.40E+00   24.7     1.60895770     -1073.8734534189  1.84E+00
   145 Broy./Diag. 0.40E+00   23.7     1.63942735     -1078.7997314357 -4.93E+00
   146 Broy./Diag. 0.40E+00   23.7     1.57905061     -1076.3245637034  2.48E+00
   147 Broy./Diag. 0.40E+00   23.6     1.66061557     -1074.2043044267  2.12E+00
   148 Broy./Diag. 0.40E+00   23.6     1.67417011     -1075.4594291286 -1.26E+00
   149 Broy./Diag. 0.40E+00   24.3     1.63359299     -1072.5595638795  2.90E+00
   150 Broy./Diag. 0.40E+00   22.9     1.67089893     -1079.8202158148 -7.26E+00
   151 Broy./Diag. 0.40E+00   22.6     1.30397375     -1077.4721956045  2.35E+00
   152 Broy./Diag. 0.40E+00   21.0     1.57831746     -1073.5098490663  3.96E+00
   153 Broy./Diag. 0.40E+00   21.9     1.59371483     -1078.6559687828 -5.15E+00
   154 Broy./Diag. 0.40E+00   21.4     1.66577553     -1076.4519895066  2.20E+00
   155 Broy./Diag. 0.40E+00   24.5     1.54525096     -1077.2354072201 -7.83E-01
   156 Broy./Diag. 0.40E+00   23.3     1.32382270     -1076.9173256559  3.18E-01
   157 Broy./Diag. 0.40E+00   22.8     1.07468161     -1073.1907380031  3.73E+00
   158 Broy./Diag. 0.40E+00   23.6     1.13229910     -1075.1271270196 -1.94E+00
   159 Broy./Diag. 0.40E+00   23.5     1.61050008     -1073.7490807872  1.38E+00
   160 Broy./Diag. 0.40E+00   23.0     1.65059312     -1080.5731798597 -6.82E+00
   161 Broy./Diag. 0.40E+00   23.9     1.10461954     -1077.0720359880  3.50E+00
   162 Broy./Diag. 0.40E+00   24.3     1.56246283     -1076.6312716664  4.41E-01
   163 Broy./Diag. 0.40E+00   24.4     1.68368325     -1075.9584000292  6.73E-01
   164 Broy./Diag. 0.40E+00   24.1     1.61679291     -1075.2049091345  7.53E-01
   165 Broy./Diag. 0.40E+00   23.5     1.59928140     -1077.9708111202 -2.77E+00
   166 Broy./Diag. 0.40E+00   23.1     1.37661407     -1077.8435340394  1.27E-01
   167 Broy./Diag. 0.40E+00   21.9     1.59902944     -1072.5009327117  5.34E+00
   168 Broy./Diag. 0.40E+00   23.5     1.66283513     -1079.5184618901 -7.02E+00
   169 Broy./Diag. 0.40E+00   23.9     1.51431135     -1079.1588647805  3.60E-01
   170 Broy./Diag. 0.40E+00   23.1     1.52782152     -1073.9940606731  5.16E+00
   171 Broy./Diag. 0.40E+00   23.3     1.66776717     -1078.1158295040 -4.12E+00
   172 Broy./Diag. 0.40E+00   23.3     1.65341454     -1076.5311514425  1.58E+00
   173 Broy./Diag. 0.40E+00   22.3     1.48109743     -1075.1170738629  1.41E+00
   174 Broy./Diag. 0.40E+00   22.8     1.51657566     -1077.6725293008 -2.56E+00
   175 Broy./Diag. 0.40E+00   24.5     1.21598619     -1072.7483669976  4.92E+00
   176 Broy./Diag. 0.40E+00   22.3     1.64499423     -1078.0218038001 -5.27E+00
   177 Broy./Diag. 0.40E+00   22.2     1.66700012     -1079.1922519466 -1.17E+00
   178 Broy./Diag. 0.40E+00   23.8     1.29699987     -1077.1944997929  2.00E+00
   179 Broy./Diag. 0.40E+00   23.7     1.35006785     -1074.0269049246  3.17E+00
   180 Broy./Diag. 0.40E+00   24.7     1.65308942     -1078.4510158602 -4.42E+00
   181 Broy./Diag. 0.40E+00   23.8     1.68333937     -1077.7669635700  6.84E-01
   182 Broy./Diag. 0.40E+00   22.7     1.69000471     -1076.6003022457  1.17E+00
   183 Broy./Diag. 0.40E+00   22.3     1.68615291     -1075.0665515703  1.53E+00
   184 Broy./Diag. 0.40E+00   23.0     1.64719005     -1078.1287611652 -3.06E+00
   185 Broy./Diag. 0.40E+00   22.7     1.31455630     -1071.8066947555  6.32E+00
   186 Broy./Diag. 0.40E+00   21.2     1.61287102     -1078.3244417603 -6.52E+00
   187 Broy./Diag. 0.40E+00   23.4     1.61823935     -1079.2393123595 -9.15E-01
   188 Broy./Diag. 0.40E+00   23.4     1.50763010     -1075.5106921842  3.73E+00
   189 Broy./Diag. 0.40E+00   24.1     1.59885172     -1075.6366417118 -1.26E-01
   190 Broy./Diag. 0.40E+00   23.5     1.65068719     -1072.9225177371  2.71E+00
   191 Broy./Diag. 0.40E+00   23.1     1.68729604     -1078.4946073904 -5.57E+00
   192 Broy./Diag. 0.40E+00   23.7     1.57997276     -1078.5623597003 -6.78E-02
   193 Broy./Diag. 0.40E+00   23.9     1.67481100     -1076.9255214352  1.64E+00
   194 Broy./Diag. 0.40E+00   22.7     1.29245840     -1075.7490697212  1.18E+00
   195 Broy./Diag. 0.40E+00   22.7     1.36871270     -1072.3055104940  3.44E+00
   196 Broy./Diag. 0.40E+00   23.6     1.17233884     -1077.2530999485 -4.95E+00
   197 Broy./Diag. 0.40E+00   24.0     1.57927602     -1076.2978514092  9.55E-01
   198 Broy./Diag. 0.40E+00   23.8     1.64905826     -1079.1225933999 -2.82E+00
   199 Broy./Diag. 0.40E+00   23.0     1.66323391     -1076.1771526433  2.95E+00
   200 Broy./Diag. 0.40E+00   21.9     1.64394591     -1073.1282521185  3.05E+00
   201 Broy./Diag. 0.40E+00   22.5     1.67880182     -1078.4052847007 -5.28E+00
   202 Broy./Diag. 0.40E+00   22.4     1.60851660     -1077.2680355983  1.14E+00
   203 Broy./Diag. 0.40E+00   22.3     1.69382964     -1077.0899062218  1.78E-01
   204 Broy./Diag. 0.40E+00   24.2     1.58660852     -1076.9931089556  9.68E-02
   205 Broy./Diag. 0.40E+00   24.2     1.64310903     -1072.2049313503  4.79E+00
   206 Broy./Diag. 0.40E+00   24.3     1.13383963     -1080.8355192790 -8.63E+00
   207 Broy./Diag. 0.40E+00   22.1     1.63198243     -1078.5963218607  2.24E+00
   208 Broy./Diag. 0.40E+00   22.7     1.38515762     -1076.1283744094  2.47E+00
   209 Broy./Diag. 0.40E+00   22.2     1.43072561     -1078.0173132587 -1.89E+00
   210 Broy./Diag. 0.40E+00   21.4     1.32045874     -1072.6175665867  5.40E+00
   211 Broy./Diag. 0.40E+00   23.7     1.34833252     -1076.7485042840 -4.13E+00
   212 Broy./Diag. 0.40E+00   24.7     1.59463147     -1076.6585028336  9.00E-02
   213 Broy./Diag. 0.40E+00   21.6     1.66203331     -1076.8823152492 -2.24E-01
   214 Broy./Diag. 0.40E+00   21.6     1.44868957     -1075.3294537246  1.55E+00
   215 Broy./Diag. 0.40E+00   20.9     1.28881152     -1076.5956538675 -1.27E+00
   216 Broy./Diag. 0.40E+00   23.0     1.67394440     -1073.1837587646  3.41E+00
   217 Broy./Diag. 0.40E+00   23.3     1.70900585     -1080.0796123091 -6.90E+00
   218 Broy./Diag. 0.40E+00   24.0     1.65646190     -1078.7368491824  1.34E+00
   219 Broy./Diag. 0.40E+00   23.9     0.97611627     -1075.5773006382  3.16E+00
   220 Broy./Diag. 0.40E+00   24.0     1.60176811     -1073.7527193677  1.82E+00
   221 Broy./Diag. 0.40E+00   23.9     1.36796994     -1079.4702999332 -5.72E+00
   222 Broy./Diag. 0.40E+00   24.4     1.63141829     -1076.3786650776  3.09E+00
   223 Broy./Diag. 0.40E+00   23.9     1.71091202     -1077.4815692244 -1.10E+00
   224 Broy./Diag. 0.40E+00   23.1     1.63383235     -1078.0458969356 -5.64E-01
   225 Broy./Diag. 0.40E+00   22.4     1.60575740     -1079.7713762648 -1.73E+00
   226 Broy./Diag. 0.40E+00   22.5     1.61188257     -1073.0802195592  6.69E+00
   227 Broy./Diag. 0.40E+00   23.7     1.71008822     -1076.8195770711 -3.74E+00
   228 Broy./Diag. 0.40E+00   22.1     1.58082961     -1072.9715264847  3.85E+00
   229 Broy./Diag. 0.40E+00   23.6     1.68464957     -1077.8703120238 -4.90E+00
   230 Broy./Diag. 0.40E+00   22.6     1.65582372     -1075.3265372734  2.54E+00
   231 Broy./Diag. 0.40E+00   22.9     1.62375281     -1076.1035892917 -7.77E-01
   232 Broy./Diag. 0.40E+00   22.0     1.68953126     -1074.2717200517  1.83E+00
   233 Broy./Diag. 0.40E+00   21.6     1.74658704     -1079.7982293575 -5.53E+00
   234 Broy./Diag. 0.40E+00   23.5     1.71880064     -1076.5806124789  3.22E+00
   235 Broy./Diag. 0.40E+00   23.7     1.35114221     -1076.9536165126 -3.73E-01
   236 Broy./Diag. 0.40E+00   24.2     1.42978320     -1072.9621212171  3.99E+00
   237 Broy./Diag. 0.40E+00   23.0     1.40272316     -1077.5194699109 -4.56E+00
   238 Broy./Diag. 0.40E+00   23.4     1.29235923     -1076.3361674795  1.18E+00
   239 Broy./Diag. 0.40E+00   23.7     1.58593984     -1072.9593435768  3.38E+00
   240 Broy./Diag. 0.40E+00   23.8     1.64386003     -1079.5878991205 -6.63E+00
   241 Broy./Diag. 0.40E+00   22.2     1.35694878     -1078.2544073242  1.33E+00
   242 Broy./Diag. 0.40E+00   23.3     1.58851616     -1077.5643723168  6.90E-01
   243 Broy./Diag. 0.40E+00   23.0     1.70234658     -1076.6726953111  8.92E-01
   244 Broy./Diag. 0.40E+00   21.1     1.63357907     -1075.4738323745  1.20E+00
   245 Broy./Diag. 0.40E+00   22.1     1.62530730     -1077.2715947574 -1.80E+00
   246 Broy./Diag. 0.40E+00   23.9     1.35077987     -1078.2134578589 -9.42E-01
   247 Broy./Diag. 0.40E+00   23.9     1.47083844     -1075.7487365146  2.46E+00
   248 Broy./Diag. 0.40E+00   24.0     1.42002326     -1073.0352177801  2.71E+00
   249 Broy./Diag. 0.40E+00   23.9     1.39116837     -1079.4997873340 -6.46E+00
   250 Broy./Diag. 0.40E+00   23.9     1.31897320     -1073.7654326287  5.73E+00
   251 Broy./Diag. 0.40E+00   24.4     1.17967314     -1077.8249866931 -4.06E+00
   252 Broy./Diag. 0.40E+00   23.0     1.18576204     -1077.6226177080  2.02E-01
   253 Broy./Diag. 0.40E+00   24.0     1.22500378     -1078.2613736144 -6.39E-01
   254 Broy./Diag. 0.40E+00   24.7     1.59945063     -1074.5865512362  3.67E+00
   255 Broy./Diag. 0.40E+00   22.0     1.64003166     -1077.2349637486 -2.65E+00
   256 Broy./Diag. 0.40E+00   22.8     1.64275374     -1078.4707622695 -1.24E+00
   257 Broy./Diag. 0.40E+00   22.7     1.67060750     -1076.2194721961  2.25E+00
   258 Broy./Diag. 0.40E+00   23.5     1.70448930     -1076.0363625121  1.83E-01
   259 Broy./Diag. 0.40E+00   22.6     1.32224077     -1076.0604967968 -2.41E-02
   260 Broy./Diag. 0.40E+00   21.9     1.69378286     -1071.9632862850  4.10E+00
   261 Broy./Diag. 0.40E+00   23.6     1.67140848     -1080.8849469264 -8.92E+00
   262 Broy./Diag. 0.40E+00   22.9     1.57883810     -1078.8523098374  2.03E+00
   263 Broy./Diag. 0.40E+00   23.0     1.62136098     -1075.1641281442  3.69E+00
   264 Broy./Diag. 0.40E+00   21.2     1.70381418     -1074.1726816023  9.91E-01
   265 Broy./Diag. 0.40E+00   22.8     1.70718907     -1074.3573758765 -1.85E-01
   266 Broy./Diag. 0.40E+00   23.4     1.26921702     -1075.2825723220 -9.25E-01
   267 Broy./Diag. 0.40E+00   24.1     1.62886412     -1072.4729846092  2.81E+00
   268 Broy./Diag. 0.40E+00   23.8     1.70185038     -1078.8257146876 -6.35E+00
   269 Broy./Diag. 0.40E+00   22.3     1.68267591     -1077.3591136587  1.47E+00
   270 Broy./Diag. 0.40E+00   21.4     1.69222414     -1076.4574456833  9.02E-01
   271 Broy./Diag. 0.40E+00   23.2     1.30812002     -1075.4096981655  1.05E+00
   272 Broy./Diag. 0.40E+00   23.7     1.32834329     -1075.5613113123 -1.52E-01
   273 Broy./Diag. 0.40E+00   23.6     1.46526980     -1072.6699428822  2.89E+00
   274 Broy./Diag. 0.40E+00   23.1     1.47026432     -1077.5421666848 -4.87E+00
   275 Broy./Diag. 0.40E+00   22.9     1.34790201     -1077.0834877113  4.59E-01
   276 Broy./Diag. 0.40E+00   23.5     1.32286076     -1073.7950354183  3.29E+00
   277 Broy./Diag. 0.40E+00   23.7     1.24068684     -1077.1438732606 -3.35E+00
   278 Broy./Diag. 0.40E+00   24.5     1.59411549     -1077.1298491549  1.40E-02
   279 Broy./Diag. 0.40E+00   22.2     1.67650256     -1077.1701802271 -4.03E-02
   280 Broy./Diag. 0.40E+00   23.3     1.69311187     -1078.5266332072 -1.36E+00
   281 Broy./Diag. 0.40E+00   23.9     1.38651075     -1076.1995842791  2.33E+00
   282 Broy./Diag. 0.40E+00   22.5     1.36675618     -1075.1183801443  1.08E+00
   283 Broy./Diag. 0.40E+00   22.0     1.64519793     -1072.2232254941  2.90E+00
   284 Broy./Diag. 0.40E+00   21.1     1.64954811     -1079.1142153724 -6.89E+00
   285 Broy./Diag. 0.40E+00   22.9     1.32496143     -1074.2200089532  4.89E+00
   286 Broy./Diag. 0.40E+00   21.2     1.34931168     -1078.1834167999 -3.96E+00
   287 Broy./Diag. 0.40E+00   23.5     1.42555360     -1076.1962323689  1.99E+00
   288 Broy./Diag. 0.40E+00   23.1     1.58758670     -1075.9536246612  2.43E-01
   289 Broy./Diag. 0.40E+00   22.8     1.70325607     -1075.3439921953  6.10E-01
   290 Broy./Diag. 0.40E+00   22.3     1.30453231     -1075.2035684957  1.40E-01
   291 Broy./Diag. 0.40E+00   24.4     1.59264094     -1077.1635879226 -1.96E+00
   292 Broy./Diag. 0.40E+00   23.9     1.68122849     -1076.4478401327  7.16E-01
   293 Broy./Diag. 0.40E+00   24.8     1.64494914     -1073.2496673178  3.20E+00
   294 Broy./Diag. 0.40E+00   23.3     1.66936825     -1079.1134179299 -5.86E+00
   295 Broy./Diag. 0.40E+00   23.3     1.57983842     -1077.1420803898  1.97E+00
   296 Broy./Diag. 0.40E+00   21.5     1.66120550     -1075.1070256737  2.04E+00
   297 Broy./Diag. 0.40E+00   23.8     1.28945883     -1075.9996004014 -8.93E-01
   298 Broy./Diag. 0.40E+00   24.7     1.60147303     -1072.8514825896  3.15E+00
   299 Broy./Diag. 0.40E+00   23.2     1.64786484     -1079.2867206133 -6.44E+00
   300 Broy./Diag. 0.40E+00   22.5     1.62517247     -1078.0425231797  1.24E+00

  Leaving inner SCF loop after reaching   300 steps.


  Electronic density on regular grids:       -512.0000273323       -0.0000273323
  Core density on regular grids:              511.9999579548       -0.0000420452
  Total charge density on r-space grids:       -0.0000693775
  Total charge density g-space grids:          -0.0000693775

  Overlap energy of the core charge distribution:               0.00000000000000
  Self energy of the core charge distribution:              -2838.21791979120962
  Core Hamiltonian energy:                                    757.47219019868351
  Hartree energy:                                            1240.99545275042328
  Exchange-correlation energy:                               -238.29224633763957

  Total energy:                                             -1078.04252317974237

 *** WARNING in qs_scf.F:542 :: SCF run NOT converged ***


 ENERGY| Total FORCE_EVAL ( QS ) energy (a.u.):            -1070.702318298620412


 ATOMIC FORCES in [a.u.]

 # Atom   Kind   Element          X              Y              Z
      1      1      O          -0.02227341    -0.04308444     0.01616933
      2      2      H          -0.03622712     0.04529284    -0.06665936
      3      2      H           0.06294207     0.04084128    -0.02275637
      4      1      O           0.07255717     0.01390880    -0.05302501
      5      2      H          -0.06752522     0.00295174     0.08219955
      6      2      H          -0.05300846     0.01528555    -0.07414518
      7      1      O          -0.01921076     0.07570370    -0.06524501
      8      2      H           0.02204606     0.02473219     0.07686231
      9      2      H          -0.04691863    -0.04413119    -0.01438956
     10      1      O           0.03345263    -0.07739257     0.15475621
     11      2      H           0.01533038     0.03882081     0.00266290
     12      2      H          -0.04025213    -0.02576098    -0.03064031
     13      1      O          -0.05367375     0.04629032     0.16697358
     14      2      H           0.02933562     0.03002512    -0.05812987
     15      2      H           0.01420055    -0.05565188    -0.04245820
     16      1      O          -0.06719304     0.02610365     0.17352422
     17      2      H           0.05151004     0.04102304    -0.00017482
     18      2      H          -0.01059182    -0.07553146    -0.09860143
     19      1      O           0.00513717    -0.01311053     0.17925148
     20      2      H          -0.05820261     0.07854998    -0.06079357
     21      2      H           0.04529465     0.04935898    -0.06696255
     22      1      O           0.05694104    -0.08818902     0.01700633
     23      2      H          -0.09013972    -0.00126997     0.02166289
     24      2      H           0.04765433     0.07799058    -0.06305882
     25      1      O           0.13788210     0.06348088    -0.12843279
     26      2      H          -0.06706530     0.06877680    -0.04843706
     27      2      H          -0.07252256    -0.05937916     0.02690793
     28      1      O          -0.06183368    -0.05034744     0.04291084
     29      2      H           0.05379758    -0.00609067    -0.09392688
     30      2      H           0.02571183     0.09619642     0.01865847
     31      1      O          -0.02182845    -0.09317473     0.05790559
     32      2      H           0.05853676     0.02472693     0.05363401
     33      2      H          -0.03969359     0.11627328    -0.01492844
     34      1      O          -0.04171957     0.09205542     0.08957175
     35      2      H          -0.00195878    -0.00790922    -0.02829880
     36      2      H           0.04404576    -0.00677335     0.04692283
     37      1      O           0.07472812     0.08954790     0.15954977
     38      2      H           0.03307928    -0.01375350    -0.08261753
     39      2      H          -0.08597361     0.02199915     0.01805475
     40      1      O           0.05206751    -0.05591147     0.12423925
     41      2      H          -0.05224129     0.03225956     0.00735700
     42      2      H          -0.00091892    -0.02567380    -0.08459644
     43      1      O          -0.02007742     0.07656950     0.02331507
     44      2      H          -0.00110911    -0.03042768     0.02983539
     45      2      H           0.01064457     0.01762552     0.00949406
     46      1      O          -0.04008705    -0.00746090     0.12565754
     47      2      H          -0.03818899    -0.00193054    -0.06515470
     48      2      H           0.09836220     0.03795742     0.00001113
     49      1      O          -0.04347138     0.05753756     0.05585885
     50      2      H           0.01029374     0.01237670    -0.00336174
     51      2      H           0.00103253     0.01196992     0.01259185
     52      1      O          -0.03992861    -0.09137069     0.01050661
     53      2      H          -0.00133210    -0.04259419     0.08002666
     54      2      H           0.02601474     0.04501751     0.00349587
     55      1      O           0.02138868     0.01738933    -0.11777757
     56      2      H           0.00379828     0.01629020     0.01196316
     57      2      H           0.02346423     0.01947739     0.02716388
     58      1      O           0.08564999     0.04410297    -0.11725068
     59      2      H          -0.05869507     0.01964628    -0.07342766
     60      2      H          -0.03503710     0.06267217     0.04123938
     61      1      O          -0.06865830    -0.07765733    -0.03422920
     62      2      H           0.03933247     0.05060755    -0.07436746
     63      2      H           0.03264060     0.02583261     0.04547789
     64      1      O           0.00431227     0.02008192    -0.12748605
     65      2      H           0.03872328     0.00526949    -0.02433952
     66      2      H          -0.02487160    -0.06488604    -0.05066185
     67      1      O           0.00055991    -0.00121324     0.12927242
     68      2      H          -0.04117378    -0.00071673    -0.06166204
     69      2      H           0.06722398     0.00767354    -0.04487806
     70      1      O          -0.03302878    -0.07662150    -0.17008424
     71      2      H          -0.05545074    -0.02555836     0.03836500
     72      2      H           0.06292261     0.03889945     0.01761513
     73      1      O           0.04047582    -0.04380860    -0.07307575
     74      2      H           0.04206560     0.01181457    -0.01245451
     75      2      H          -0.07411813     0.05925594     0.02082181
     76      1      O          -0.09135326     0.12672143    -0.05140504
     77      2      H           0.03506727    -0.03512073    -0.09537101
     78      2      H           0.05096729    -0.07028604     0.10217454
     79      1      O           0.11314366    -0.03450624    -0.09261421
     80      2      H          -0.02602314     0.20225024    -0.03122695
     81      2      H          -0.09560713    -0.13958076     0.14132666
     82      1      O          -0.03105790     0.12542437    -0.02424087
     83      2      H          -0.02401571    -0.11673270     0.05776379
     84      2      H           0.01383266     0.00663358    -0.08326339
     85      1      O           0.06417053     0.00282670    -0.09980380
     86      2      H          -0.03590995     0.04369866     0.05817118
     87      2      H          -0.05729142     0.02933657    -0.03674541
     88      1      O          -0.05793315     0.02365111     0.06418254
     89      2      H           0.02093086     0.02580118    -0.00071154
     90      2      H           0.00033692    -0.04202776     0.02688795
     91      1      O          -0.07883246    -0.10717191     0.12834959
     92      2      H           0.07743546    -0.02492029    -0.00037583
     93      2      H           0.00517940     0.08475865    -0.04509356
     94      1      O           0.00217777     0.11635718    -0.07596371
     95      2      H          -0.03742246    -0.04470072     0.06008457
     96      2      H           0.02127869    -0.04080159    -0.03137328
     97      1      O          -0.02953924     0.08736624     0.03948113
     98      2      H           0.04179951    -0.04568081     0.04171064
     99      2      H          -0.05056567    -0.06398543    -0.03658953
    100      1      O          -0.08068545     0.05498040    -0.00285122
    101      2      H           0.03064980    -0.06138915     0.00353444
    102      2      H           0.02314135     0.01003008     0.06875480
    103      1      O           0.03530201    -0.03767974     0.09489072
    104      2      H          -0.01583383     0.02750194    -0.12205494
    105      2      H           0.01970447     0.08756798     0.06450665
    106      1      O           0.03452566    -0.10054135    -0.02695294
    107      2      H          -0.06650816    -0.02393513    -0.01836679
    108      2      H           0.02391382     0.01713933    -0.07508011
    109      1      O           0.03298367    -0.03345752     0.01462562
    110      2      H          -0.03757581     0.01345969    -0.03404727
    111      2      H           0.02378169    -0.07900973    -0.08528141
    112      1      O           0.00265133    -0.07582482     0.03455657
    113      2      H           0.07319088    -0.02201337    -0.02709063
    114      2      H          -0.03389195     0.04912104     0.00733567
    115      1      O           0.08290453    -0.05868808    -0.05581809
    116      2      H          -0.00251684     0.06970231    -0.00587279
    117      2      H          -0.05165211    -0.00176879     0.07733885
    118      1      O           0.00273454    -0.14340068    -0.12859090
    119      2      H           0.04891540     0.08555643     0.02520761
    120      2      H          -0.05527531    -0.00801219     0.02368143
    121      1      O          -0.07006612    -0.06429278     0.14387602
    122      2      H           0.01249019    -0.06273958    -0.07711785
    123      2      H           0.04335192     0.05415627     0.02528951
    124      1      O           0.07520446    -0.01506414     0.15231327
    125      2      H           0.01465004     0.05815230    -0.04706365
    126      2      H          -0.07636805     0.01639619     0.02199983
    127      1      O           0.02447571     0.04866980     0.02063762
    128      2      H          -0.03163387    -0.02925964     0.03916369
    129      2      H           0.03137236     0.02708590    -0.02569097
    130      1      O          -0.05915090    -0.03779844     0.02306021
    131      2      H          -0.01587521     0.05074355    -0.08812708
    132      2      H           0.04021784     0.00442497     0.10013580
    133      1      O           0.00250059    -0.11338204    -0.04698590
    134      2      H          -0.04027587     0.03270533     0.00386542
    135      2      H           0.05709317    -0.00936212    -0.00779007
    136      1      O           0.07115216    -0.08777921     0.06953877
    137      2      H          -0.00554684    -0.00463554     0.00923238
    138      2      H          -0.01101722    -0.03171475    -0.01373519
    139      1      O           0.04251776    -0.08244517     0.12479040
    140      2      H          -0.07402826    -0.03434070    -0.01448071
    141      2      H           0.00823100     0.07177111    -0.04778772
    142      1      O           0.07617067    -0.05401944    -0.07909339
    143      2      H          -0.04755171    -0.05375673     0.00210525
    144      2      H          -0.00383923     0.02371878    -0.01886436
    145      1      O           0.06771221    -0.05235436    -0.04436770
    146      2      H          -0.03505582     0.04024549     0.03305710
    147      2      H           0.00186134     0.05200570    -0.05529210
    148      1      O           0.01959717    -0.04231433     0.05792886
    149      2      H          -0.03073348     0.01607630    -0.07251101
    150      2      H           0.03848149     0.00479474     0.01652074
    151      1      O          -0.07471004    -0.04796711     0.03675019
    152      2      H           0.01878710     0.00301624     0.03340100
    153      2      H           0.05174655     0.08574300     0.01962405
    154      1      O           0.05600669    -0.07323845    -0.14571631
    155      2      H           0.00120893     0.05998101    -0.03047867
    156      2      H          -0.06524602     0.00746634     0.03000628
    157      1      O           0.07023423     0.00696624     0.13318761
    158      2      H          -0.03864580    -0.05084245    -0.06648310
    159      2      H          -0.02115066     0.10995868     0.03173987
    160      1      O           0.03214141     0.07579591    -0.07561874
    161      2      H           0.04574191    -0.02270292    -0.02256021
    162      2      H          -0.05106721    -0.02003252     0.01367866
    163      1      O           0.05916424     0.04913056     0.03418879
    164      2      H          -0.02811158     0.02651449     0.02609302
    165      2      H          -0.04401283    -0.02427680    -0.05581534
    166      1      O          -0.09481351    -0.01374690     0.06067632
    167      2      H           0.06300581     0.01564803     0.00343163
    168      2      H           0.02165594    -0.08516835     0.03977875
    169      1      O          -0.08631446    -0.08559573     0.11174643
    170      2      H           0.04198230     0.03987769     0.00527406
    171      2      H           0.06850616    -0.04131558    -0.07555927
    172      1      O           0.04943087    -0.09823220    -0.04830530
    173      2      H          -0.01706679     0.05191820    -0.01091069
    174      2      H           0.01595533     0.00225307     0.08433251
    175      1      O           0.01217570     0.02180364     0.08248234
    176      2      H          -0.01504016    -0.07151046     0.08277316
    177      2      H          -0.02923892    -0.01559274    -0.06124370
    178      1      O          -0.04268407     0.01643115    -0.19310384
    179      2      H           0.01199490    -0.09283820    -0.00064771
    180      2      H           0.01656220     0.08232937     0.10652233
    181      1      O          -0.07342250     0.02894531    -0.01412191
    182      2      H           0.00031687    -0.01963241     0.06963665
    183      2      H           0.04397513     0.01282933    -0.02731950
    184      1      O          -0.06929127     0.06717809    -0.05057213
    185      2      H           0.07664571    -0.09051508    -0.05870089
    186      2      H           0.01418169     0.04677540    -0.05347821
    187      1      O          -0.00817706    -0.03851078     0.06253351
    188      2      H           0.05438927     0.02980155     0.06696341
    189      2      H          -0.01793707     0.01989850    -0.06790645
    190      1      O          -0.09650230     0.04163849    -0.03514360
    191      2      H           0.10162596    -0.06881694    -0.14600697
    192      2      H          -0.01007082     0.00188032     0.16058459
 SUM OF ATOMIC FORCES           0.05005307     0.21046329     0.07910322     0.23034198

 -------------------------------------------------------------------------------
 -                                                                             -
 -                                DBCSR STATISTICS                             -
 -                                                                             -
 -------------------------------------------------------------------------------
 COUNTER                                    TOTAL       BLAS       SMM       ACC
 flops     5 x     5 x   256           3671718400       0.0%    100.0%      0.0%
 flops     5 x    13 x   256           4437655040       0.0%    100.0%      0.0%
 flops    13 x     5 x   256           4457689600       0.0%    100.0%      0.0%
 flops    13 x    13 x   256           6615411712       0.0%    100.0%      0.0%
 flops inhomo. stacks                           0       0.0%      0.0%      0.0%
 flops total                        19.182475E+09       0.0%    100.0%      0.0%
 flops max/rank                     19.182475E+09       0.0%    100.0%      0.0%
 matmuls inhomo. stacks                         0       0.0%      0.0%      0.0%
 matmuls total                             630595       0.0%    100.0%      0.0%
 number of processed stacks                 42140       0.0%    100.0%      0.0%
 average stack size                                     0.0      15.0       0.0
 marketing flops                   333.927416E+09
 -------------------------------------------------------------------------------
 # multiplications                            301
 max memory usage/rank              30.524838E+09
 # max total images/rank                        1
 # max 3D layers                                1
 # MPI messages exchanged                       0
 MPI messages size (bytes):
  total size                         0.000000E+00
  min size                           0.000000E+00
  max size                           0.000000E+00
  average size                       0.000000E+00
 MPI breakdown and total messages size (bytes):
             size <=      128                   0                        0
       128 < size <=     8192                   0                        0
      8192 < size <=    32768                   0                        0
     32768 < size <=   131072                   0                        0
    131072 < size <=  4194304                   0                        0
   4194304 < size <= 16777216                   0                        0
  16777216 < size                               0                        0
 -------------------------------------------------------------------------------

 MEMORY| Estimated peak process memory [MiB]                               29118

 -------------------------------------------------------------------------------
 -                                                                             -
 -                           R E F E R E N C E S                               -
 -                                                                             -
 -------------------------------------------------------------------------------
 
 CP2K version 7.1, the CP2K developers group (2019).
 CP2K is freely available from https://www.cp2k.org/ .

 Schuett, Ole; Messmer, Peter; Hutter, Juerg; VandeVondele, Joost. 
 Electronic Structure Calculations on Graphics Processing Units, John
 Wiley & Sons, Ltd, 173-190 (2016). 
 GPU-Accelerated Sparse Matrix-Matrix Multiplication for
 Linear Scaling Density Functional Theory.
 https://dx.doi.org/10.1002/9781118670712.ch8

 Borstnik, U; VandeVondele, J; Weber, V; Hutter, J. 
 PARALLEL COMPUTING, 40 (5-6), 47-58 (2014). 
 Sparse matrix multiplication: The distributed block-compressed sparse
 row library.
 https://dx.doi.org/10.1016/j.parco.2014.03.012

 Hutter, J; Iannuzzi, M; Schiffmann, F; VandeVondele, J. 
 WIREs Comput Mol Sci., 4 (1), 15-25 (2014). 
 CP2K: atomistic simulations of condensed matter systems.
 https://dx.doi.org/10.1002/wcms.1159

 Krack, M. 
 THEORETICAL CHEMISTRY ACCOUNTS, 114 (1-3), 145-152 (2005). 
 Pseudopotentials for H to Kr optimized for gradient-corrected
 exchange-correlation functionals.
 https://dx.doi.org/10.1007/s00214-005-0655-y

 VandeVondele, J; Krack, M; Mohamed, F; Parrinello, M; Chassaing, T;
 Hutter, J. COMPUTER PHYSICS COMMUNICATIONS, 167 (2), 103-128 (2005). 
 QUICKSTEP: Fast and accurate density functional calculations using a
 mixed Gaussian and plane waves approach.
 https://dx.doi.org/10.1016/j.cpc.2004.12.014

 Frigo, M; Johnson, SG. 
 PROCEEDINGS OF THE IEEE, 93 (2), 216-231 (2005). 
 The design and implementation of FFTW3.
 https://dx.doi.org/10.1109/JPROC.2004.840301

 Hartwigsen, C; Goedecker, S; Hutter, J. 
 PHYSICAL REVIEW B, 58 (7), 3641-3662 (1998). 
 Relativistic separable dual-space Gaussian pseudopotentials from H to Rn.
 https://dx.doi.org/10.1103/PhysRevB.58.3641

 Lippert, G; Hutter, J; Parrinello, M. 
 MOLECULAR PHYSICS, 92 (3), 477-487 (1997). 
 A hybrid Gaussian and plane wave density functional scheme.
 https://dx.doi.org/10.1080/002689797170220

 Goedecker, S; Teter, M; Hutter, J. 
 PHYSICAL REVIEW B, 54 (3), 1703-1710 (1996). 
 Separable dual-space Gaussian pseudopotentials.
 https://dx.doi.org/10.1103/PhysRevB.54.1703


 -------------------------------------------------------------------------------
 -                                                                             -
 -                                T I M I N G                                  -
 -                                                                             -
 -------------------------------------------------------------------------------
 SUBROUTINE                       CALLS  ASD         SELF TIME        TOTAL TIME
                                MAXIMUM       AVERAGE  MAXIMUM  AVERAGE  MAXIMUM
 CP2K                                 1  1.0    1.020    1.020 6944.337 6944.337
 qs_forces                            1  2.0    0.000    0.000 6933.211 6933.211
 qs_energies                          1  3.0    0.000    0.000 6929.763 6929.763
 scf_env_do_scf                       1  4.0    0.001    0.001 6918.276 6918.276
 scf_env_do_scf_inner_loop          300  5.0    0.047    0.047 6918.275 6918.275
 gspace_mixing                      299  6.0   42.189   42.189 2883.307 2883.307
 broyden_mixing                     299  7.0 2600.269 2600.269 2600.271 2600.271
 qs_scf_new_mos                     300  6.0    0.009    0.009 1917.029 1917.029
 eigensolver                        300  7.0    0.037    0.037 1881.081 1881.081
 cp_fm_syevd                        300  8.0 1263.538 1263.538 1264.628 1264.628
 pw_transfer                       3912  9.9    0.374    0.374 1128.252 1128.252
 fft_wrap_pw1pw2                   3310 10.9    0.045    0.045 1101.991 1101.991
 rebuild_ks_matrix                  301  7.0    0.001    0.001 1091.777 1091.777
 qs_ks_build_kohn_sham_matrix       301  8.0    0.079    0.079 1091.776 1091.776
 qs_ks_update_qs_env                300  6.0    0.004    0.004 1088.684 1088.684
 qs_rho_update_rho                  301  6.0    0.003    0.003 1031.064 1031.064
 calculate_rho_elec                 301  7.0  510.086  510.086 1031.062 1031.062
 fft_wrap_pw1pw2_70                1504 11.2   86.709   86.709 1012.528 1012.528
 cp_fm_cholesky_restore             900  8.0  615.324  615.324  615.324  615.324
 fft3d_s                           3311 12.9  521.707  521.707  521.734  521.734
 density_rs2pw                      301  8.0    0.032    0.032  513.319  513.319
 pw_scatter_s                      1804 13.2  408.894  408.894  408.894  408.894
 pw_poisson_solve                   301  9.0  333.254  333.254  359.495  359.495
 sum_up_and_integrate               301  9.0   18.372   18.372  290.151  290.151
 integrate_v_rspace                 301 10.0    7.851    7.851  271.778  271.778
 potential_pw2rs                    301 11.0    2.522    2.522  260.132  260.132
 qs_vxc_create                      301  9.0    0.007    0.007  158.512  158.512
 xc_vxc_pw_create                   301 10.0   42.244   42.244  158.505  158.505
 -------------------------------------------------------------------------------

 The number of warnings for this run is : 1
 
 -------------------------------------------------------------------------------
  **** **** ******  **  PROGRAM ENDED AT                 2020-05-29 09:07:37.200
 ***** ** ***  *** **   PROGRAM RAN ON                                   gnode44
 **    ****   ******    PROGRAM RAN BY                               mayank.modi
 ***** **    ** ** **   PROGRAM PROCESS ID                                 28696
  **** **  *******  **  PROGRAM STOPPED IN /home/mayank.modi/ab-initio-thermodyn
                                           amics-of-water/mayank/cp2k_energy_cal
                                           culations
