 DBCSR| CPU Multiplication driver                                           XSMM
 DBCSR| Multrec recursion limit                                              512
 DBCSR| Multiplication stack size                                           1000
 DBCSR| Maximum elements for images                                    UNLIMITED
 DBCSR| Multiplicative factor virtual images                                   1
 DBCSR| Use multiplication densification                                       T
 DBCSR| Multiplication size stacks                                             3


  **** **** ******  **  PROGRAM STARTED AT               2020-05-28 09:29:18.986
 ***** ** ***  *** **   PROGRAM STARTED ON                               gnode44
 **    ****   ******    PROGRAM STARTED BY                           mayank.modi
 ***** **    ** ** **   PROGRAM PROCESS ID                                 12703
  **** **  *******  **  PROGRAM STARTED IN /home/mayank.modi/ab-initio-thermodyn
                                           amics-of-water/mayank/cp2k_energy_cal
                                           culations

 CP2K| version string:                                          CP2K version 7.1
 CP2K| source code revision number:                                  git:e635599
 CP2K| cp2kflags: omp libint fftw3 libxc xsmm spglib                            
 CP2K| is freely available from                            https://www.cp2k.org/
 CP2K| Program compiled at                          Mon Dec 23 19:23:12 CET 2019
 CP2K| Program compiled on                                                pc9404
 CP2K| Program compiled for                                Linux-x86-64-gfortran
 CP2K| Data directory path                                        /opt/cp2k/data
 CP2K| Input file name                                 input_training/input21.in

 GLOBAL| Force Environment number                                              1
 GLOBAL| Basis set file name                                           BASIS_SET
 GLOBAL| Potential file name                                      GTH_POTENTIALS
 GLOBAL| MM Potential file name                                     MM_POTENTIAL
 GLOBAL| Coordinate file name                                      __STD_INPUT__
 GLOBAL| Method name                                                        CP2K
 GLOBAL| Project name                                                   H2O_bulk
 GLOBAL| Preferred FFT library                                             FFTW3
 GLOBAL| Preferred diagonalization lib.                                       SL
 GLOBAL| Run type                                                   ENERGY_FORCE
 GLOBAL| All-to-all communication in single precision                          F
 GLOBAL| FFTs using library dependent lengths                                  F
 GLOBAL| Global print level                                                  LOW
 GLOBAL| MPI I/O enabled                                                       T
 GLOBAL| Total number of message passing processes                             1
 GLOBAL| Number of threads for this process                                   36
 GLOBAL| This output is from process                                           0
 GLOBAL| CPU model name                Intel(R) Xeon(R) CPU E5-2640 v4 @ 2.40GHz
 GLOBAL| CPUID                                                              1002
 GLOBAL| Compiled for CPUID                                                    0

 MEMORY| system memory details [Kb]
 MEMORY|                        rank 0           min           max       average
 MEMORY| MemTotal            131893056     131893056     131893056     131893056
 MEMORY| MemFree             121139356     121139356     121139356     121139356
 MEMORY| Buffers               2115180       2115180       2115180       2115180
 MEMORY| Cached                3079700       3079700       3079700       3079700
 MEMORY| Slab                  3302828       3302828       3302828       3302828
 MEMORY| SReclaimable          3100784       3100784       3100784       3100784
 MEMORY| MemLikelyFree       129435020     129435020     129435020     129435020


 GENERATE|  Preliminary Number of Bonds generated:                             0
 GENERATE|  Achieved consistency in connectivity generation.

 *******************************************************************************
 *******************************************************************************
 **                                                                           **
 **     #####                         ##              ##                      **
 **    ##   ##            ##          ##              ##                      **
 **   ##     ##                       ##            ######                    **
 **   ##     ##  ##   ##  ##   #####  ##  ##   ####   ##    #####    #####    **
 **   ##     ##  ##   ##  ##  ##      ## ##   ##      ##   ##   ##  ##   ##   **
 **   ##  ## ##  ##   ##  ##  ##      ####     ###    ##   ######   ######    **
 **    ##  ###   ##   ##  ##  ##      ## ##      ##   ##   ##       ##        **
 **     #######   #####   ##   #####  ##  ##  ####    ##    #####   ##        **
 **           ##                                                    ##        **
 **                                                                           **
 **                                                ... make the atoms dance   **
 **                                                                           **
 **            Copyright (C) by CP2K developers group (2000 - 2019)           **
 **                                                                           **
 *******************************************************************************


 TOTAL NUMBERS AND MAXIMUM NUMBERS

  Total number of            - Atomic kinds:                                   2
                             - Atoms:                                        192
                             - Shell sets:                                   384
                             - Shells:                                       704
                             - Primitive Cartesian functions:                960
                             - Cartesian basis functions:                   1536
                             - Spherical basis functions:                   1472

  Maximum angular momentum of- Orbital basis functions:                        2
                             - Local part of the GTH pseudopotential:          2
                             - Non-local part of the GTH pseudopotential:      0


 SCF PARAMETERS         Density guess:                                    ATOMIC
                        --------------------------------------------------------
                        max_scf:                                             300
                        max_scf_history:                                       0
                        max_diis:                                              4
                        --------------------------------------------------------
                        eps_scf:                                        1.00E-07
                        eps_scf_history:                                0.00E+00
                        eps_diis:                                       1.00E-01
                        eps_eigval:                                     1.00E-05
                        --------------------------------------------------------
                        level_shift [a.u.]:                                 0.00
                        --------------------------------------------------------
                        Mixing method:                            BROYDEN_MIXING
                                                charge density mixing in g-space
                        --------------------------------------------------------
                        No outer SCF

 Number of electrons:                                                        512
 Number of occupied orbitals:                                                256
 Number of molecular orbitals:                                               256

 Number of orbital functions:                                               1472
 Number of independent orbital functions:                                   1472

 Extrapolation method: initial_guess


 SCF WAVEFUNCTION OPTIMIZATION

  Step     Update method      Time    Convergence         Total energy    Change
  ------------------------------------------------------------------------------
     1 NoMix/Diag. 0.40E+00   11.3     0.60864645     -1064.1922031625 -1.06E+03
     2 Broy./Diag. 0.40E+00   16.3     1.30724966      -997.4719990605  6.67E+01
     3 Broy./Diag. 0.40E+00   16.7     0.73532810     -1258.7956745909 -2.61E+02
     4 Broy./Diag. 0.40E+00   16.5     0.32907163     -1099.4344365838  1.59E+02
     5 Broy./Diag. 0.40E+00   17.2     0.71383143     -1103.4973318381 -4.06E+00
     6 Broy./Diag. 0.40E+00   17.4     0.39213610     -1075.7854009580  2.77E+01
     7 Broy./Diag. 0.40E+00   20.0     0.06820829     -1074.0032739809  1.78E+00
     8 Broy./Diag. 0.40E+00   21.1     0.08419581     -1078.3726090041 -4.37E+00
     9 Broy./Diag. 0.40E+00   23.1     0.03454568     -1077.7787406860  5.94E-01
    10 Broy./Diag. 0.40E+00   23.9     0.01877324     -1076.2630992516  1.52E+00
    11 Broy./Diag. 0.40E+00   23.4     0.01307740     -1076.4415958876 -1.78E-01
    12 Broy./Diag. 0.40E+00   24.0     0.00456521     -1076.5243902406 -8.28E-02
    13 Broy./Diag. 0.40E+00   23.9     0.00575373     -1076.3065553151  2.18E-01
    14 Broy./Diag. 0.40E+00   23.8     0.00323916     -1076.2284087531  7.81E-02
    15 Broy./Diag. 0.40E+00   23.9     0.00370509     -1076.2112457192  1.72E-02
    16 Broy./Diag. 0.40E+00   23.0     0.00351593     -1076.2406885305 -2.94E-02
    17 Broy./Diag. 0.40E+00   21.1     0.92614193     -1076.2833861289 -4.27E-02
    18 Broy./Diag. 0.40E+00   23.4     0.93940194     -1077.8099595100 -1.53E+00
    19 Broy./Diag. 0.40E+00   23.7     0.02482488     -1076.2943834383  1.52E+00
    20 Broy./Diag. 0.40E+00   23.6     0.01254410     -1076.3063447284 -1.20E-02
    21 Broy./Diag. 0.40E+00   23.8     0.00241334     -1076.3196288012 -1.33E-02
    22 Broy./Diag. 0.40E+00   23.9     0.00166353     -1076.2897713562  2.99E-02
    23 Broy./Diag. 0.40E+00   23.4     0.00132279     -1076.2978565174 -8.09E-03
    24 Broy./Diag. 0.40E+00   23.8     0.00115726     -1076.3220942949 -2.42E-02
    25 Broy./Diag. 0.40E+00   22.2     0.92758567     -1076.2868399019  3.53E-02
    26 Broy./Diag. 0.40E+00   22.0     0.93557483     -1077.7820825552 -1.50E+00
    27 Broy./Diag. 0.40E+00   24.6     0.00595465     -1076.2763792754  1.51E+00
    28 Broy./Diag. 0.40E+00   24.3     0.00260160     -1076.2766871700 -3.08E-04
    29 Broy./Diag. 0.40E+00   24.5     0.00036246     -1076.2897262967 -1.30E-02
    30 Broy./Diag. 0.40E+00   24.1     0.00051104     -1076.2891015662  6.25E-04
    31 Broy./Diag. 0.40E+00   24.1     0.00059546     -1076.2904733566 -1.37E-03
    32 Broy./Diag. 0.40E+00   24.2     0.00053532     -1076.2908234707 -3.50E-04
    33 Broy./Diag. 0.40E+00   23.8     0.00054582     -1076.2929667962 -2.14E-03
    34 Broy./Diag. 0.40E+00   23.1     0.00039335     -1076.2900062672  2.96E-03
    35 Broy./Diag. 0.40E+00   23.7     0.00763206     -1076.2967821940 -6.78E-03
    36 Broy./Diag. 0.40E+00   22.9     0.00222981     -1076.3455559036 -4.88E-02
    37 Broy./Diag. 0.40E+00   23.5     0.92699737     -1076.3101592451  3.54E-02
    38 Broy./Diag. 0.40E+00   24.6     0.98272114     -1077.8079283380 -1.50E+00
    39 Broy./Diag. 0.40E+00   24.0     0.02285508     -1076.2049098207  1.60E+00
    40 Broy./Diag. 0.40E+00   23.9     0.01258854     -1076.1003104477  1.05E-01
    41 Broy./Diag. 0.40E+00   24.4     0.00517669     -1076.2601978030 -1.60E-01
    42 Broy./Diag. 0.40E+00   22.2     0.00567226     -1076.2819717970 -2.18E-02
    43 Broy./Diag. 0.40E+00   23.1     0.00454351     -1076.2896112464 -7.64E-03
    44 Broy./Diag. 0.40E+00   24.0     0.00332242     -1076.2630868360  2.65E-02
    45 Broy./Diag. 0.40E+00   23.8     0.00107458     -1076.2682743420 -5.19E-03
    46 Broy./Diag. 0.40E+00   23.7     0.00197789     -1076.2756057846 -7.33E-03
    47 Broy./Diag. 0.40E+00   22.6     0.01313128     -1076.2725337921  3.07E-03
    48 Broy./Diag. 0.40E+00   22.7     0.00216680     -1076.2859043095 -1.34E-02
    49 Broy./Diag. 0.40E+00   24.0     0.00142991     -1076.3100079132 -2.41E-02
    50 Broy./Diag. 0.40E+00   23.7     0.00083607     -1076.2936606919  1.63E-02
    51 Broy./Diag. 0.40E+00   24.1     0.92602352     -1076.3029172113 -9.26E-03
    52 Broy./Diag. 0.40E+00   22.3     1.71094956     -1077.9047054372 -1.60E+00
    53 Broy./Diag. 0.40E+00   24.2     1.25089768     -1078.5334000166 -6.29E-01
    54 Broy./Diag. 0.40E+00   24.2     1.29260183     -1078.0471761857  4.86E-01
    55 Broy./Diag. 0.40E+00   23.5     1.05547844     -1077.9133413624  1.34E-01
    56 Broy./Diag. 0.40E+00   23.7     1.76663839     -1076.6777754582  1.24E+00
    57 Broy./Diag. 0.40E+00   24.0     0.87386830     -1077.3476360257 -6.70E-01
    58 Broy./Diag. 0.40E+00   24.6     0.08276956     -1076.2659908980  1.08E+00
    59 Broy./Diag. 0.40E+00   24.2     0.05233379     -1076.1933755124  7.26E-02
    60 Broy./Diag. 0.40E+00   23.9     0.02275113     -1076.1300562138  6.33E-02
    61 Broy./Diag. 0.40E+00   24.1     0.03942353     -1076.2474706411 -1.17E-01
    62 Broy./Diag. 0.40E+00   23.8     0.03515804     -1076.3747889916 -1.27E-01
    63 Broy./Diag. 0.40E+00   24.3     0.03025527     -1076.2222809944  1.53E-01
    64 Broy./Diag. 0.40E+00   24.5     0.02019403     -1076.3026710749 -8.04E-02
    65 Broy./Diag. 0.40E+00   23.9     0.03957175     -1076.3398625901 -3.72E-02
    66 Broy./Diag. 0.40E+00   23.6     0.03943918     -1076.3289324677  1.09E-02
    67 Broy./Diag. 0.40E+00   23.7     0.02176852     -1076.3843706316 -5.54E-02
    68 Broy./Diag. 0.40E+00   24.1     0.01811820     -1076.2770242250  1.07E-01
    69 Broy./Diag. 0.40E+00   24.0     0.00959247     -1076.3986824673 -1.22E-01
    70 Broy./Diag. 0.40E+00   24.2     0.92855337     -1076.3016910746  9.70E-02
    71 Broy./Diag. 0.40E+00   24.1     0.94478896     -1077.8141545045 -1.51E+00
    72 Broy./Diag. 0.40E+00   24.1     0.01915122     -1076.2950240745  1.52E+00
    73 Broy./Diag. 0.40E+00   24.0     0.00844911     -1076.3113207367 -1.63E-02
    74 Broy./Diag. 0.40E+00   24.2     0.00511024     -1076.2612591258  5.01E-02
    75 Broy./Diag. 0.40E+00   24.3     0.00144177     -1076.2934939954 -3.22E-02
    76 Broy./Diag. 0.40E+00   23.8     0.00112405     -1076.2850422422  8.45E-03
    77 Broy./Diag. 0.40E+00   24.2     0.00103819     -1076.2879152740 -2.87E-03
    78 Broy./Diag. 0.40E+00   22.1     0.00091054     -1076.2839747421  3.94E-03
    79 Broy./Diag. 0.40E+00   23.2     0.00070211     -1076.2870642889 -3.09E-03
    80 Broy./Diag. 0.40E+00   23.7     0.79825287     -1076.2920123570 -4.95E-03
    81 Broy./Diag. 0.40E+00   23.8     0.81132362     -1077.8226736757 -1.53E+00
    82 Broy./Diag. 0.40E+00   23.4     0.01633709     -1076.2686115705  1.55E+00
    83 Broy./Diag. 0.40E+00   24.0     0.01216359     -1076.3010177729 -3.24E-02
    84 Broy./Diag. 0.40E+00   24.0     0.00245693     -1076.2946102863  6.41E-03
    85 Broy./Diag. 0.40E+00   23.9     0.00193852     -1076.2985984833 -3.99E-03
    86 Broy./Diag. 0.40E+00   23.7     0.00110180     -1076.2904885670  8.11E-03
    87 Broy./Diag. 0.40E+00   22.5     0.00145331     -1076.2956736899 -5.19E-03
    88 Broy./Diag. 0.40E+00   23.4     0.00110799     -1076.2940531819  1.62E-03
    89 Broy./Diag. 0.40E+00   23.8     0.92579352     -1076.2949678684 -9.15E-04
    90 Broy./Diag. 0.40E+00   23.9     0.94039476     -1077.7930700382 -1.50E+00
    91 Broy./Diag. 0.40E+00   23.7     0.01369199     -1076.2758745718  1.52E+00
    92 Broy./Diag. 0.40E+00   24.0     0.01070142     -1076.3090012210 -3.31E-02
    93 Broy./Diag. 0.40E+00   24.2     0.00440385     -1076.2764274390  3.26E-02
    94 Broy./Diag. 0.40E+00   24.6     0.00172351     -1076.3002881175 -2.39E-02
    95 Broy./Diag. 0.40E+00   24.2     0.00106004     -1076.2910083565  9.28E-03
    96 Broy./Diag. 0.40E+00   24.2     0.00069983     -1076.2943908041 -3.38E-03
    97 Broy./Diag. 0.40E+00   24.1     0.00049905     -1076.2947974890 -4.07E-04
    98 Broy./Diag. 0.40E+00   24.2     0.00030390     -1076.2944724498  3.25E-04
    99 Broy./Diag. 0.40E+00   24.9     0.93286738     -1076.2953635413 -8.91E-04
   100 Broy./Diag. 0.40E+00   24.3     0.94678312     -1077.8065334630 -1.51E+00
   101 Broy./Diag. 0.40E+00   23.6     0.01868669     -1076.2553439334  1.55E+00
   102 Broy./Diag. 0.40E+00   23.8     0.00645340     -1076.2827661939 -2.74E-02
   103 Broy./Diag. 0.40E+00   24.1     0.00227443     -1076.2905800428 -7.81E-03
   104 Broy./Diag. 0.40E+00   24.1     0.00076854     -1076.2822737596  8.31E-03
   105 Broy./Diag. 0.40E+00   24.0     0.00068216     -1076.2852851474 -3.01E-03
   106 Broy./Diag. 0.40E+00   24.1     0.00063016     -1076.2839569784  1.33E-03
   107 Broy./Diag. 0.40E+00   23.9     0.00052406     -1076.2861203119 -2.16E-03
   108 Broy./Diag. 0.40E+00   24.1     0.00028914     -1076.2860146610  1.06E-04
   109 Broy./Diag. 0.40E+00   24.2     0.79765276     -1076.2881002947 -2.09E-03
   110 Broy./Diag. 0.40E+00   24.4     0.81330240     -1077.8196488092 -1.53E+00
   111 Broy./Diag. 0.40E+00   21.9     0.01932165     -1076.2621535297  1.56E+00
   112 Broy./Diag. 0.40E+00   23.2     0.00772477     -1076.3828881390 -1.21E-01
   113 Broy./Diag. 0.40E+00   23.0     0.00437960     -1076.2883735384  9.45E-02
   114 Broy./Diag. 0.40E+00   23.8     0.00330721     -1076.2906439411 -2.27E-03
   115 Broy./Diag. 0.40E+00   24.0     0.00144675     -1076.2967015296 -6.06E-03
   116 Broy./Diag. 0.40E+00   24.1     0.00131089     -1076.2913719980  5.33E-03
   117 Broy./Diag. 0.40E+00   24.0     0.00093400     -1076.2953224218 -3.95E-03
   118 Broy./Diag. 0.40E+00   24.6     0.92627387     -1076.2926943203  2.63E-03
   119 Broy./Diag. 0.40E+00   24.4     0.94211963     -1077.7865653528 -1.49E+00
   120 Broy./Diag. 0.40E+00   24.1     0.02168927     -1076.2698026223  1.52E+00
   121 Broy./Diag. 0.40E+00   23.9     0.00978209     -1076.3396966248 -6.99E-02
   122 Broy./Diag. 0.40E+00   23.8     0.00753646     -1076.2580833625  8.16E-02
   123 Broy./Diag. 0.40E+00   23.3     0.00231608     -1076.3060300635 -4.79E-02
   124 Broy./Diag. 0.40E+00   23.7     0.00089860     -1076.2913426554  1.47E-02
   125 Broy./Diag. 0.40E+00   23.7     0.00078660     -1076.2937485359 -2.41E-03
   126 Broy./Diag. 0.40E+00   24.6     0.00051661     -1076.2946466969 -8.98E-04
   127 Broy./Diag. 0.40E+00   24.0     0.00037355     -1076.2937900470  8.57E-04
   128 Broy./Diag. 0.40E+00   24.3     0.79711583     -1076.2947180166 -9.28E-04
   129 Broy./Diag. 0.40E+00   24.1     0.81732078     -1077.8462811064 -1.55E+00
   130 Broy./Diag. 0.40E+00   23.8     0.01449841     -1076.2925015952  1.55E+00
   131 Broy./Diag. 0.40E+00   23.9     0.01021241     -1076.2826502143  9.85E-03
   132 Broy./Diag. 0.40E+00   24.5     0.00563110     -1076.2632177313  1.94E-02
   133 Broy./Diag. 0.40E+00   23.1     0.00213207     -1076.2924307336 -2.92E-02
   134 Broy./Diag. 0.40E+00   22.1     0.00222650     -1076.2695816932  2.28E-02
   135 Broy./Diag. 0.40E+00   22.9     0.00269227     -1076.2701523185 -5.71E-04
   136 Broy./Diag. 0.40E+00   24.3     0.00424347     -1076.2787152520 -8.56E-03
   137 Broy./Diag. 0.40E+00   23.7     0.00326115     -1076.2775561698  1.16E-03
   138 Broy./Diag. 0.40E+00   23.4     0.92444815     -1076.2854021283 -7.85E-03
   139 Broy./Diag. 0.40E+00   23.6     0.03654034     -1077.8234711586 -1.54E+00
   140 Broy./Diag. 0.40E+00   24.2     0.01245512     -1077.8136478265  9.82E-03
   141 Broy./Diag. 0.40E+00   22.5     0.93954809     -1077.7854901380  2.82E-02
   142 Broy./Diag. 0.40E+00   23.7     0.02480181     -1076.2470714740  1.54E+00
   143 Broy./Diag. 0.40E+00   23.2     0.01261231     -1076.2999724977 -5.29E-02
   144 Broy./Diag. 0.40E+00   23.2     0.00380195     -1076.2740742990  2.59E-02
   145 Broy./Diag. 0.40E+00   23.3     0.00217879     -1076.2977851892 -2.37E-02
   146 Broy./Diag. 0.40E+00   23.8     0.00171193     -1076.2949234232  2.86E-03
   147 Broy./Diag. 0.40E+00   24.9     0.00126364     -1076.2911903220  3.73E-03
   148 Broy./Diag. 0.40E+00   23.8     0.00099283     -1076.2928309008 -1.64E-03
   149 Broy./Diag. 0.40E+00   23.5     0.00129015     -1076.2943379605 -1.51E-03
   150 Broy./Diag. 0.40E+00   22.7     0.79807617     -1076.2845491319  9.79E-03
   151 Broy./Diag. 0.40E+00   24.4     0.81267289     -1077.8310301734 -1.55E+00
   152 Broy./Diag. 0.40E+00   24.7     0.01340758     -1076.2998493316  1.53E+00
   153 Broy./Diag. 0.40E+00   24.1     0.01240428     -1076.3072428429 -7.39E-03
   154 Broy./Diag. 0.40E+00   24.7     0.00444223     -1076.2820307044  2.52E-02
   155 Broy./Diag. 0.40E+00   23.8     0.00345951     -1076.2902997566 -8.27E-03
   156 Broy./Diag. 0.40E+00   23.9     0.00206452     -1076.2954548058 -5.16E-03
   157 Broy./Diag. 0.40E+00   24.0     0.00093664     -1076.2846398827  1.08E-02
   158 Broy./Diag. 0.40E+00   24.4     0.00053949     -1076.2880478419 -3.41E-03
   159 Broy./Diag. 0.40E+00   22.4     0.00045386     -1076.2926996880 -4.65E-03
   160 Broy./Diag. 0.40E+00   23.4     0.92477699     -1076.2890296474  3.67E-03
   161 Broy./Diag. 0.40E+00   24.1     0.95796420     -1077.8208055664 -1.53E+00
   162 Broy./Diag. 0.40E+00   22.2     0.01809872     -1076.2324228942  1.59E+00
   163 Broy./Diag. 0.40E+00   23.7     0.01304918     -1076.3019222177 -6.95E-02
   164 Broy./Diag. 0.40E+00   23.7     0.00312419     -1076.2417656333  6.02E-02
   165 Broy./Diag. 0.40E+00   23.6     0.00565023     -1076.2542890846 -1.25E-02
   166 Broy./Diag. 0.40E+00   23.6     0.00423834     -1076.2379415444  1.63E-02
   167 Broy./Diag. 0.40E+00   24.1     0.00195678     -1076.2487522125 -1.08E-02
   168 Broy./Diag. 0.40E+00   22.1     0.00149984     -1076.2425635782  6.19E-03
   169 Broy./Diag. 0.40E+00   23.5     0.00199353     -1076.2534821381 -1.09E-02
   170 Broy./Diag. 0.40E+00   23.7     0.02146662     -1076.2527042738  7.78E-04
   171 Broy./Diag. 0.40E+00   23.5     0.00694910     -1076.3395381046 -8.68E-02
   172 Broy./Diag. 0.40E+00   24.4     0.00280733     -1076.3069592971  3.26E-02
   173 Broy./Diag. 0.40E+00   22.0     0.00315697     -1076.3102431364 -3.28E-03
   174 Broy./Diag. 0.40E+00   23.5     0.00256299     -1076.3158712727 -5.63E-03
   175 Broy./Diag. 0.40E+00   23.0     0.00159481     -1076.3067627629  9.11E-03
   176 Broy./Diag. 0.40E+00   23.0     0.00246546     -1076.3099608247 -3.20E-03
   177 Broy./Diag. 0.40E+00   23.8     0.00173984     -1076.3061664293  3.79E-03
   178 Broy./Diag. 0.40E+00   23.6     0.92622962     -1076.3072928360 -1.13E-03
   179 Broy./Diag. 0.40E+00   23.7     0.93989479     -1077.7822705162 -1.47E+00
   180 Broy./Diag. 0.40E+00   23.7     0.02184450     -1076.2484148524  1.53E+00
   181 Broy./Diag. 0.40E+00   23.7     0.00977046     -1076.3727484563 -1.24E-01
   182 Broy./Diag. 0.40E+00   23.9     0.00121687     -1076.2951565181  7.76E-02
   183 Broy./Diag. 0.40E+00   24.0     0.00101672     -1076.2868686475  8.29E-03
   184 Broy./Diag. 0.40E+00   24.2     0.00065875     -1076.2955237716 -8.66E-03
   185 Broy./Diag. 0.40E+00   24.0     0.00074197     -1076.2972114253 -1.69E-03
   186 Broy./Diag. 0.40E+00   23.9     0.00054319     -1076.2928692094  4.34E-03
   187 Broy./Diag. 0.40E+00   23.8     0.00054651     -1076.2943544823 -1.49E-03
   188 Broy./Diag. 0.40E+00   23.9     0.93270429     -1076.2975175000 -3.16E-03
   189 Broy./Diag. 0.40E+00   23.9     0.94395300     -1077.8078199144 -1.51E+00
   190 Broy./Diag. 0.40E+00   24.4     0.79953901     -1076.2623738953  1.55E+00
   191 Broy./Diag. 0.40E+00   24.0     0.93064604     -1077.8224501165 -1.56E+00
   192 Broy./Diag. 0.40E+00   23.6     0.94451329     -1077.7612578691  6.12E-02
   193 Broy./Diag. 0.40E+00   23.5     0.02496899     -1076.2777441636  1.48E+00
   194 Broy./Diag. 0.40E+00   24.0     0.01562755     -1076.2303689806  4.74E-02
   195 Broy./Diag. 0.40E+00   24.2     0.00481673     -1076.2771918897 -4.68E-02
   196 Broy./Diag. 0.40E+00   23.6     0.00337764     -1076.2588141713  1.84E-02
   197 Broy./Diag. 0.40E+00   22.7     0.00167359     -1076.2700742798 -1.13E-02
   198 Broy./Diag. 0.40E+00   23.5     0.00189616     -1076.2723247140 -2.25E-03
   199 Broy./Diag. 0.40E+00   23.6     0.00108865     -1076.2693060881  3.02E-03
   200 Broy./Diag. 0.40E+00   24.5     0.00454048     -1076.2738827482 -4.58E-03
   201 Broy./Diag. 0.40E+00   23.9     0.01489401     -1076.2781149253 -4.23E-03
   202 Broy./Diag. 0.40E+00   23.4     0.00491247     -1076.3067622682 -2.86E-02
   203 Broy./Diag. 0.40E+00   23.7     0.00544750     -1076.2972397056  9.52E-03
   204 Broy./Diag. 0.40E+00   24.2     0.00325643     -1076.3130773560 -1.58E-02
   205 Broy./Diag. 0.40E+00   22.6     0.00163352     -1076.3201151834 -7.04E-03
   206 Broy./Diag. 0.40E+00   23.2     0.92560941     -1076.3076216471  1.25E-02
   207 Broy./Diag. 0.40E+00   22.8     1.00960700     -1077.8395396038 -1.53E+00
   208 Broy./Diag. 0.40E+00   23.2     0.05896812     -1076.2244399350  1.62E+00
   209 Broy./Diag. 0.40E+00   24.1     0.03397732     -1075.9269126689  2.98E-01
   210 Broy./Diag. 0.40E+00   24.2     0.02005374     -1076.1648883651 -2.38E-01
   211 Broy./Diag. 0.40E+00   24.0     0.01221443     -1076.2240443970 -5.92E-02
   212 Broy./Diag. 0.40E+00   23.1     0.00363516     -1076.2032609392  2.08E-02
   213 Broy./Diag. 0.40E+00   22.3     0.00366095     -1076.2151116500 -1.19E-02
   214 Broy./Diag. 0.40E+00   24.2     0.00436879     -1076.2154363369 -3.25E-04
   215 Broy./Diag. 0.40E+00   23.5     0.00651808     -1076.2247160311 -9.28E-03
   216 Broy./Diag. 0.40E+00   23.8     0.02781101     -1076.2316807331 -6.96E-03
   217 Broy./Diag. 0.40E+00   24.9     0.00382187     -1076.3082507185 -7.66E-02
   218 Broy./Diag. 0.40E+00   23.7     0.00233668     -1076.3039685319  4.28E-03
   219 Broy./Diag. 0.40E+00   23.5     0.00228287     -1076.3057377478 -1.77E-03
   220 Broy./Diag. 0.40E+00   23.7     0.00177129     -1076.3069205849 -1.18E-03
   221 Broy./Diag. 0.40E+00   24.0     0.92564821     -1076.3065999302  3.21E-04
   222 Broy./Diag. 0.40E+00   24.0     1.75811972     -1077.8171273496 -1.51E+00
   223 Broy./Diag. 0.40E+00   23.7     0.48427743     -1078.3653298769 -5.48E-01
   224 Broy./Diag. 0.40E+00   23.2     0.98750230     -1078.3314867866  3.38E-02
   225 Broy./Diag. 0.40E+00   23.8     1.71569909     -1078.2375900964  9.39E-02
   226 Broy./Diag. 0.40E+00   24.9     0.94688433     -1075.7997881918  2.44E+00
   227 Broy./Diag. 0.40E+00   22.5     0.09395406     -1078.1303267234 -2.33E+00
   228 Broy./Diag. 0.40E+00   22.7     0.93626702     -1077.5970515493  5.33E-01
   229 Broy./Diag. 0.40E+00   24.0     0.00917848     -1076.1133292583  1.48E+00
   230 Broy./Diag. 0.40E+00   22.4     0.00948163     -1076.1573102529 -4.40E-02
   231 Broy./Diag. 0.40E+00   23.1     0.00585477     -1076.1135881889  4.37E-02
   232 Broy./Diag. 0.40E+00   23.3     0.00431397     -1076.1115881269  2.00E-03
   233 Broy./Diag. 0.40E+00   22.8     0.00421331     -1076.0993637699  1.22E-02
   234 Broy./Diag. 0.40E+00   20.7     0.05463795     -1076.1134770877 -1.41E-02
   235 Broy./Diag. 0.40E+00   21.5     0.02265127     -1076.3343539359 -2.21E-01
   236 Broy./Diag. 0.40E+00   20.6     0.02269598     -1076.1694853145  1.65E-01
   237 Broy./Diag. 0.40E+00   23.1     0.96256693     -1076.1825927160 -1.31E-02
   238 Broy./Diag. 0.40E+00   23.7     1.32750645     -1077.8652480753 -1.68E+00
   239 Broy./Diag. 0.40E+00   23.8     0.84748582     -1077.5188055946  3.46E-01
   240 Broy./Diag. 0.40E+00   24.4     0.08156286     -1075.8323646532  1.69E+00
   241 Broy./Diag. 0.40E+00   22.0     0.04068705     -1076.3423250802 -5.10E-01
   242 Broy./Diag. 0.40E+00   22.6     0.01294534     -1076.1075725362  2.35E-01
   243 Broy./Diag. 0.40E+00   22.0     0.00624110     -1076.0785221057  2.91E-02
   244 Broy./Diag. 0.40E+00   22.5     0.00896329     -1076.1384733540 -6.00E-02
   245 Broy./Diag. 0.40E+00   23.3     0.00571425     -1076.1188807578  1.96E-02
   246 Broy./Diag. 0.40E+00   23.6     0.02348560     -1076.1383283544 -1.94E-02
   247 Broy./Diag. 0.40E+00   23.6     0.02707435     -1076.2198175658 -8.15E-02
   248 Broy./Diag. 0.40E+00   23.6     0.00914006     -1076.2684040086 -4.86E-02
   249 Broy./Diag. 0.40E+00   23.0     0.00547345     -1076.3179455249 -4.95E-02
   250 Broy./Diag. 0.40E+00   22.5     0.00708539     -1076.3163154820  1.63E-03
   251 Broy./Diag. 0.40E+00   21.2     0.00526984     -1076.2904047044  2.59E-02
   252 Broy./Diag. 0.40E+00   22.7     0.00206993     -1076.3109160217 -2.05E-02
   253 Broy./Diag. 0.40E+00   22.0     0.00182847     -1076.3161761340 -5.26E-03
   254 Broy./Diag. 0.40E+00   21.6     0.00127958     -1076.3025667853  1.36E-02
   255 Broy./Diag. 0.40E+00   23.1     0.00123028     -1076.3098173362 -7.25E-03
   256 Broy./Diag. 0.40E+00   23.6     0.92657424     -1076.3024598591  7.36E-03
   257 Broy./Diag. 0.40E+00   22.6     0.93788203     -1077.7901505136 -1.49E+00
   258 Broy./Diag. 0.40E+00   22.0     0.01478770     -1076.2687087364  1.52E+00
   259 Broy./Diag. 0.40E+00   25.0     0.00796987     -1076.3572163234 -8.85E-02
   260 Broy./Diag. 0.40E+00   23.9     0.00281102     -1076.2876783369  6.95E-02
   261 Broy./Diag. 0.40E+00   23.8     0.00158807     -1076.2988364895 -1.12E-02
   262 Broy./Diag. 0.40E+00   23.4     0.00069063     -1076.2940895930  4.75E-03
   263 Broy./Diag. 0.40E+00   24.0     0.00076708     -1076.2968271027 -2.74E-03
   264 Broy./Diag. 0.40E+00   23.0     0.00049826     -1076.2952992543  1.53E-03
   265 Broy./Diag. 0.40E+00   23.6     0.00037232     -1076.2969757056 -1.68E-03
   266 Broy./Diag. 0.40E+00   23.7     0.93172390     -1076.2981917064 -1.22E-03
   267 Broy./Diag. 0.40E+00   23.8     0.94376615     -1077.8052381796 -1.51E+00
   268 Broy./Diag. 0.40E+00   22.3     0.80056420     -1076.2658229091  1.54E+00
   269 Broy./Diag. 0.40E+00   23.6     0.81090977     -1077.8136363588 -1.55E+00
   270 Broy./Diag. 0.40E+00   23.0     0.01817859     -1076.2619343493  1.55E+00
   271 Broy./Diag. 0.40E+00   23.1     0.01464637     -1076.3501937544 -8.83E-02
   272 Broy./Diag. 0.40E+00   23.6     0.00385613     -1076.2606219388  8.96E-02
   273 Broy./Diag. 0.40E+00   23.5     0.00135271     -1076.2851050741 -2.45E-02
   274 Broy./Diag. 0.40E+00   23.8     0.00097429     -1076.2774037334  7.70E-03
   275 Broy./Diag. 0.40E+00   25.3     0.00086245     -1076.2819509968 -4.55E-03
   276 Broy./Diag. 0.40E+00   23.8     0.01253034     -1076.2862221948 -4.27E-03
   277 Broy./Diag. 0.40E+00   23.4     0.00586773     -1076.3138470808 -2.76E-02
   278 Broy./Diag. 0.40E+00   23.4     0.00949367     -1076.2921757029  2.17E-02
   279 Broy./Diag. 0.40E+00   24.4     0.92645862     -1076.3243044669 -3.21E-02
   280 Broy./Diag. 0.40E+00   24.7     0.97414688     -1077.8216715040 -1.50E+00
   281 Broy./Diag. 0.40E+00   23.9     0.02458804     -1076.1188495853  1.70E+00
   282 Broy./Diag. 0.40E+00   23.6     0.02171129     -1076.3217257529 -2.03E-01
   283 Broy./Diag. 0.40E+00   23.1     0.00714488     -1076.2248205857  9.69E-02
   284 Broy./Diag. 0.40E+00   23.5     0.00495879     -1076.2312796559 -6.46E-03
   285 Broy./Diag. 0.40E+00   23.6     0.00321614     -1076.2449690492 -1.37E-02
   286 Broy./Diag. 0.40E+00   23.5     0.00338163     -1076.2419013837  3.07E-03
   287 Broy./Diag. 0.40E+00   24.6     0.00208487     -1076.2539408603 -1.20E-02
   288 Broy./Diag. 0.40E+00   24.2     0.00174648     -1076.2420403366  1.19E-02
   289 Broy./Diag. 0.40E+00   23.7     0.79374304     -1076.2480603708 -6.02E-03
   290 Broy./Diag. 0.40E+00   23.4     0.01130768     -1077.8148249042 -1.57E+00
   291 Broy./Diag. 0.40E+00   24.0     0.01410756     -1077.7937271456  2.11E-02
   292 Broy./Diag. 0.40E+00   24.8     0.92789436     -1077.7730766642  2.07E-02
   293 Broy./Diag. 0.40E+00   24.0     1.75376124     -1077.7945345904 -2.15E-02
   294 Broy./Diag. 0.40E+00   24.6     1.19141131     -1083.9280957989 -6.13E+00
   295 Broy./Diag. 0.40E+00   23.0     1.71608328     -1079.5153475088  4.41E+00
   296 Broy./Diag. 0.40E+00   24.3     1.72265710     -1082.5471304687 -3.03E+00
   297 Broy./Diag. 0.40E+00   23.9     1.78042862     -1076.9809401627  5.57E+00
   298 Broy./Diag. 0.40E+00   24.0     0.27406122     -1075.5986357425  1.38E+00
   299 Broy./Diag. 0.40E+00   23.4     0.10632792     -1076.4274670363 -8.29E-01
   300 Broy./Diag. 0.40E+00   22.8     0.03831677     -1076.1776552568  2.50E-01

  Leaving inner SCF loop after reaching   300 steps.


  Electronic density on regular grids:       -511.9997874200        0.0002125800
  Core density on regular grids:              511.9998926816       -0.0001073184
  Total charge density on r-space grids:        0.0001052616
  Total charge density g-space grids:           0.0001052616

  Overlap energy of the core charge distribution:               0.00000000000000
  Self energy of the core charge distribution:              -2838.21791979120962
  Core Hamiltonian energy:                                    759.69668931055651
  Hartree energy:                                            1241.02962956262695
  Exchange-correlation energy:                               -238.68605433873429

  Total energy:                                             -1076.17765525676054

 *** WARNING in qs_scf.F:542 :: SCF run NOT converged ***


 ENERGY| Total FORCE_EVAL ( QS ) energy (a.u.):            -1076.301131618091858


 ATOMIC FORCES in [a.u.]

 # Atom   Kind   Element          X              Y              Z
      1      1      O          -0.09605394     0.07675147    -0.08956640
      2      2      H           0.02299010    -0.08825050     0.01589452
      3      2      H           0.05165054     0.05664161    -0.00283437
      4      1      O          -0.08039043    -0.10463816    -0.06176984
      5      2      H          -0.02706667     0.06120771    -0.02742117
      6      2      H           0.06838961    -0.03723082     0.01837428
      7      1      O          -0.04688130    -0.07608082    -0.02514977
      8      2      H           0.07019574     0.01769207     0.01657207
      9      2      H          -0.04855640    -0.07083292     0.02271936
     10      1      O          -0.02428584     0.05277304    -0.17386609
     11      2      H           0.05566237     0.02246997     0.05243865
     12      2      H          -0.07401548     0.00132846     0.00218417
     13      1      O          -0.07239944     0.05474092    -0.01242300
     14      2      H          -0.02134544     0.00820582    -0.11355479
     15      2      H           0.06255639    -0.03884931     0.02730321
     16      1      O          -0.01700302     0.03541829    -0.15468559
     17      2      H           0.06857699    -0.01844402     0.08724214
     18      2      H          -0.07228173    -0.01784298     0.01839602
     19      1      O           0.03270736    -0.02821877     0.02172691
     20      2      H           0.00592766    -0.03952015     0.00369785
     21      2      H           0.00630932     0.03590571    -0.01164847
     22      1      O          -0.01861983    -0.06312140     0.16590116
     23      2      H          -0.01634785     0.06025460    -0.05238613
     24      2      H           0.05936366    -0.04848083    -0.07669046
     25      1      O           0.02042451     0.01594036    -0.03202268
     26      2      H          -0.00307886    -0.06470365     0.00676161
     27      2      H          -0.04783832     0.01056132    -0.05834318
     28      1      O           0.00784737     0.14474835    -0.12141698
     29      2      H          -0.04541148    -0.00296105     0.09082722
     30      2      H           0.01051223    -0.04925080    -0.04659993
     31      1      O           0.02634380    -0.10780632     0.08116837
     32      2      H          -0.04644340     0.06046685    -0.02090892
     33      2      H          -0.01139253    -0.04585955    -0.08077091
     34      1      O          -0.10509055    -0.06220521    -0.09904442
     35      2      H           0.05964100    -0.05204062     0.00960122
     36      2      H           0.01857907     0.09857627     0.04742858
     37      1      O          -0.02095640    -0.02281959     0.02371920
     38      2      H           0.00079715    -0.06643835    -0.02819612
     39      2      H           0.01307071     0.02021352    -0.09550593
     40      1      O          -0.00663592    -0.11837503    -0.02487873
     41      2      H           0.05074467     0.06183224    -0.04528360
     42      2      H          -0.06814060     0.02725423     0.01346662
     43      1      O           0.01993612    -0.09102070     0.01967805
     44      2      H          -0.05970268     0.00330070    -0.03687047
     45      2      H           0.05049382    -0.00099069    -0.01309079
     46      1      O           0.00531602    -0.01326513     0.00759070
     47      2      H          -0.04333703     0.04530152    -0.00142504
     48      2      H           0.03537277     0.01271344     0.05908179
     49      1      O           0.01541017    -0.13001776     0.07933335
     50      2      H          -0.04109566     0.00006334    -0.07854030
     51      2      H           0.02859988     0.09764294    -0.00521140
     52      1      O           0.00357862    -0.12818726    -0.03984393
     53      2      H          -0.06193566    -0.01481012     0.00480304
     54      2      H           0.05269382     0.04087311    -0.05724139
     55      1      O          -0.05347665    -0.08789506    -0.12161525
     56      2      H           0.08435731    -0.05737706    -0.02278890
     57      2      H           0.00758959     0.06240985     0.00870348
     58      1      O           0.04766707     0.07079640    -0.08773462
     59      2      H          -0.07312561     0.04986844     0.03395210
     60      2      H           0.00328820    -0.06554100    -0.01927432
     61      1      O          -0.04234950     0.01083929    -0.07329349
     62      2      H          -0.01803598    -0.10507313     0.01847502
     63      2      H          -0.00101566     0.00466450     0.07934351
     64      1      O          -0.04292857    -0.03163370    -0.13795255
     65      2      H           0.01853150     0.08187653    -0.02958055
     66      2      H           0.00865209     0.00503711     0.04181179
     67      1      O           0.07368350    -0.01855133     0.04906915
     68      2      H          -0.05890514     0.00782930     0.02661945
     69      2      H          -0.01724350     0.01260143    -0.04233289
     70      1      O          -0.05259001    -0.08898086    -0.01443232
     71      2      H           0.08005909     0.00963640    -0.04245204
     72      2      H          -0.02673211    -0.00187202     0.07626788
     73      1      O           0.08243039    -0.10434481     0.07478122
     74      2      H          -0.04834586     0.08616606     0.04772803
     75      2      H           0.00662971    -0.04984595    -0.09604859
     76      1      O           0.02258480    -0.03945666     0.13526740
     77      2      H          -0.06236318     0.04131486     0.00909660
     78      2      H           0.03681785    -0.06183857    -0.05542311
     79      1      O          -0.00249670     0.01078298     0.01105138
     80      2      H           0.06896402    -0.02610605     0.08443385
     81      2      H          -0.07424263    -0.00980766     0.02227879
     82      1      O          -0.05761372     0.07971867     0.05527441
     83      2      H          -0.03148490    -0.07271044     0.01245056
     84      2      H           0.07771900     0.01185780    -0.03067726
     85      1      O          -0.06461475     0.00188257     0.04098876
     86      2      H           0.07565796     0.00333211    -0.06366696
     87      2      H          -0.00300116    -0.01940035     0.08692851
     88      1      O          -0.02771440     0.00338681    -0.01127815
     89      2      H          -0.04695434    -0.00434294     0.09131837
     90      2      H           0.05583522    -0.01748990     0.06373883
     91      1      O           0.08180417    -0.06466370     0.04862138
     92      2      H           0.02895672     0.03929860     0.03155773
     93      2      H          -0.06985126    -0.01121246     0.01254911
     94      1      O          -0.03800540     0.07634761    -0.01184339
     95      2      H          -0.02829796    -0.07122729    -0.05544637
     96      2      H           0.08953759     0.02646962     0.00459597
     97      1      O          -0.04125366    -0.08950853    -0.03209897
     98      2      H           0.06290875    -0.02633295    -0.00152093
     99      2      H          -0.02605513     0.04150391     0.08973508
    100      1      O           0.05676609    -0.06127064     0.06529936
    101      2      H          -0.06580940     0.02673617     0.07556819
    102      2      H           0.01792363     0.04676389    -0.01802744
    103      1      O          -0.03768402     0.12355698    -0.09911330
    104      2      H          -0.03118789    -0.09530575    -0.01831810
    105      2      H           0.08179579    -0.02361608     0.03548926
    106      1      O           0.07274642     0.05701438     0.06330399
    107      2      H          -0.02548071     0.05724042    -0.08798653
    108      2      H          -0.02283150    -0.04333744     0.04888160
    109      1      O           0.09883399     0.09340343     0.04218978
    110      2      H          -0.00393966     0.00564462    -0.06936754
    111      2      H          -0.06733997    -0.00680016     0.03791587
    112      1      O          -0.05005451    -0.04082874    -0.02262115
    113      2      H           0.01987986     0.05087740    -0.02445825
    114      2      H           0.02369982    -0.07037082    -0.06075706
    115      1      O          -0.01409405    -0.06842036     0.13302902
    116      2      H           0.05673995     0.01034832     0.05589456
    117      2      H          -0.02229220     0.06260309    -0.06136031
    118      1      O          -0.05521562    -0.00825029     0.04484337
    119      2      H           0.04186426    -0.08091643    -0.01798507
    120      2      H           0.01396504     0.01242679    -0.08041664
    121      1      O          -0.04663877     0.08721713     0.05502288
    122      2      H           0.01341556    -0.08257904    -0.03404576
    123      2      H           0.05918807    -0.01125682     0.03581097
    124      1      O           0.00072780     0.10912343     0.09470188
    125      2      H           0.00081923     0.00984470    -0.09859209
    126      2      H          -0.01166462    -0.09277295     0.05555864
    127      1      O          -0.08002801     0.01024555    -0.12451842
    128      2      H           0.01349912     0.01650742     0.04922457
    129      2      H           0.04197817    -0.09043770    -0.03618738
    130      1      O           0.05822733    -0.01400368    -0.13288420
    131      2      H          -0.04421184     0.04444420     0.00414315
    132      2      H           0.00982604     0.00657841     0.04005307
    133      1      O          -0.07457964     0.09430719     0.10232977
    134      2      H           0.02166440     0.00290415    -0.05469922
    135      2      H           0.05551790    -0.02079910     0.04935238
    136      1      O          -0.01385660     0.10224112     0.02896287
    137      2      H           0.01609448    -0.05931990    -0.00222706
    138      2      H           0.02323931     0.05602926     0.07588751
    139      1      O           0.07268732    -0.09723764     0.01640239
    140      2      H           0.03999843     0.01676632    -0.02433411
    141      2      H          -0.06468359    -0.00699685     0.02643613
    142      1      O           0.02810370    -0.00207179    -0.12994581
    143      2      H          -0.07751444    -0.01974709     0.00827640
    144      2      H           0.02938580    -0.01166502     0.07391842
    145      1      O           0.01261883     0.09598638     0.00081077
    146      2      H           0.01602095    -0.09696607     0.01943161
    147      2      H          -0.04201383    -0.01246069    -0.02243705
    148      1      O          -0.08993665     0.08192630     0.05342744
    149      2      H           0.03841754     0.01203176     0.02773454
    150      2      H           0.01992144    -0.09203857    -0.04199163
    151      1      O          -0.04160304    -0.02311973    -0.08821135
    152      2      H          -0.02738109    -0.08225428     0.08517192
    153      2      H           0.08553650    -0.00469760    -0.00137994
    154      1      O          -0.08286752    -0.01856260     0.00547724
    155      2      H           0.05116013     0.02283924     0.00951329
    156      2      H           0.03802637    -0.04715326    -0.06727165
    157      1      O          -0.07022681    -0.04660599    -0.01501794
    158      2      H           0.04210237    -0.08708359     0.05946359
    159      2      H           0.02953272     0.04166614     0.05670539
    160      1      O          -0.05183039     0.01424458     0.01836414
    161      2      H           0.07652917    -0.00902959    -0.02769971
    162      2      H          -0.04224234    -0.00821326    -0.02493794
    163      1      O          -0.04638867     0.02661416     0.01714871
    164      2      H          -0.00269835     0.08083365     0.07427874
    165      2      H           0.04801728    -0.05451548    -0.00540432
    166      1      O          -0.06596511    -0.07127029     0.02605220
    167      2      H           0.00974339    -0.03157644     0.05686771
    168      2      H           0.03323820     0.05030523    -0.04843566
    169      1      O           0.09066645     0.07293355     0.00159108
    170      2      H          -0.04763543    -0.03485361     0.01201612
    171      2      H           0.00337658     0.05172849     0.03462171
    172      1      O          -0.04668860    -0.12947369     0.10973107
    173      2      H          -0.03117886     0.03478485    -0.06267027
    174      2      H           0.07857130     0.04767584    -0.00473800
    175      1      O          -0.02189997    -0.08978358    -0.06215223
    176      2      H          -0.04106444     0.01299470     0.06147989
    177      2      H           0.09408079    -0.00250744     0.02273491
    178      1      O          -0.05817608     0.09360795     0.05825185
    179      2      H          -0.01188630    -0.00237151    -0.10666739
    180      2      H           0.07242332    -0.01874832     0.01995228
    181      1      O           0.03005415    -0.07985692     0.16670266
    182      2      H          -0.04238580    -0.02242759     0.01373848
    183      2      H           0.00011655     0.03789852    -0.01697816
    184      1      O          -0.05378717    -0.03056148     0.09092746
    185      2      H          -0.05640030    -0.02507031    -0.07896339
    186      2      H           0.08469271    -0.01476006    -0.04408349
    187      1      O          -0.06258132    -0.03617380     0.13776300
    188      2      H          -0.00103922    -0.03285261    -0.02452868
    189      2      H           0.04604731     0.07188476    -0.03537057
    190      1      O          -0.04927947     0.09661151     0.16970740
    191      2      H          -0.01322481    -0.08036993    -0.06706061
    192      2      H           0.05663239     0.00748071    -0.03967128
 SUM OF ATOMIC FORCES          -0.13101294    -1.10346606     0.16054148     1.12275345

 -------------------------------------------------------------------------------
 -                                                                             -
 -                                DBCSR STATISTICS                             -
 -                                                                             -
 -------------------------------------------------------------------------------
 COUNTER                                    TOTAL       BLAS       SMM       ACC
 flops     5 x     5 x   256           3579251200       0.0%    100.0%      0.0%
 flops    13 x     5 x   256           4257344000       0.0%    100.0%      0.0%
 flops     5 x    13 x   256           4327464960       0.0%    100.0%      0.0%
 flops    13 x    13 x   256           6042423296       0.0%    100.0%      0.0%
 flops inhomo. stacks                           0       0.0%      0.0%      0.0%
 flops total                        18.206483E+09       0.0%    100.0%      0.0%
 flops max/rank                     18.206483E+09       0.0%    100.0%      0.0%
 matmuls inhomo. stacks                         0       0.0%      0.0%      0.0%
 matmuls total                             607418       0.0%    100.0%      0.0%
 number of processed stacks                 42140       0.0%    100.0%      0.0%
 average stack size                                     0.0      14.4       0.0
 marketing flops                   333.927416E+09
 -------------------------------------------------------------------------------
 # multiplications                            301
 max memory usage/rank              30.523109E+09
 # max total images/rank                        1
 # max 3D layers                                1
 # MPI messages exchanged                       0
 MPI messages size (bytes):
  total size                         0.000000E+00
  min size                           0.000000E+00
  max size                           0.000000E+00
  average size                       0.000000E+00
 MPI breakdown and total messages size (bytes):
             size <=      128                   0                        0
       128 < size <=     8192                   0                        0
      8192 < size <=    32768                   0                        0
     32768 < size <=   131072                   0                        0
    131072 < size <=  4194304                   0                        0
   4194304 < size <= 16777216                   0                        0
  16777216 < size                               0                        0
 -------------------------------------------------------------------------------

 MEMORY| Estimated peak process memory [MiB]                               29125

 -------------------------------------------------------------------------------
 -                                                                             -
 -                           R E F E R E N C E S                               -
 -                                                                             -
 -------------------------------------------------------------------------------
 
 CP2K version 7.1, the CP2K developers group (2019).
 CP2K is freely available from https://www.cp2k.org/ .

 Schuett, Ole; Messmer, Peter; Hutter, Juerg; VandeVondele, Joost. 
 Electronic Structure Calculations on Graphics Processing Units, John
 Wiley & Sons, Ltd, 173-190 (2016). 
 GPU-Accelerated Sparse Matrix-Matrix Multiplication for
 Linear Scaling Density Functional Theory.
 https://dx.doi.org/10.1002/9781118670712.ch8

 Borstnik, U; VandeVondele, J; Weber, V; Hutter, J. 
 PARALLEL COMPUTING, 40 (5-6), 47-58 (2014). 
 Sparse matrix multiplication: The distributed block-compressed sparse
 row library.
 https://dx.doi.org/10.1016/j.parco.2014.03.012

 Hutter, J; Iannuzzi, M; Schiffmann, F; VandeVondele, J. 
 WIREs Comput Mol Sci., 4 (1), 15-25 (2014). 
 CP2K: atomistic simulations of condensed matter systems.
 https://dx.doi.org/10.1002/wcms.1159

 Krack, M. 
 THEORETICAL CHEMISTRY ACCOUNTS, 114 (1-3), 145-152 (2005). 
 Pseudopotentials for H to Kr optimized for gradient-corrected
 exchange-correlation functionals.
 https://dx.doi.org/10.1007/s00214-005-0655-y

 VandeVondele, J; Krack, M; Mohamed, F; Parrinello, M; Chassaing, T;
 Hutter, J. COMPUTER PHYSICS COMMUNICATIONS, 167 (2), 103-128 (2005). 
 QUICKSTEP: Fast and accurate density functional calculations using a
 mixed Gaussian and plane waves approach.
 https://dx.doi.org/10.1016/j.cpc.2004.12.014

 Frigo, M; Johnson, SG. 
 PROCEEDINGS OF THE IEEE, 93 (2), 216-231 (2005). 
 The design and implementation of FFTW3.
 https://dx.doi.org/10.1109/JPROC.2004.840301

 Hartwigsen, C; Goedecker, S; Hutter, J. 
 PHYSICAL REVIEW B, 58 (7), 3641-3662 (1998). 
 Relativistic separable dual-space Gaussian pseudopotentials from H to Rn.
 https://dx.doi.org/10.1103/PhysRevB.58.3641

 Lippert, G; Hutter, J; Parrinello, M. 
 MOLECULAR PHYSICS, 92 (3), 477-487 (1997). 
 A hybrid Gaussian and plane wave density functional scheme.
 https://dx.doi.org/10.1080/002689797170220

 Goedecker, S; Teter, M; Hutter, J. 
 PHYSICAL REVIEW B, 54 (3), 1703-1710 (1996). 
 Separable dual-space Gaussian pseudopotentials.
 https://dx.doi.org/10.1103/PhysRevB.54.1703


 -------------------------------------------------------------------------------
 -                                                                             -
 -                                T I M I N G                                  -
 -                                                                             -
 -------------------------------------------------------------------------------
 SUBROUTINE                       CALLS  ASD         SELF TIME        TOTAL TIME
                                MAXIMUM       AVERAGE  MAXIMUM  AVERAGE  MAXIMUM
 CP2K                                 1  1.0    1.084    1.084 7064.191 7064.191
 qs_forces                            1  2.0    0.000    0.000 7052.795 7052.795
 qs_energies                          1  3.0    0.000    0.000 7049.137 7049.137
 scf_env_do_scf                       1  4.0    0.001    0.001 7037.469 7037.469
 scf_env_do_scf_inner_loop          300  5.0    0.046    0.046 7037.468 7037.468
 gspace_mixing                      299  6.0   42.271   42.271 2991.355 2991.355
 broyden_mixing                     299  7.0 2701.418 2701.418 2701.421 2701.421
 qs_scf_new_mos                     300  6.0    0.008    0.008 1945.121 1945.121
 eigensolver                        300  7.0    0.032    0.032 1908.914 1908.914
 cp_fm_syevd                        300  8.0 1276.814 1276.814 1277.967 1277.967
 pw_transfer                       3912  9.9    0.380    0.380 1149.792 1149.792
 fft_wrap_pw1pw2                   3310 10.9    0.041    0.041 1122.947 1122.947
 rebuild_ks_matrix                  301  7.0    0.001    0.001 1122.109 1122.109
 qs_ks_build_kohn_sham_matrix       301  8.0    0.087    0.087 1122.108 1122.108
 qs_ks_update_qs_env                300  6.0    0.003    0.003 1118.819 1118.819
 fft_wrap_pw1pw2_70                1504 11.2   87.447   87.447 1029.585 1029.585
 qs_rho_update_rho                  301  6.0    0.002    0.002  984.130  984.130
 calculate_rho_elec                 301  7.0  454.588  454.588  984.128  984.128
 cp_fm_cholesky_restore             900  8.0  629.890  629.890  629.890  629.890
 fft3d_s                           3311 12.9  534.064  534.064  534.105  534.105
 density_rs2pw                      301  8.0    0.026    0.026  521.056  521.056
 pw_scatter_s                      1804 13.2  415.602  415.602  415.602  415.602
 pw_poisson_solve                   301  9.0  340.257  340.257  367.090  367.090
 sum_up_and_integrate               301  9.0   18.887   18.887  297.147  297.147
 integrate_v_rspace                 301 10.0    8.253    8.253  278.259  278.259
 potential_pw2rs                    301 11.0    2.536    2.536  266.274  266.274
 qs_vxc_create                      301  9.0    0.010    0.010  165.212  165.212
 xc_vxc_pw_create                   301 10.0   42.541   42.541  165.202  165.202
 -------------------------------------------------------------------------------

 The number of warnings for this run is : 1
 
 -------------------------------------------------------------------------------
  **** **** ******  **  PROGRAM ENDED AT                 2020-05-28 11:27:03.576
 ***** ** ***  *** **   PROGRAM RAN ON                                   gnode44
 **    ****   ******    PROGRAM RAN BY                               mayank.modi
 ***** **    ** ** **   PROGRAM PROCESS ID                                 12703
  **** **  *******  **  PROGRAM STOPPED IN /home/mayank.modi/ab-initio-thermodyn
                                           amics-of-water/mayank/cp2k_energy_cal
                                           culations
