 DBCSR| CPU Multiplication driver                                           XSMM
 DBCSR| Multrec recursion limit                                              512
 DBCSR| Multiplication stack size                                           1000
 DBCSR| Maximum elements for images                                    UNLIMITED
 DBCSR| Multiplicative factor virtual images                                   1
 DBCSR| Use multiplication densification                                       T
 DBCSR| Multiplication size stacks                                             3


  **** **** ******  **  PROGRAM STARTED AT               2020-05-27 21:39:02.818
 ***** ** ***  *** **   PROGRAM STARTED ON                               gnode44
 **    ****   ******    PROGRAM STARTED BY                           mayank.modi
 ***** **    ** ** **   PROGRAM PROCESS ID                                  4371
  **** **  *******  **  PROGRAM STARTED IN /home/mayank.modi/ab-initio-thermodyn
                                           amics-of-water/mayank/cp2k_energy_cal
                                           culations

 CP2K| version string:                                          CP2K version 7.1
 CP2K| source code revision number:                                  git:e635599
 CP2K| cp2kflags: omp libint fftw3 libxc xsmm spglib                            
 CP2K| is freely available from                            https://www.cp2k.org/
 CP2K| Program compiled at                          Mon Dec 23 19:23:12 CET 2019
 CP2K| Program compiled on                                                pc9404
 CP2K| Program compiled for                                Linux-x86-64-gfortran
 CP2K| Data directory path                                        /opt/cp2k/data
 CP2K| Input file name                                 input_training/input15.in

 GLOBAL| Force Environment number                                              1
 GLOBAL| Basis set file name                                           BASIS_SET
 GLOBAL| Potential file name                                      GTH_POTENTIALS
 GLOBAL| MM Potential file name                                     MM_POTENTIAL
 GLOBAL| Coordinate file name                                      __STD_INPUT__
 GLOBAL| Method name                                                        CP2K
 GLOBAL| Project name                                                   H2O_bulk
 GLOBAL| Preferred FFT library                                             FFTW3
 GLOBAL| Preferred diagonalization lib.                                       SL
 GLOBAL| Run type                                                   ENERGY_FORCE
 GLOBAL| All-to-all communication in single precision                          F
 GLOBAL| FFTs using library dependent lengths                                  F
 GLOBAL| Global print level                                                  LOW
 GLOBAL| MPI I/O enabled                                                       T
 GLOBAL| Total number of message passing processes                             1
 GLOBAL| Number of threads for this process                                   36
 GLOBAL| This output is from process                                           0
 GLOBAL| CPU model name                Intel(R) Xeon(R) CPU E5-2640 v4 @ 2.40GHz
 GLOBAL| CPUID                                                              1002
 GLOBAL| Compiled for CPUID                                                    0

 MEMORY| system memory details [Kb]
 MEMORY|                        rank 0           min           max       average
 MEMORY| MemTotal            131893056     131893056     131893056     131893056
 MEMORY| MemFree             119204464     119204464     119204464     119204464
 MEMORY| Buffers               2110528       2110528       2110528       2110528
 MEMORY| Cached                3092832       3092832       3092832       3092832
 MEMORY| Slab                  3309704       3309704       3309704       3309704
 MEMORY| SReclaimable          3099476       3099476       3099476       3099476
 MEMORY| MemLikelyFree       127507300     127507300     127507300     127507300


 GENERATE| WARNING:: No connections detected for Hydrogen - Atom Nr:        59 !
 GENERATE|  Preliminary Number of Bonds generated:                             0
 GENERATE|  Achieved consistency in connectivity generation.

 *******************************************************************************
 *******************************************************************************
 **                                                                           **
 **     #####                         ##              ##                      **
 **    ##   ##            ##          ##              ##                      **
 **   ##     ##                       ##            ######                    **
 **   ##     ##  ##   ##  ##   #####  ##  ##   ####   ##    #####    #####    **
 **   ##     ##  ##   ##  ##  ##      ## ##   ##      ##   ##   ##  ##   ##   **
 **   ##  ## ##  ##   ##  ##  ##      ####     ###    ##   ######   ######    **
 **    ##  ###   ##   ##  ##  ##      ## ##      ##   ##   ##       ##        **
 **     #######   #####   ##   #####  ##  ##  ####    ##    #####   ##        **
 **           ##                                                    ##        **
 **                                                                           **
 **                                                ... make the atoms dance   **
 **                                                                           **
 **            Copyright (C) by CP2K developers group (2000 - 2019)           **
 **                                                                           **
 *******************************************************************************


 TOTAL NUMBERS AND MAXIMUM NUMBERS

  Total number of            - Atomic kinds:                                   2
                             - Atoms:                                        192
                             - Shell sets:                                   384
                             - Shells:                                       704
                             - Primitive Cartesian functions:                960
                             - Cartesian basis functions:                   1536
                             - Spherical basis functions:                   1472

  Maximum angular momentum of- Orbital basis functions:                        2
                             - Local part of the GTH pseudopotential:          2
                             - Non-local part of the GTH pseudopotential:      0


 SCF PARAMETERS         Density guess:                                    ATOMIC
                        --------------------------------------------------------
                        max_scf:                                             300
                        max_scf_history:                                       0
                        max_diis:                                              4
                        --------------------------------------------------------
                        eps_scf:                                        1.00E-07
                        eps_scf_history:                                0.00E+00
                        eps_diis:                                       1.00E-01
                        eps_eigval:                                     1.00E-05
                        --------------------------------------------------------
                        level_shift [a.u.]:                                 0.00
                        --------------------------------------------------------
                        Mixing method:                            BROYDEN_MIXING
                                                charge density mixing in g-space
                        --------------------------------------------------------
                        No outer SCF

 Number of electrons:                                                        512
 Number of occupied orbitals:                                                256
 Number of molecular orbitals:                                               256

 Number of orbital functions:                                               1472
 Number of independent orbital functions:                                   1472

 Extrapolation method: initial_guess


 SCF WAVEFUNCTION OPTIMIZATION

  Step     Update method      Time    Convergence         Total energy    Change
  ------------------------------------------------------------------------------
     1 NoMix/Diag. 0.40E+00   11.0     0.68793960     -1063.9338568793 -1.06E+03
     2 Broy./Diag. 0.40E+00   15.9     1.90101520      -992.9070484897  7.10E+01
     3 Broy./Diag. 0.40E+00   17.1     1.92553936     -1274.4657113519 -2.82E+02
     4 Broy./Diag. 0.40E+00   16.2     1.68858736     -1131.7138911848  1.43E+02
     5 Broy./Diag. 0.40E+00   18.4     1.60517571     -1100.0108735544  3.17E+01
     6 Broy./Diag. 0.40E+00   19.4     1.81905952     -1101.0523074647 -1.04E+00
     7 Broy./Diag. 0.40E+00   20.9     1.80923385     -1102.4997179350 -1.45E+00
     8 Broy./Diag. 0.40E+00   22.0     1.72753075     -1090.6345529621  1.19E+01
     9 Broy./Diag. 0.40E+00   23.4     1.56954362     -1079.3970607492  1.12E+01
    10 Broy./Diag. 0.40E+00   24.2     1.37855309     -1076.6956735689  2.70E+00
    11 Broy./Diag. 0.40E+00   23.1     1.32398338     -1070.3890243516  6.31E+00
    12 Broy./Diag. 0.40E+00   21.4     1.19668793     -1073.5486160854 -3.16E+00
    13 Broy./Diag. 0.40E+00   23.8     1.49308136     -1069.5943725595  3.95E+00
    14 Broy./Diag. 0.40E+00   24.0     1.60757120     -1077.1579043049 -7.56E+00
    15 Broy./Diag. 0.40E+00   24.0     1.74555454     -1080.9932400985 -3.84E+00
    16 Broy./Diag. 0.40E+00   24.5     1.82405624     -1076.5099035140  4.48E+00
    17 Broy./Diag. 0.40E+00   22.6     1.68826206     -1080.2870638582 -3.78E+00
    18 Broy./Diag. 0.40E+00   24.1     1.81451541     -1074.1886042817  6.10E+00
    19 Broy./Diag. 0.40E+00   23.9     1.49610504     -1071.9033945848  2.29E+00
    20 Broy./Diag. 0.40E+00   24.0     1.59428264     -1079.9299270093 -8.03E+00
    21 Broy./Diag. 0.40E+00   25.2     1.30773121     -1079.0788017499  8.51E-01
    22 Broy./Diag. 0.40E+00   24.5     1.29885811     -1074.8437973116  4.24E+00
    23 Broy./Diag. 0.40E+00   24.1     1.49176703     -1071.2133115941  3.63E+00
    24 Broy./Diag. 0.40E+00   23.1     1.50131029     -1077.8277459570 -6.61E+00
    25 Broy./Diag. 0.40E+00   23.8     1.70967211     -1079.1840732104 -1.36E+00
    26 Broy./Diag. 0.40E+00   23.1     1.76386184     -1079.7213176526 -5.37E-01
    27 Broy./Diag. 0.40E+00   24.5     1.52168736     -1079.6445451447  7.68E-02
    28 Broy./Diag. 0.40E+00   24.6     1.42225769     -1074.8622378321  4.78E+00
    29 Broy./Diag. 0.40E+00   23.5     1.25405490     -1074.6725198644  1.90E-01
    30 Broy./Diag. 0.40E+00   24.3     1.27941501     -1076.1436724738 -1.47E+00
    31 Broy./Diag. 0.40E+00   24.6     1.17987561     -1076.4318228901 -2.88E-01
    32 Broy./Diag. 0.40E+00   24.6     1.51099986     -1072.3825037652  4.05E+00
    33 Broy./Diag. 0.40E+00   24.5     1.49467824     -1077.6506200212 -5.27E+00
    34 Broy./Diag. 0.40E+00   24.9     1.29560445     -1074.2677528623  3.38E+00
    35 Broy./Diag. 0.40E+00   24.9     1.16670461     -1076.7651607736 -2.50E+00
    36 Broy./Diag. 0.40E+00   24.5     1.45454807     -1077.2436954381 -4.79E-01
    37 Broy./Diag. 0.40E+00   25.0     1.62372663     -1079.6674360873 -2.42E+00
    38 Broy./Diag. 0.40E+00   23.9     1.57869101     -1076.4481752993  3.22E+00
    39 Broy./Diag. 0.40E+00   24.3     1.30615484     -1075.0043687011  1.44E+00
    40 Broy./Diag. 0.40E+00   24.8     1.31420669     -1076.6363504236 -1.63E+00
    41 Broy./Diag. 0.40E+00   24.3     1.41396005     -1071.8235589665  4.81E+00
    42 Broy./Diag. 0.40E+00   24.6     1.48656873     -1080.1010294393 -8.28E+00
    43 Broy./Diag. 0.40E+00   24.5     1.69039671     -1077.4964320510  2.60E+00
    44 Broy./Diag. 0.40E+00   23.6     1.72529616     -1078.6720211722 -1.18E+00
    45 Broy./Diag. 0.40E+00   24.6     1.32607733     -1077.0086234148  1.66E+00
    46 Broy./Diag. 0.40E+00   24.4     1.41878937     -1073.2848068550  3.72E+00
    47 Broy./Diag. 0.40E+00   24.6     1.53818447     -1078.5719815125 -5.29E+00
    48 Broy./Diag. 0.40E+00   24.5     1.59106779     -1077.4997398044  1.07E+00
    49 Broy./Diag. 0.40E+00   24.7     1.31714764     -1076.2987420173  1.20E+00
    50 Broy./Diag. 0.40E+00   24.4     1.59040982     -1076.0187155899  2.80E-01
    51 Broy./Diag. 0.40E+00   24.5     1.13941461     -1073.7044834937  2.31E+00
    52 Broy./Diag. 0.40E+00   24.6     1.50324277     -1072.1847890166  1.52E+00
    53 Broy./Diag. 0.40E+00   24.6     1.49862636     -1078.3401203599 -6.16E+00
    54 Broy./Diag. 0.40E+00   24.7     1.19189126     -1075.5572406126  2.78E+00
    55 Broy./Diag. 0.40E+00   24.6     1.33704265     -1073.8162621278  1.74E+00
    56 Broy./Diag. 0.40E+00   24.7     1.43998886     -1076.4924123022 -2.68E+00
    57 Broy./Diag. 0.40E+00   24.2     1.54779398     -1079.4051867259 -2.91E+00
    58 Broy./Diag. 0.40E+00   24.8     1.60323188     -1077.5463988192  1.86E+00
    59 Broy./Diag. 0.40E+00   24.6     1.68870892     -1076.9349051507  6.11E-01
    60 Broy./Diag. 0.40E+00   24.4     1.77485525     -1078.0784449004 -1.14E+00
    61 Broy./Diag. 0.40E+00   24.6     1.26416356     -1073.6795322532  4.40E+00
    62 Broy./Diag. 0.40E+00   24.4     1.28468083     -1071.8773192993  1.80E+00
    63 Broy./Diag. 0.40E+00   22.8     1.71339248     -1078.7728537399 -6.90E+00
    64 Broy./Diag. 0.40E+00   24.2     1.74019425     -1076.0722985712  2.70E+00
    65 Broy./Diag. 0.40E+00   23.5     1.53537084     -1076.6178112650 -5.46E-01
    66 Broy./Diag. 0.40E+00   23.6     1.43520407     -1073.7001443858  2.92E+00
    67 Broy./Diag. 0.40E+00   23.8     1.56101583     -1079.3062351964 -5.61E+00
    68 Broy./Diag. 0.40E+00   23.8     1.59332450     -1077.3130873675  1.99E+00
    69 Broy./Diag. 0.40E+00   24.6     1.22098955     -1077.7504828226 -4.37E-01
    70 Broy./Diag. 0.40E+00   24.4     1.40442744     -1075.3241784152  2.43E+00
    71 Broy./Diag. 0.40E+00   24.0     1.54090975     -1073.9917030297  1.33E+00
    72 Broy./Diag. 0.40E+00   24.3     1.29638660     -1072.6959359668  1.30E+00
    73 Broy./Diag. 0.40E+00   24.6     1.32066383     -1078.6843134628 -5.99E+00
    74 Broy./Diag. 0.40E+00   24.5     1.53198390     -1073.5561557960  5.13E+00
    75 Broy./Diag. 0.40E+00   24.6     1.53828504     -1079.9432009182 -6.39E+00
    76 Broy./Diag. 0.40E+00   24.3     1.48301148     -1076.6802581915  3.26E+00
    77 Broy./Diag. 0.40E+00   24.7     1.49158685     -1077.1477250428 -4.67E-01
    78 Broy./Diag. 0.40E+00   24.2     1.69144568     -1073.9928327585  3.15E+00
    79 Broy./Diag. 0.40E+00   24.7     1.72627082     -1077.6231448552 -3.63E+00
    80 Broy./Diag. 0.40E+00   24.3     1.53233407     -1075.4495924049  2.17E+00
    81 Broy./Diag. 0.40E+00   24.4     1.57854220     -1076.0416638663 -5.92E-01
    82 Broy./Diag. 0.40E+00   24.6     1.70533175     -1076.5135287032 -4.72E-01
    83 Broy./Diag. 0.40E+00   24.9     1.69597809     -1080.3295944877 -3.82E+00
    84 Broy./Diag. 0.40E+00   24.2     1.49092506     -1077.3828989851  2.95E+00
    85 Broy./Diag. 0.40E+00   23.3     1.64150969     -1072.7926635272  4.59E+00
    86 Broy./Diag. 0.40E+00   24.2     1.51229202     -1074.6483191761 -1.86E+00
    87 Broy./Diag. 0.40E+00   24.0     1.57387067     -1075.9458112048 -1.30E+00
    88 Broy./Diag. 0.40E+00   24.5     0.33433835     -1072.9598841747  2.99E+00
    89 Broy./Diag. 0.40E+00   24.6     1.28004962     -1074.9812573344 -2.02E+00
    90 Broy./Diag. 0.40E+00   24.6     1.53853411     -1077.1478745256 -2.17E+00
    91 Broy./Diag. 0.40E+00   24.6     1.56869873     -1076.5854661939  5.62E-01
    92 Broy./Diag. 0.40E+00   24.5     1.29644639     -1077.3509332389 -7.65E-01
    93 Broy./Diag. 0.40E+00   24.9     1.39446016     -1075.7880504495  1.56E+00
    94 Broy./Diag. 0.40E+00   24.5     1.54267434     -1074.8142740113  9.74E-01
    95 Broy./Diag. 0.40E+00   24.8     1.31973771     -1071.9027878201  2.91E+00
    96 Broy./Diag. 0.40E+00   24.5     1.49707492     -1078.7052624888 -6.80E+00
    97 Broy./Diag. 0.40E+00   24.3     1.69030483     -1077.7655216406  9.40E-01
    98 Broy./Diag. 0.40E+00   24.2     1.75208056     -1075.8926346680  1.87E+00
    99 Broy./Diag. 0.40E+00   25.3     1.32575816     -1073.5937096391  2.30E+00
   100 Broy./Diag. 0.40E+00   24.5     1.54383705     -1076.7108092270 -3.12E+00
   101 Broy./Diag. 0.40E+00   23.9     1.58549011     -1078.0747983867 -1.36E+00
   102 Broy./Diag. 0.40E+00   22.6     1.30694584     -1077.1615881365  9.13E-01
   103 Broy./Diag. 0.40E+00   23.9     1.44828245     -1075.7064141381  1.46E+00
   104 Broy./Diag. 0.40E+00   24.1     1.47708930     -1077.2220330238 -1.52E+00
   105 Broy./Diag. 0.40E+00   24.3     1.27687334     -1071.2213978908  6.00E+00
   106 Broy./Diag. 0.40E+00   24.5     1.22001046     -1080.2024900571 -8.98E+00
   107 Broy./Diag. 0.40E+00   23.4     1.42121567     -1077.9005404200  2.30E+00
   108 Broy./Diag. 0.40E+00   23.3     1.20415531     -1075.6651803750  2.24E+00
   109 Broy./Diag. 0.40E+00   24.9     1.40493265     -1073.2433338960  2.42E+00
   110 Broy./Diag. 0.40E+00   25.1     1.44838200     -1078.3559605759 -5.11E+00
   111 Broy./Diag. 0.40E+00   24.6     1.15775432     -1076.1244570886  2.23E+00
   112 Broy./Diag. 0.40E+00   24.9     1.29824090     -1078.1389991068 -2.01E+00
   113 Broy./Diag. 0.40E+00   25.1     1.42903478     -1076.3015336557  1.84E+00
   114 Broy./Diag. 0.40E+00   24.0     1.61306359     -1075.1023402749  1.20E+00
   115 Broy./Diag. 0.40E+00   23.4     1.50309837     -1074.0550303059  1.05E+00
   116 Broy./Diag. 0.40E+00   24.0     1.58314303     -1078.3118176683 -4.26E+00
   117 Broy./Diag. 0.40E+00   24.6     1.60893731     -1074.2145476712  4.10E+00
   118 Broy./Diag. 0.40E+00   23.8     1.40867713     -1072.0499699832  2.16E+00
   119 Broy./Diag. 0.40E+00   24.2     1.43090211     -1079.1246827179 -7.07E+00
   120 Broy./Diag. 0.40E+00   24.2     1.57372882     -1077.7418013382  1.38E+00
   121 Broy./Diag. 0.40E+00   24.4     1.69165699     -1076.9607704290  7.81E-01
   122 Broy./Diag. 0.40E+00   24.8     1.76335672     -1078.5813438243 -1.62E+00
   123 Broy./Diag. 0.40E+00   24.7     1.42087539     -1075.0137564811  3.57E+00
   124 Broy./Diag. 0.40E+00   24.5     1.55371930     -1074.6533128817  3.60E-01
   125 Broy./Diag. 0.40E+00   22.8     1.31635084     -1072.2759058328  2.38E+00
   126 Broy./Diag. 0.40E+00   24.2     1.69079038     -1077.2809993907 -5.01E+00
   127 Broy./Diag. 0.40E+00   24.1     1.75026109     -1076.8492002491  4.32E-01
   128 Broy./Diag. 0.40E+00   23.3     1.30378958     -1077.6549542948 -8.06E-01
   129 Broy./Diag. 0.40E+00   23.8     1.28263918     -1076.0145353055  1.64E+00
   130 Broy./Diag. 0.40E+00   23.3     1.56035032     -1077.3104013166 -1.30E+00
   131 Broy./Diag. 0.40E+00   22.8     1.60196159     -1076.3191713027  9.91E-01
   132 Broy./Diag. 0.40E+00   24.0     1.29163290     -1077.1776206826 -8.58E-01
   133 Broy./Diag. 0.40E+00   23.1     1.48528643     -1075.4466287086  1.73E+00
   134 Broy./Diag. 0.40E+00   23.7     1.60633727     -1074.0216361198  1.42E+00
   135 Broy./Diag. 0.40E+00   23.7     1.28177001     -1070.4989937407  3.52E+00
   136 Broy./Diag. 0.40E+00   24.1     1.28149954     -1079.0348713810 -8.54E+00
   137 Broy./Diag. 0.40E+00   24.5     1.49873368     -1075.0721372260  3.96E+00
   138 Broy./Diag. 0.40E+00   24.3     1.12788108     -1078.2362351606 -3.16E+00
   139 Broy./Diag. 0.40E+00   24.4     1.54133752     -1076.8974155529  1.34E+00
   140 Broy./Diag. 0.40E+00   24.2     1.56208469     -1080.7601683617 -3.86E+00
   141 Broy./Diag. 0.40E+00   24.3     1.60677912     -1076.3483577181  4.41E+00
   142 Broy./Diag. 0.40E+00   24.3     1.32579628     -1076.4888735608 -1.41E-01
   143 Broy./Diag. 0.40E+00   24.8     1.50403518     -1075.5243351865  9.65E-01
   144 Broy./Diag. 0.40E+00   24.4     1.63946712     -1074.5947580173  9.30E-01
   145 Broy./Diag. 0.40E+00   23.6     1.30496052     -1070.5264485922  4.07E+00
   146 Broy./Diag. 0.40E+00   21.6     1.43388294     -1078.8548639917 -8.33E+00
   147 Broy./Diag. 0.40E+00   24.0     1.50796108     -1079.7003600119 -8.45E-01
   148 Broy./Diag. 0.40E+00   24.5     1.54664096     -1077.2641653138  2.44E+00
   149 Broy./Diag. 0.40E+00   24.0     1.52252479     -1073.4044597735  3.86E+00
   150 Broy./Diag. 0.40E+00   23.0     1.34932649     -1076.4427529399 -3.04E+00
   151 Broy./Diag. 0.40E+00   24.5     1.57583916     -1078.1803161624 -1.74E+00
   152 Broy./Diag. 0.40E+00   25.7     1.21991414     -1079.2708647434 -1.09E+00
   153 Broy./Diag. 0.40E+00   24.8     1.44471657     -1076.3463608641  2.92E+00
   154 Broy./Diag. 0.40E+00   25.0     1.65693877     -1075.4366139417  9.10E-01
   155 Broy./Diag. 0.40E+00   24.9     1.32181082     -1073.5040267116  1.93E+00
   156 Broy./Diag. 0.40E+00   24.6     1.15112954     -1073.7728055139 -2.69E-01
   157 Broy./Diag. 0.40E+00   24.2     1.69008366     -1072.7548787946  1.02E+00
   158 Broy./Diag. 0.40E+00   25.5     1.75267209     -1078.1948280642 -5.44E+00
   159 Broy./Diag. 0.40E+00   24.2     1.56239005     -1079.1180051189 -9.23E-01
   160 Broy./Diag. 0.40E+00   24.8     1.69090236     -1075.6815231157  3.44E+00
   161 Broy./Diag. 0.40E+00   24.7     1.81139720     -1076.2993000953 -6.18E-01
   162 Broy./Diag. 0.40E+00   24.6     1.27582108     -1078.7947217279 -2.50E+00
   163 Broy./Diag. 0.40E+00   25.1     1.59841188     -1073.8066309098  4.99E+00
   164 Broy./Diag. 0.40E+00   24.6     1.59417539     -1074.7604889534 -9.54E-01
   165 Broy./Diag. 0.40E+00   24.1     1.52969215     -1074.9172656190 -1.57E-01
   166 Broy./Diag. 0.40E+00   24.4     1.30022949     -1075.5553505388 -6.38E-01
   167 Broy./Diag. 0.40E+00   24.7     1.68368980     -1072.8974365573  2.66E+00
   168 Broy./Diag. 0.40E+00   24.9     1.71529305     -1080.7275462902 -7.83E+00
   169 Broy./Diag. 0.40E+00   22.4     1.58820766     -1078.5438559792  2.18E+00
   170 Broy./Diag. 0.40E+00   24.1     1.30643128     -1075.8262085337  2.72E+00
   171 Broy./Diag. 0.40E+00   23.3     1.33442464     -1073.5475719621  2.28E+00
   172 Broy./Diag. 0.40E+00   21.8     1.17401150     -1077.6048665512 -4.06E+00
   173 Broy./Diag. 0.40E+00   23.7     1.24255128     -1078.0919037132 -4.87E-01
   174 Broy./Diag. 0.40E+00   24.0     1.29173053     -1075.7292697225  2.36E+00
   175 Broy./Diag. 0.40E+00   24.4     1.30281414     -1072.8236219284  2.91E+00
   176 Broy./Diag. 0.40E+00   24.0     1.49945744     -1077.2528878366 -4.43E+00
   177 Broy./Diag. 0.40E+00   24.3     1.68760340     -1077.5152116139 -2.62E-01
   178 Broy./Diag. 0.40E+00   24.3     1.75029640     -1075.8256908854  1.69E+00
   179 Broy./Diag. 0.40E+00   24.5     1.58646896     -1076.5234168997 -6.98E-01
   180 Broy./Diag. 0.40E+00   23.6     1.58263065     -1076.6089757264 -8.56E-02
   181 Broy./Diag. 0.40E+00   24.2     1.30776734     -1072.7697610702  3.84E+00
   182 Broy./Diag. 0.40E+00   24.4     1.40390888     -1077.4058065614 -4.64E+00
   183 Broy./Diag. 0.40E+00   24.6     1.49125970     -1078.9720198141 -1.57E+00
   184 Broy./Diag. 0.40E+00   24.0     1.50432286     -1072.4905680018  6.48E+00
   185 Broy./Diag. 0.40E+00   23.2     1.53103952     -1078.6713344406 -6.18E+00
   186 Broy./Diag. 0.40E+00   24.5     1.18978588     -1078.2571156415  4.14E-01
   187 Broy./Diag. 0.40E+00   24.6     1.28196211     -1077.2455712638  1.01E+00
   188 Broy./Diag. 0.40E+00   24.5     1.56151831     -1073.8630225949  3.38E+00
   189 Broy./Diag. 0.40E+00   23.1     1.56050883     -1079.3767431228 -5.51E+00
   190 Broy./Diag. 0.40E+00   25.1     1.22716190     -1075.6317375648  3.75E+00
   191 Broy./Diag. 0.40E+00   23.2     1.47787582     -1078.1954488208 -2.56E+00
   192 Broy./Diag. 0.40E+00   23.8     1.55044839     -1077.8496677166  3.46E-01
   193 Broy./Diag. 0.40E+00   24.5     1.28949287     -1072.3827453951  5.47E+00
   194 Broy./Diag. 0.40E+00   24.5     1.21915486     -1078.3545088683 -5.97E+00
   195 Broy./Diag. 0.40E+00   25.7     1.39670577     -1074.7615184561  3.59E+00
   196 Broy./Diag. 0.40E+00   24.5     1.68748471     -1077.7201876406 -2.96E+00
   197 Broy./Diag. 0.40E+00   23.6     1.75491792     -1076.0977138714  1.62E+00
   198 Broy./Diag. 0.40E+00   24.5     1.51537581     -1076.0731035244  2.46E-02
   199 Broy./Diag. 0.40E+00   25.1     1.39628624     -1077.4085319481 -1.34E+00
   200 Broy./Diag. 0.40E+00   24.3     1.29392446     -1077.9185006827 -5.10E-01
   201 Broy./Diag. 0.40E+00   24.7     1.28693374     -1072.6101859477  5.31E+00
   202 Broy./Diag. 0.40E+00   24.7     1.46536114     -1079.8627654099 -7.25E+00
   203 Broy./Diag. 0.40E+00   24.5     1.26341533     -1079.9163135288 -5.35E-02
   204 Broy./Diag. 0.40E+00   24.0     1.29241737     -1077.4668355960  2.45E+00
   205 Broy./Diag. 0.40E+00   24.4     1.56904309     -1072.8845031127  4.58E+00
   206 Broy./Diag. 0.40E+00   24.0     1.69722500     -1078.1339464242 -5.25E+00
   207 Broy./Diag. 0.40E+00   24.0     1.76410774     -1076.1826214577  1.95E+00
   208 Broy./Diag. 0.40E+00   24.5     1.68512662     -1074.5026505656  1.68E+00
   209 Broy./Diag. 0.40E+00   25.3     1.76619528     -1075.6280334768 -1.13E+00
   210 Broy./Diag. 0.40E+00   25.2     1.28068368     -1072.4654327521  3.16E+00
   211 Broy./Diag. 0.40E+00   25.0     1.27947156     -1077.9802157931 -5.51E+00
   212 Broy./Diag. 0.40E+00   24.5     1.49811762     -1080.4417566869 -2.46E+00
   213 Broy./Diag. 0.40E+00   24.5     1.55919603     -1079.5239262411  9.18E-01
   214 Broy./Diag. 0.40E+00   24.0     1.48855884     -1072.2498644913  7.27E+00
   215 Broy./Diag. 0.40E+00   23.8     1.29770416     -1077.7704623705 -5.52E+00
   216 Broy./Diag. 0.40E+00   24.0     1.58196411     -1077.6281544355  1.42E-01
   217 Broy./Diag. 0.40E+00   24.1     1.29380250     -1076.9310725346  6.97E-01
   218 Broy./Diag. 0.40E+00   24.5     1.33376226     -1073.5966402487  3.33E+00
   219 Broy./Diag. 0.40E+00   24.9     1.69993330     -1075.1345771419 -1.54E+00
   220 Broy./Diag. 0.40E+00   23.8     1.79612299     -1075.8712857896 -7.37E-01
   221 Broy./Diag. 0.40E+00   24.2     1.53545865     -1077.3548518392 -1.48E+00
   222 Broy./Diag. 0.40E+00   24.5     1.16102654     -1078.4016336177 -1.05E+00
   223 Broy./Diag. 0.40E+00   24.6     1.39196563     -1075.9521084611  2.45E+00
   224 Broy./Diag. 0.40E+00   24.7     1.50998175     -1071.6649154651  4.29E+00
   225 Broy./Diag. 0.40E+00   22.7     1.55925581     -1080.0891333413 -8.42E+00
   226 Broy./Diag. 0.40E+00   23.5     1.59494438     -1077.5037737011  2.59E+00
   227 Broy./Diag. 0.40E+00   23.3     1.47764379     -1077.6617837915 -1.58E-01
   228 Broy./Diag. 0.40E+00   23.0     1.51562510     -1073.6841642912  3.98E+00
   229 Broy./Diag. 0.40E+00   24.8     1.51756708     -1076.3273370388 -2.64E+00
   230 Broy./Diag. 0.40E+00   24.5     1.40681883     -1079.5398063549 -3.21E+00
   231 Broy./Diag. 0.40E+00   24.3     1.34369701     -1074.3264602265  5.21E+00
   232 Broy./Diag. 0.40E+00   24.3     1.23634201     -1078.5915671164 -4.27E+00
   233 Broy./Diag. 0.40E+00   25.4     1.47990650     -1075.7809448814  2.81E+00
   234 Broy./Diag. 0.40E+00   23.7     1.48758213     -1075.2731700867  5.08E-01
   235 Broy./Diag. 0.40E+00   25.1     1.55480280     -1075.4308897584 -1.58E-01
   236 Broy./Diag. 0.40E+00   24.3     1.56799654     -1078.6690911342 -3.24E+00
   237 Broy./Diag. 0.40E+00   24.1     1.65458478     -1077.0260272298  1.64E+00
   238 Broy./Diag. 0.40E+00   24.4     1.27820606     -1074.6201194608  2.41E+00
   239 Broy./Diag. 0.40E+00   24.7     1.30917680     -1072.1863137685  2.43E+00
   240 Broy./Diag. 0.40E+00   24.3     1.15008126     -1078.2394854242 -6.05E+00
   241 Broy./Diag. 0.40E+00   24.4     1.55824164     -1078.3248563226 -8.54E-02
   242 Broy./Diag. 0.40E+00   25.0     1.59299503     -1078.3712598081 -4.64E-02
   243 Broy./Diag. 0.40E+00   24.9     1.50604894     -1074.4650940636  3.91E+00
   244 Broy./Diag. 0.40E+00   24.1     1.60001300     -1074.3674503554  9.76E-02
   245 Broy./Diag. 0.40E+00   23.9     1.29177807     -1073.6566014930  7.11E-01
   246 Broy./Diag. 0.40E+00   24.9     1.48724487     -1075.0565181376 -1.40E+00
   247 Broy./Diag. 0.40E+00   24.5     1.65939219     -1078.4342032886 -3.38E+00
   248 Broy./Diag. 0.40E+00   24.9     1.32969602     -1076.5250783551  1.91E+00
   249 Broy./Diag. 0.40E+00   24.5     1.29370864     -1072.5206012001  4.00E+00
   250 Broy./Diag. 0.40E+00   24.1     1.48394231     -1077.5423245513 -5.02E+00
   251 Broy./Diag. 0.40E+00   24.4     1.44067768     -1077.2195593036  3.23E-01
   252 Broy./Diag. 0.40E+00   24.0     1.24279798     -1074.9519176031  2.27E+00
   253 Broy./Diag. 0.40E+00   24.8     1.68994274     -1075.7143236553 -7.62E-01
   254 Broy./Diag. 0.40E+00   25.0     1.77133431     -1074.8400653253  8.74E-01
   255 Broy./Diag. 0.40E+00   24.8     1.30010677     -1074.2957339377  5.44E-01
   256 Broy./Diag. 0.40E+00   24.6     1.45019213     -1075.6671770021 -1.37E+00
   257 Broy./Diag. 0.40E+00   24.7     1.54115002     -1075.1909056032  4.76E-01
   258 Broy./Diag. 0.40E+00   25.0     1.54045722     -1072.5010290512  2.69E+00
   259 Broy./Diag. 0.40E+00   24.5     1.55621611     -1081.6987412572 -9.20E+00
   260 Broy./Diag. 0.40E+00   24.6     1.50534537     -1077.8950788943  3.80E+00
   261 Broy./Diag. 0.40E+00   24.6     1.53004796     -1074.9221621370  2.97E+00
   262 Broy./Diag. 0.40E+00   24.5     1.57677748     -1075.5996466978 -6.77E-01
   263 Broy./Diag. 0.40E+00   24.3     1.70830878     -1077.4299009489 -1.83E+00
   264 Broy./Diag. 0.40E+00   24.8     1.76946098     -1077.2821973231  1.48E-01
   265 Broy./Diag. 0.40E+00   25.2     1.82411630     -1075.6116050384  1.67E+00
   266 Broy./Diag. 0.40E+00   25.0     1.12632586     -1074.2165782003  1.40E+00
   267 Broy./Diag. 0.40E+00   24.9     1.30822267     -1072.3915560265  1.83E+00
   268 Broy./Diag. 0.40E+00   24.8     1.33199745     -1078.1133672230 -5.72E+00
   269 Broy./Diag. 0.40E+00   24.5     1.23977112     -1077.6190322090  4.94E-01
   270 Broy./Diag. 0.40E+00   23.8     1.41678504     -1077.9657757429 -3.47E-01
   271 Broy./Diag. 0.40E+00   24.5     1.52518870     -1072.9841766353  4.98E+00
   272 Broy./Diag. 0.40E+00   24.6     1.40378147     -1080.8499182857 -7.87E+00
   273 Broy./Diag. 0.40E+00   24.7     1.73336140     -1077.8347550312  3.02E+00
   274 Broy./Diag. 0.40E+00   24.8     1.74641099     -1078.0003625995 -1.66E-01
   275 Broy./Diag. 0.40E+00   24.7     1.82917646     -1074.1653608727  3.84E+00
   276 Broy./Diag. 0.40E+00   24.3     1.56368718     -1077.9241341812 -3.76E+00
   277 Broy./Diag. 0.40E+00   24.7     1.78889158     -1070.8492872599  7.07E+00
   278 Broy./Diag. 0.40E+00   24.6     1.70743456     -1079.8976109997 -9.05E+00
   279 Broy./Diag. 0.40E+00   24.8     1.44713823     -1078.3819268268  1.52E+00
   280 Broy./Diag. 0.40E+00   24.2     1.41706581     -1079.4184403311 -1.04E+00
   281 Broy./Diag. 0.40E+00   24.1     1.33031304     -1071.8495519622  7.57E+00
   282 Broy./Diag. 0.40E+00   24.8     1.11830604     -1077.0114032682 -5.16E+00
   283 Broy./Diag. 0.40E+00   24.9     1.28868938     -1076.9894335903  2.20E-02
   284 Broy./Diag. 0.40E+00   23.6     1.28425233     -1075.2356685996  1.75E+00
   285 Broy./Diag. 0.40E+00   24.3     1.33667519     -1072.9013193386  2.33E+00
   286 Broy./Diag. 0.40E+00   24.4     1.53870216     -1076.7245050778 -3.82E+00
   287 Broy./Diag. 0.40E+00   24.4     1.73142837     -1077.9802378897 -1.26E+00
   288 Broy./Diag. 0.40E+00   24.2     1.79968602     -1078.7962803026 -8.16E-01
   289 Broy./Diag. 0.40E+00   25.5     1.54530925     -1075.1567223269  3.64E+00
   290 Broy./Diag. 0.40E+00   24.4     1.30395668     -1077.8108108270 -2.65E+00
   291 Broy./Diag. 0.40E+00   24.7     1.30706569     -1072.0518766934  5.76E+00
   292 Broy./Diag. 0.40E+00   24.8     1.49057981     -1078.3367722257 -6.28E+00
   293 Broy./Diag. 0.40E+00   24.8     1.55391575     -1077.0273691349  1.31E+00
   294 Broy./Diag. 0.40E+00   24.8     1.50419858     -1073.8929448619  3.13E+00
   295 Broy./Diag. 0.40E+00   24.5     1.51238393     -1077.1720230028 -3.28E+00
   296 Broy./Diag. 0.40E+00   24.7     1.55052832     -1078.6852004740 -1.51E+00
   297 Broy./Diag. 0.40E+00   24.5     1.72226441     -1076.2201111668  2.47E+00
   298 Broy./Diag. 0.40E+00   24.5     1.77875340     -1077.7808594987 -1.56E+00
   299 Broy./Diag. 0.40E+00   24.7     1.23932954     -1075.5839853129  2.20E+00
   300 Broy./Diag. 0.40E+00   24.3     1.27980201     -1076.2162427284 -6.32E-01

  Leaving inner SCF loop after reaching   300 steps.


  Electronic density on regular grids:       -511.9999436250        0.0000563750
  Core density on regular grids:              511.9998877469       -0.0001122531
  Total charge density on r-space grids:       -0.0000558780
  Total charge density g-space grids:          -0.0000558780

  Overlap energy of the core charge distribution:               0.00000000000000
  Self energy of the core charge distribution:              -2838.21791979120962
  Core Hamiltonian energy:                                    759.46148094949933
  Hartree energy:                                            1240.86488751538991
  Exchange-correlation energy:                               -238.32469140205873

  Total energy:                                             -1076.21624272837926

 *** WARNING in qs_scf.F:542 :: SCF run NOT converged ***


 ENERGY| Total FORCE_EVAL ( QS ) energy (a.u.):            -1072.915670276894616


 ATOMIC FORCES in [a.u.]

 # Atom   Kind   Element          X              Y              Z
      1      1      O          -0.00597407     0.05203020    -0.05403804
      2      2      H          -0.04048181    -0.05982490     0.01874928
      3      2      H           0.00791383    -0.00305196    -0.07103478
      4      1      O           0.02059555    -0.01616779     0.16590805
      5      2      H          -0.04888186    -0.02702541    -0.00854411
      6      2      H           0.00553123     0.04612642    -0.05504563
      7      1      O           0.11363254    -0.08862184     0.08428610
      8      2      H          -0.04078639     0.05798850    -0.05099568
      9      2      H          -0.06758741     0.01266963     0.10612226
     10      1      O          -0.01516183    -0.07346906     0.04415762
     11      2      H          -0.05307614     0.05246624    -0.02515701
     12      2      H           0.06852443     0.02397268     0.06843170
     13      1      O           0.12737351    -0.04040607    -0.10376636
     14      2      H          -0.09223614    -0.02992078    -0.01208786
     15      2      H          -0.03224713     0.09680006     0.07793060
     16      1      O           0.03062090    -0.02709799     0.13418814
     17      2      H           0.02458398    -0.00237449    -0.05808534
     18      2      H          -0.07589589    -0.03470773     0.04027048
     19      1      O          -0.04366949    -0.10307528     0.09393448
     20      2      H           0.01960664    -0.00211223    -0.03685058
     21      2      H          -0.00786943     0.09837371    -0.01916507
     22      1      O           0.10230499    -0.06203151    -0.08934425
     23      2      H          -0.06102468    -0.05917551    -0.06058380
     24      2      H          -0.00687872     0.02519558     0.03653528
     25      1      O          -0.02755663     0.10358727    -0.04124463
     26      2      H           0.01174221    -0.04020138     0.05932062
     27      2      H          -0.00368312    -0.00951811     0.01728017
     28      1      O           0.03027097    -0.03413352     0.05127498
     29      2      H          -0.02195718     0.04419146     0.05948218
     30      2      H          -0.01332301     0.08487191    -0.04468046
     31      1      O           0.10523160    -0.14047690     0.05354052
     32      2      H          -0.06520586    -0.01286755     0.09320770
     33      2      H          -0.04259920     0.05746937    -0.01865367
     34      1      O           0.04149251     0.00360974    -0.14586768
     35      2      H          -0.06970386     0.03479183    -0.02924284
     36      2      H           0.01418515     0.02927968     0.01985270
     37      1      O          -0.02422394     0.07243929    -0.03283177
     38      2      H           0.07286149    -0.03640301     0.00345463
     39      2      H          -0.06836671    -0.04678742    -0.06498921
     40      1      O           0.09254212     0.13418949    -0.04859259
     41      2      H          -0.02944262    -0.07649521    -0.04479686
     42      2      H          -0.08660782    -0.03262176     0.05489728
     43      1      O           0.03981268    -0.10464336    -0.08002070
     44      2      H          -0.06706492    -0.01687455     0.00787989
     45      2      H           0.04161479     0.07700049     0.07710101
     46      1      O           0.08855372    -0.06770472    -0.05190999
     47      2      H          -0.05091183     0.00068217    -0.04604588
     48      2      H          -0.01980016    -0.05901267     0.01858408
     49      1      O           0.00813665     0.05228012     0.11826763
     50      2      H           0.02964837    -0.06965187    -0.01349370
     51      2      H          -0.03336821     0.06365499    -0.01870654
     52      1      O           0.05117882    -0.12834618    -0.00295556
     53      2      H           0.01110745     0.01367785    -0.09899711
     54      2      H          -0.04904867     0.02880135    -0.01341787
     55      1      O           0.02091713    -0.05905969    -0.03556196
     56      2      H          -0.06563966     0.01739066     0.07791047
     57      2      H           0.06309014     0.03176185     0.01640014
     58      1      O           0.04561471    -0.09687619    -0.12162818
     59      2      H           0.01032141     0.01444865    -0.01195773
     60      2      H          -0.01347093    -0.00104147     0.08560926
     61      1      O          -0.05601709    -0.10354277     0.13507704
     62      2      H          -0.00926551     0.08041961    -0.03034918
     63      2      H           0.06821583     0.00290491    -0.01075589
     64      1      O           0.03878800     0.03098650    -0.04258399
     65      2      H          -0.05899591    -0.00393425    -0.03858767
     66      2      H           0.01929458     0.07774854     0.02967257
     67      1      O          -0.06033038     0.11388403     0.15952120
     68      2      H           0.00628400    -0.09396429     0.02934259
     69      2      H           0.05563931     0.04191636    -0.00004270
     70      1      O          -0.03662743    -0.03576993    -0.01206207
     71      2      H           0.07807470     0.01595707     0.00352841
     72      2      H          -0.05193553     0.08698936     0.00548247
     73      1      O           0.04918088     0.00584162     0.06430620
     74      2      H           0.02159592     0.04621581     0.00062736
     75      2      H          -0.04239250    -0.05761021    -0.03776028
     76      1      O          -0.07895056     0.05475687     0.03534095
     77      2      H           0.04629085    -0.09348213     0.00563005
     78      2      H           0.01869780     0.00461086    -0.02977062
     79      1      O           0.02053644     0.11778567    -0.16856427
     80      2      H          -0.07989001    -0.00744316    -0.02169557
     81      2      H           0.02656513    -0.02863003     0.08647572
     82      1      O           0.07562330    -0.04439030     0.11857481
     83      2      H          -0.05076407     0.06840336     0.02338680
     84      2      H          -0.04611651    -0.07412267    -0.03696690
     85      1      O          -0.02196432    -0.12546565    -0.00659770
     86      2      H          -0.00743191     0.04968816    -0.08115700
     87      2      H           0.04743370     0.03405305     0.05167992
     88      1      O          -0.03871786    -0.07734355     0.03600711
     89      2      H           0.03083953     0.05118172    -0.08067884
     90      2      H           0.02427655     0.07560785     0.08672145
     91      1      O           0.02817024     0.06955855    -0.07467553
     92      2      H           0.01808009    -0.04561243    -0.02100600
     93      2      H          -0.00618821    -0.00789671     0.10317849
     94      1      O          -0.06865631    -0.10889169    -0.06936164
     95      2      H          -0.01308847     0.02394422     0.09889379
     96      2      H           0.09172475     0.05371528     0.02887820
     97      1      O           0.06697848    -0.11015916    -0.04617513
     98      2      H          -0.05647528    -0.01396844    -0.07278367
     99      2      H           0.02532833     0.04811590     0.05416777
    100      1      O          -0.09053929     0.07047523     0.06545746
    101      2      H           0.06413590     0.00150031    -0.08737513
    102      2      H           0.03276913    -0.03472459     0.03345039
    103      1      O           0.02504027    -0.12673534    -0.06374767
    104      2      H           0.00044271     0.00498982     0.08864706
    105      2      H           0.01372498     0.09883054    -0.04701236
    106      1      O           0.10987793    -0.10124028    -0.00363686
    107      2      H          -0.06031786     0.00167999     0.04539390
    108      2      H          -0.04251334     0.07328916    -0.08639054
    109      1      O           0.03876670     0.00830123     0.11781561
    110      2      H          -0.00715448     0.08992785     0.01086180
    111      2      H          -0.06885534    -0.03593206    -0.05703642
    112      1      O           0.03696942    -0.12482455     0.06223025
    113      2      H          -0.00972435     0.07010371     0.07267094
    114      2      H           0.02279781     0.00728949    -0.07476139
    115      1      O          -0.08304289     0.00956496    -0.03432872
    116      2      H           0.02850163    -0.01186338    -0.05429738
    117      2      H           0.05724668     0.07846138     0.05680947
    118      1      O           0.04700232    -0.00124414    -0.03120064
    119      2      H          -0.03330034     0.04542079    -0.06606388
    120      2      H          -0.02499118    -0.01369532     0.09142168
    121      1      O           0.07180422    -0.06915929    -0.07983515
    122      2      H          -0.08527624     0.00820433     0.05876581
    123      2      H           0.03749744     0.09106331     0.00798378
    124      1      O          -0.03826788    -0.01056598    -0.16105453
    125      2      H          -0.04911384    -0.04774663     0.06761972
    126      2      H           0.05958517    -0.01851755     0.03496912
    127      1      O           0.03278134     0.05743981    -0.13896038
    128      2      H          -0.00425808    -0.01662044     0.02685569
    129      2      H          -0.04291905     0.04694574     0.00133299
    130      1      O           0.04124056     0.02244229     0.14350698
    131      2      H          -0.02938026    -0.05237794    -0.04885582
    132      2      H          -0.00945889     0.09534419     0.02874916
    133      1      O           0.03176597    -0.03235744    -0.05672911
    134      2      H           0.02436031     0.08814976     0.01190202
    135      2      H          -0.06090978     0.02287176     0.01965379
    136      1      O          -0.01527224     0.04365718    -0.15176783
    137      2      H           0.01566284     0.11521673     0.11433638
    138      2      H          -0.01739839    -0.10787072     0.06289926
    139      1      O          -0.06018574    -0.02382760     0.06518740
    140      2      H           0.02519413     0.00771653    -0.02094193
    141      2      H          -0.00135328     0.05432664     0.01436353
    142      1      O           0.04260396    -0.00811722    -0.00484036
    143      2      H          -0.08040194     0.00461731    -0.06831356
    144      2      H           0.02133776     0.11076861     0.00477053
    145      1      O          -0.02048923    -0.03865799     0.06326412
    146      2      H           0.03280071    -0.01858345    -0.08762290
    147      2      H          -0.03442857    -0.03132344    -0.03864279
    148      1      O           0.02737325    -0.04949676     0.05979420
    149      2      H           0.01984142     0.09714841     0.02872133
    150      2      H          -0.04215078    -0.04321812     0.06890321
    151      1      O          -0.05643627    -0.02888049     0.01688085
    152      2      H           0.04938269    -0.02157163     0.08003411
    153      2      H           0.03653517     0.03945072    -0.07811153
    154      1      O          -0.04010272    -0.12777982     0.12299365
    155      2      H          -0.03921533     0.00654223    -0.02322316
    156      2      H           0.02438630     0.07641502     0.04967527
    157      1      O           0.01597162    -0.07965703     0.01649494
    158      2      H           0.00653797     0.04392838     0.01105415
    159      2      H          -0.02494298     0.03153963    -0.07674860
    160      1      O          -0.01791008     0.10092061     0.03497383
    161      2      H           0.05474476     0.00864877    -0.10866022
    162      2      H          -0.03124436    -0.05326610    -0.04775053
    163      1      O           0.05510707     0.09716863     0.03538745
    164      2      H           0.02474507     0.01758670     0.06600341
    165      2      H          -0.03818756    -0.06836920    -0.01739318
    166      1      O           0.09526869     0.07927141     0.05576714
    167      2      H          -0.04714379     0.04973254     0.05209455
    168      2      H          -0.00686052    -0.02780304    -0.00438769
    169      1      O           0.05658197    -0.01173118    -0.02328138
    170      2      H          -0.06655120    -0.00443314     0.01713292
    171      2      H           0.00985999     0.09079711     0.02736483
    172      1      O          -0.09981478    -0.11740104     0.05794549
    173      2      H           0.03629644     0.04953374    -0.03740360
    174      2      H           0.02665725     0.00410560     0.11243302
    175      1      O          -0.07397884     0.03515437    -0.03449191
    176      2      H           0.06251692     0.05291334     0.05693598
    177      2      H           0.03437882    -0.04899375     0.00929357
    178      1      O           0.09965677    -0.10061864    -0.19550033
    179      2      H           0.04818408    -0.01412350     0.09158529
    180      2      H          -0.12334343     0.11098073     0.04455244
    181      1      O           0.00535836    -0.03082351     0.05602821
    182      2      H           0.02827878    -0.02202450    -0.09448686
    183      2      H          -0.02087076     0.05307629     0.02566243
    184      1      O           0.00643265     0.03241992     0.04246784
    185      2      H          -0.02721693     0.05036270     0.00081464
    186      2      H           0.01171755    -0.07758855    -0.08020869
    187      1      O           0.06352094    -0.03113687    -0.13999672
    188      2      H          -0.03016943    -0.09484182    -0.00583933
    189      2      H          -0.00238603     0.02220924     0.03806416
    190      1      O           0.08729431     0.09759275    -0.07960885
    191      2      H          -0.03761770    -0.01040656    -0.04331653
    192      2      H          -0.03074847     0.00501630     0.01550188
 SUM OF ATOMIC FORCES           0.10316906     0.38099422     0.46085719     0.60678645

 -------------------------------------------------------------------------------
 -                                                                             -
 -                                DBCSR STATISTICS                             -
 -                                                                             -
 -------------------------------------------------------------------------------
 COUNTER                                    TOTAL       BLAS       SMM       ACC
 flops     5 x     5 x   256           3463667200       0.0%    100.0%      0.0%
 flops     5 x    13 x   256           4177205760       0.0%    100.0%      0.0%
 flops    13 x     5 x   256           4227292160       0.0%    100.0%      0.0%
 flops    13 x    13 x   256           5990333440       0.0%    100.0%      0.0%
 flops inhomo. stacks                           0       0.0%      0.0%      0.0%
 flops total                        17.858499E+09       0.0%    100.0%      0.0%
 flops max/rank                     17.858499E+09       0.0%    100.0%      0.0%
 matmuls inhomo. stacks                         0       0.0%      0.0%      0.0%
 matmuls total                             592368       0.0%    100.0%      0.0%
 number of processed stacks                 42140       0.0%    100.0%      0.0%
 average stack size                                     0.0      14.1       0.0
 marketing flops                   333.927416E+09
 -------------------------------------------------------------------------------
 # multiplications                            301
 max memory usage/rank              30.519300E+09
 # max total images/rank                        1
 # max 3D layers                                1
 # MPI messages exchanged                       0
 MPI messages size (bytes):
  total size                         0.000000E+00
  min size                           0.000000E+00
  max size                           0.000000E+00
  average size                       0.000000E+00
 MPI breakdown and total messages size (bytes):
             size <=      128                   0                        0
       128 < size <=     8192                   0                        0
      8192 < size <=    32768                   0                        0
     32768 < size <=   131072                   0                        0
    131072 < size <=  4194304                   0                        0
   4194304 < size <= 16777216                   0                        0
  16777216 < size                               0                        0
 -------------------------------------------------------------------------------

 MEMORY| Estimated peak process memory [MiB]                               29109

 -------------------------------------------------------------------------------
 -                                                                             -
 -                           R E F E R E N C E S                               -
 -                                                                             -
 -------------------------------------------------------------------------------
 
 CP2K version 7.1, the CP2K developers group (2019).
 CP2K is freely available from https://www.cp2k.org/ .

 Schuett, Ole; Messmer, Peter; Hutter, Juerg; VandeVondele, Joost. 
 Electronic Structure Calculations on Graphics Processing Units, John
 Wiley & Sons, Ltd, 173-190 (2016). 
 GPU-Accelerated Sparse Matrix-Matrix Multiplication for
 Linear Scaling Density Functional Theory.
 https://dx.doi.org/10.1002/9781118670712.ch8

 Borstnik, U; VandeVondele, J; Weber, V; Hutter, J. 
 PARALLEL COMPUTING, 40 (5-6), 47-58 (2014). 
 Sparse matrix multiplication: The distributed block-compressed sparse
 row library.
 https://dx.doi.org/10.1016/j.parco.2014.03.012

 Hutter, J; Iannuzzi, M; Schiffmann, F; VandeVondele, J. 
 WIREs Comput Mol Sci., 4 (1), 15-25 (2014). 
 CP2K: atomistic simulations of condensed matter systems.
 https://dx.doi.org/10.1002/wcms.1159

 Krack, M. 
 THEORETICAL CHEMISTRY ACCOUNTS, 114 (1-3), 145-152 (2005). 
 Pseudopotentials for H to Kr optimized for gradient-corrected
 exchange-correlation functionals.
 https://dx.doi.org/10.1007/s00214-005-0655-y

 VandeVondele, J; Krack, M; Mohamed, F; Parrinello, M; Chassaing, T;
 Hutter, J. COMPUTER PHYSICS COMMUNICATIONS, 167 (2), 103-128 (2005). 
 QUICKSTEP: Fast and accurate density functional calculations using a
 mixed Gaussian and plane waves approach.
 https://dx.doi.org/10.1016/j.cpc.2004.12.014

 Frigo, M; Johnson, SG. 
 PROCEEDINGS OF THE IEEE, 93 (2), 216-231 (2005). 
 The design and implementation of FFTW3.
 https://dx.doi.org/10.1109/JPROC.2004.840301

 Hartwigsen, C; Goedecker, S; Hutter, J. 
 PHYSICAL REVIEW B, 58 (7), 3641-3662 (1998). 
 Relativistic separable dual-space Gaussian pseudopotentials from H to Rn.
 https://dx.doi.org/10.1103/PhysRevB.58.3641

 Lippert, G; Hutter, J; Parrinello, M. 
 MOLECULAR PHYSICS, 92 (3), 477-487 (1997). 
 A hybrid Gaussian and plane wave density functional scheme.
 https://dx.doi.org/10.1080/002689797170220

 Goedecker, S; Teter, M; Hutter, J. 
 PHYSICAL REVIEW B, 54 (3), 1703-1710 (1996). 
 Separable dual-space Gaussian pseudopotentials.
 https://dx.doi.org/10.1103/PhysRevB.54.1703


 -------------------------------------------------------------------------------
 -                                                                             -
 -                                T I M I N G                                  -
 -                                                                             -
 -------------------------------------------------------------------------------
 SUBROUTINE                       CALLS  ASD         SELF TIME        TOTAL TIME
                                MAXIMUM       AVERAGE  MAXIMUM  AVERAGE  MAXIMUM
 CP2K                                 1  1.0    1.056    1.056 7269.018 7269.018
 qs_forces                            1  2.0    0.000    0.000 7257.579 7257.579
 qs_energies                          1  3.0    0.000    0.000 7254.200 7254.200
 scf_env_do_scf                       1  4.0    0.001    0.001 7241.687 7241.687
 scf_env_do_scf_inner_loop          300  5.0    0.051    0.051 7241.686 7241.686
 gspace_mixing                      299  6.0   42.268   42.268 2998.176 2998.176
 broyden_mixing                     299  7.0 2708.721 2708.721 2708.724 2708.724
 qs_scf_new_mos                     300  6.0    0.008    0.008 1983.315 1983.315
 eigensolver                        300  7.0    0.032    0.032 1913.203 1913.203
 cp_fm_syevd                        300  8.0 1274.446 1274.446 1275.611 1275.611
 pw_transfer                       3912  9.9    0.395    0.395 1186.909 1186.909
 rebuild_ks_matrix                  301  7.0    0.001    0.001 1170.529 1170.529
 qs_ks_build_kohn_sham_matrix       301  8.0    0.097    0.097 1170.528 1170.528
 qs_ks_update_qs_env                300  6.0    0.004    0.004 1167.509 1167.509
 fft_wrap_pw1pw2                   3310 10.9    0.053    0.053 1154.804 1154.804
 qs_rho_update_rho                  301  6.0    0.003    0.003 1092.925 1092.925
 calculate_rho_elec                 301  7.0  542.933  542.933 1092.922 1092.922
 fft_wrap_pw1pw2_70                1504 11.2   90.937   90.937 1047.009 1047.009
 cp_fm_cholesky_restore             900  8.0  636.482  636.482  636.482  636.482
 fft3d_s                           3311 12.9  553.386  553.386  553.421  553.421
 density_rs2pw                      301  8.0    0.036    0.036  540.429  540.429
 pw_scatter_s                      1804 13.2  410.610  410.610  410.610  410.610
 pw_poisson_solve                   301  9.0  334.825  334.825  366.886  366.886
 sum_up_and_integrate               301  9.0   17.727   17.727  342.128  342.128
 integrate_v_rspace                 301 10.0   10.583   10.583  324.400  324.400
 potential_pw2rs                    301 11.0    2.564    2.564  287.556  287.556
 qs_vxc_create                      301  9.0    0.008    0.008  166.909  166.909
 xc_vxc_pw_create                   301 10.0   42.478   42.478  166.901  166.901
 -------------------------------------------------------------------------------

 The number of warnings for this run is : 1
 
 -------------------------------------------------------------------------------
  **** **** ******  **  PROGRAM ENDED AT                 2020-05-27 23:40:12.258
 ***** ** ***  *** **   PROGRAM RAN ON                                   gnode44
 **    ****   ******    PROGRAM RAN BY                               mayank.modi
 ***** **    ** ** **   PROGRAM PROCESS ID                                  4371
  **** **  *******  **  PROGRAM STOPPED IN /home/mayank.modi/ab-initio-thermodyn
                                           amics-of-water/mayank/cp2k_energy_cal
                                           culations
