 DBCSR| CPU Multiplication driver                                           XSMM
 DBCSR| Multrec recursion limit                                              512
 DBCSR| Multiplication stack size                                           1000
 DBCSR| Maximum elements for images                                    UNLIMITED
 DBCSR| Multiplicative factor virtual images                                   1
 DBCSR| Use multiplication densification                                       T
 DBCSR| Multiplication size stacks                                             3


  **** **** ******  **  PROGRAM STARTED AT               2020-05-27 23:40:12.311
 ***** ** ***  *** **   PROGRAM STARTED ON                               gnode44
 **    ****   ******    PROGRAM STARTED BY                           mayank.modi
 ***** **    ** ** **   PROGRAM PROCESS ID                                  5877
  **** **  *******  **  PROGRAM STARTED IN /home/mayank.modi/ab-initio-thermodyn
                                           amics-of-water/mayank/cp2k_energy_cal
                                           culations

 CP2K| version string:                                          CP2K version 7.1
 CP2K| source code revision number:                                  git:e635599
 CP2K| cp2kflags: omp libint fftw3 libxc xsmm spglib                            
 CP2K| is freely available from                            https://www.cp2k.org/
 CP2K| Program compiled at                          Mon Dec 23 19:23:12 CET 2019
 CP2K| Program compiled on                                                pc9404
 CP2K| Program compiled for                                Linux-x86-64-gfortran
 CP2K| Data directory path                                        /opt/cp2k/data
 CP2K| Input file name                                 input_training/input16.in

 GLOBAL| Force Environment number                                              1
 GLOBAL| Basis set file name                                           BASIS_SET
 GLOBAL| Potential file name                                      GTH_POTENTIALS
 GLOBAL| MM Potential file name                                     MM_POTENTIAL
 GLOBAL| Coordinate file name                                      __STD_INPUT__
 GLOBAL| Method name                                                        CP2K
 GLOBAL| Project name                                                   H2O_bulk
 GLOBAL| Preferred FFT library                                             FFTW3
 GLOBAL| Preferred diagonalization lib.                                       SL
 GLOBAL| Run type                                                   ENERGY_FORCE
 GLOBAL| All-to-all communication in single precision                          F
 GLOBAL| FFTs using library dependent lengths                                  F
 GLOBAL| Global print level                                                  LOW
 GLOBAL| MPI I/O enabled                                                       T
 GLOBAL| Total number of message passing processes                             1
 GLOBAL| Number of threads for this process                                   36
 GLOBAL| This output is from process                                           0
 GLOBAL| CPU model name                Intel(R) Xeon(R) CPU E5-2640 v4 @ 2.40GHz
 GLOBAL| CPUID                                                              1002
 GLOBAL| Compiled for CPUID                                                    0

 MEMORY| system memory details [Kb]
 MEMORY|                        rank 0           min           max       average
 MEMORY| MemTotal            131893056     131893056     131893056     131893056
 MEMORY| MemFree             119204152     119204152     119204152     119204152
 MEMORY| Buffers               2111328       2111328       2111328       2111328
 MEMORY| Cached                3092452       3092452       3092452       3092452
 MEMORY| Slab                  3309780       3309780       3309780       3309780
 MEMORY| SReclaimable          3099700       3099700       3099700       3099700
 MEMORY| MemLikelyFree       127507632     127507632     127507632     127507632


 GENERATE| WARNING:: No connections detected for Hydrogen - Atom Nr:       137 !
 GENERATE|  Preliminary Number of Bonds generated:                             0
 GENERATE|  Achieved consistency in connectivity generation.

 *******************************************************************************
 *******************************************************************************
 **                                                                           **
 **     #####                         ##              ##                      **
 **    ##   ##            ##          ##              ##                      **
 **   ##     ##                       ##            ######                    **
 **   ##     ##  ##   ##  ##   #####  ##  ##   ####   ##    #####    #####    **
 **   ##     ##  ##   ##  ##  ##      ## ##   ##      ##   ##   ##  ##   ##   **
 **   ##  ## ##  ##   ##  ##  ##      ####     ###    ##   ######   ######    **
 **    ##  ###   ##   ##  ##  ##      ## ##      ##   ##   ##       ##        **
 **     #######   #####   ##   #####  ##  ##  ####    ##    #####   ##        **
 **           ##                                                    ##        **
 **                                                                           **
 **                                                ... make the atoms dance   **
 **                                                                           **
 **            Copyright (C) by CP2K developers group (2000 - 2019)           **
 **                                                                           **
 *******************************************************************************


 TOTAL NUMBERS AND MAXIMUM NUMBERS

  Total number of            - Atomic kinds:                                   2
                             - Atoms:                                        192
                             - Shell sets:                                   384
                             - Shells:                                       704
                             - Primitive Cartesian functions:                960
                             - Cartesian basis functions:                   1536
                             - Spherical basis functions:                   1472

  Maximum angular momentum of- Orbital basis functions:                        2
                             - Local part of the GTH pseudopotential:          2
                             - Non-local part of the GTH pseudopotential:      0


 SCF PARAMETERS         Density guess:                                    ATOMIC
                        --------------------------------------------------------
                        max_scf:                                             300
                        max_scf_history:                                       0
                        max_diis:                                              4
                        --------------------------------------------------------
                        eps_scf:                                        1.00E-07
                        eps_scf_history:                                0.00E+00
                        eps_diis:                                       1.00E-01
                        eps_eigval:                                     1.00E-05
                        --------------------------------------------------------
                        level_shift [a.u.]:                                 0.00
                        --------------------------------------------------------
                        Mixing method:                            BROYDEN_MIXING
                                                charge density mixing in g-space
                        --------------------------------------------------------
                        No outer SCF

 Number of electrons:                                                        512
 Number of occupied orbitals:                                                256
 Number of molecular orbitals:                                               256

 Number of orbital functions:                                               1472
 Number of independent orbital functions:                                   1472

 Extrapolation method: initial_guess


 SCF WAVEFUNCTION OPTIMIZATION

  Step     Update method      Time    Convergence         Total energy    Change
  ------------------------------------------------------------------------------
     1 NoMix/Diag. 0.40E+00   11.0     0.68467885     -1064.2096054630 -1.06E+03
     2 Broy./Diag. 0.40E+00   16.4     1.93276031      -994.3969467925  6.98E+01
     3 Broy./Diag. 0.40E+00   17.2     1.95862936     -1267.6159772736 -2.73E+02
     4 Broy./Diag. 0.40E+00   17.5     1.78563656     -1128.1338596345  1.39E+02
     5 Broy./Diag. 0.40E+00   18.6     1.75208814     -1096.8038785039  3.13E+01
     6 Broy./Diag. 0.40E+00   19.2     1.90113174     -1103.2000801337 -6.40E+00
     7 Broy./Diag. 0.40E+00   20.7     1.78977319     -1100.7096576921  2.49E+00
     8 Broy./Diag. 0.40E+00   21.9     1.93129897     -1083.5526468783  1.72E+01
     9 Broy./Diag. 0.40E+00   23.2     1.59766879     -1076.9980305915  6.55E+00
    10 Broy./Diag. 0.40E+00   25.3     0.52134964     -1070.8114907031  6.19E+00
    11 Broy./Diag. 0.40E+00   23.3     1.45069604     -1071.4903456986 -6.79E-01
    12 Broy./Diag. 0.40E+00   24.4     1.50652952     -1076.8399502230 -5.35E+00
    13 Broy./Diag. 0.40E+00   24.5     1.60777076     -1069.4171786241  7.42E+00
    14 Broy./Diag. 0.40E+00   26.1     1.69183869     -1082.0216498619 -1.26E+01
    15 Broy./Diag. 0.40E+00   24.2     1.81552192     -1077.0858877762  4.94E+00
    16 Broy./Diag. 0.40E+00   23.6     1.67001299     -1084.5910750870 -7.51E+00
    17 Broy./Diag. 0.40E+00   23.3     1.69530575     -1072.0540885341  1.25E+01
    18 Broy./Diag. 0.40E+00   24.8     1.79249618     -1074.7921319915 -2.74E+00
    19 Broy./Diag. 0.40E+00   24.5     1.26305270     -1074.1085625871  6.84E-01
    20 Broy./Diag. 0.40E+00   24.6     1.22462143     -1073.4728896592  6.36E-01
    21 Broy./Diag. 0.40E+00   24.5     1.23146183     -1079.0087574952 -5.54E+00
    22 Broy./Diag. 0.40E+00   25.1     1.58444292     -1076.8417503220  2.17E+00
    23 Broy./Diag. 0.40E+00   23.7     1.70045648     -1075.1359362452  1.71E+00
    24 Broy./Diag. 0.40E+00   24.4     0.96833215     -1076.5245286572 -1.39E+00
    25 Broy./Diag. 0.40E+00   24.5     1.14309678     -1074.9943872602  1.53E+00
    26 Broy./Diag. 0.40E+00   24.4     1.32045538     -1080.0026170204 -5.01E+00
    27 Broy./Diag. 0.40E+00   24.2     1.73865734     -1075.4263806118  4.58E+00
    28 Broy./Diag. 0.40E+00   24.5     1.75715752     -1077.0492618567 -1.62E+00
    29 Broy./Diag. 0.40E+00   24.7     1.15026919     -1075.8683421835  1.18E+00
    30 Broy./Diag. 0.40E+00   24.4     1.31683287     -1073.0129005635  2.86E+00
    31 Broy./Diag. 0.40E+00   24.6     1.41588710     -1079.2283887469 -6.22E+00
    32 Broy./Diag. 0.40E+00   24.7     1.36645411     -1075.1346871805  4.09E+00
    33 Broy./Diag. 0.40E+00   24.7     1.00074933     -1075.2291836709 -9.45E-02
    34 Broy./Diag. 0.40E+00   24.7     1.06747660     -1072.9830134164  2.25E+00
    35 Broy./Diag. 0.40E+00   24.9     1.69106116     -1078.4026552735 -5.42E+00
    36 Broy./Diag. 0.40E+00   25.0     1.75805320     -1079.3838949318 -9.81E-01
    37 Broy./Diag. 0.40E+00   24.7     1.70840418     -1073.4762862572  5.91E+00
    38 Broy./Diag. 0.40E+00   24.7     1.39202320     -1079.7621248004 -6.29E+00
    39 Broy./Diag. 0.40E+00   24.7     1.04462827     -1076.0336551044  3.73E+00
    40 Broy./Diag. 0.40E+00   24.7     1.50534528     -1077.7106114570 -1.68E+00
    41 Broy./Diag. 0.40E+00   25.2     1.59672878     -1080.1691872915 -2.46E+00
    42 Broy./Diag. 0.40E+00   24.4     1.69824017     -1075.0221567076  5.15E+00
    43 Broy./Diag. 0.40E+00   24.7     1.08694167     -1073.4173450825  1.60E+00
    44 Broy./Diag. 0.40E+00   24.6     1.08503071     -1076.9173292434 -3.50E+00
    45 Broy./Diag. 0.40E+00   24.9     1.70964399     -1076.6137361833  3.04E-01
    46 Broy./Diag. 0.40E+00   24.5     1.68173272     -1080.5571802976 -3.94E+00
    47 Broy./Diag. 0.40E+00   24.3     1.77015300     -1080.0106098690  5.47E-01
    48 Broy./Diag. 0.40E+00   24.6     0.88297674     -1074.8098495959  5.20E+00
    49 Broy./Diag. 0.40E+00   24.8     1.03710474     -1073.6158197078  1.19E+00
    50 Broy./Diag. 0.40E+00   24.9     1.14563072     -1078.4300613030 -4.81E+00
    51 Broy./Diag. 0.40E+00   24.7     1.36842926     -1073.5736482549  4.86E+00
    52 Broy./Diag. 0.40E+00   24.6     1.66362857     -1078.4234731546 -4.85E+00
    53 Broy./Diag. 0.40E+00   24.7     1.70779482     -1078.2188373397  2.05E-01
    54 Broy./Diag. 0.40E+00   24.1     1.75166968     -1076.7943731241  1.42E+00
    55 Broy./Diag. 0.40E+00   24.6     1.70176875     -1079.2800737826 -2.49E+00
    56 Broy./Diag. 0.40E+00   24.7     1.80097186     -1074.9370989692  4.34E+00
    57 Broy./Diag. 0.40E+00   24.8     1.01536823     -1072.7245214759  2.21E+00
    58 Broy./Diag. 0.40E+00   24.8     1.23131119     -1077.3537085738 -4.63E+00
    59 Broy./Diag. 0.40E+00   24.7     1.13107031     -1076.7330696292  6.21E-01
    60 Broy./Diag. 0.40E+00   24.7     1.48220600     -1073.9854350941  2.75E+00
    61 Broy./Diag. 0.40E+00   24.7     1.50188790     -1078.1159616016 -4.13E+00
    62 Broy./Diag. 0.40E+00   24.5     1.59228283     -1078.4029137121 -2.87E-01
    63 Broy./Diag. 0.40E+00   24.7     1.72412773     -1075.9398828869  2.46E+00
    64 Broy./Diag. 0.40E+00   24.5     1.75796569     -1076.9158032767 -9.76E-01
    65 Broy./Diag. 0.40E+00   24.5     1.69227843     -1079.7850382701 -2.87E+00
    66 Broy./Diag. 0.40E+00   24.4     1.79720710     -1075.3490309476  4.44E+00
    67 Broy./Diag. 0.40E+00   25.2     1.11945897     -1072.1888788425  3.16E+00
    68 Broy./Diag. 0.40E+00   24.5     1.39425859     -1078.5436898482 -6.35E+00
    69 Broy./Diag. 0.40E+00   24.1     1.00969076     -1076.3590478791  2.18E+00
    70 Broy./Diag. 0.40E+00   24.0     1.28548682     -1074.3896325926  1.97E+00
    71 Broy./Diag. 0.40E+00   25.3     1.47077922     -1077.0804995708 -2.69E+00
    72 Broy./Diag. 0.40E+00   23.7     1.60103106     -1076.4307473863  6.50E-01
    73 Broy./Diag. 0.40E+00   22.7     1.64957722     -1076.3040519279  1.27E-01
    74 Broy./Diag. 0.40E+00   23.0     1.25332155     -1073.5788447075  2.73E+00
    75 Broy./Diag. 0.40E+00   22.9     1.71799627     -1080.8600246783 -7.28E+00
    76 Broy./Diag. 0.40E+00   23.9     1.75412516     -1079.8269730378  1.03E+00
    77 Broy./Diag. 0.40E+00   24.6     1.17076001     -1077.1385115309  2.69E+00
    78 Broy./Diag. 0.40E+00   24.9     1.17891476     -1075.6702691131  1.47E+00
    79 Broy./Diag. 0.40E+00   24.5     1.14068200     -1075.2736337673  3.97E-01
    80 Broy./Diag. 0.40E+00   24.7     1.07994383     -1074.5360406717  7.38E-01
    81 Broy./Diag. 0.40E+00   24.3     1.71845534     -1072.6110272827  1.93E+00
    82 Broy./Diag. 0.40E+00   24.5     1.72853614     -1078.6891713721 -6.08E+00
    83 Broy./Diag. 0.40E+00   24.0     1.15116537     -1077.7520961265  9.37E-01
    84 Broy./Diag. 0.40E+00   23.6     1.39675798     -1078.1039660883 -3.52E-01
    85 Broy./Diag. 0.40E+00   23.6     0.96587866     -1076.6096499706  1.49E+00
    86 Broy./Diag. 0.40E+00   24.1     1.05666045     -1075.5765549071  1.03E+00
    87 Broy./Diag. 0.40E+00   24.9     1.09656870     -1076.1478632051 -5.71E-01
    88 Broy./Diag. 0.40E+00   24.7     1.11197602     -1073.5845412414  2.56E+00
    89 Broy./Diag. 0.40E+00   23.3     1.70475555     -1077.1123844966 -3.53E+00
    90 Broy./Diag. 0.40E+00   21.8     1.71238180     -1079.9113560467 -2.80E+00
    91 Broy./Diag. 0.40E+00   24.0     1.79421627     -1076.0071813733  3.90E+00
    92 Broy./Diag. 0.40E+00   24.1     1.75868014     -1077.3179054350 -1.31E+00
    93 Broy./Diag. 0.40E+00   24.2     1.71149412     -1078.4912379832 -1.17E+00
    94 Broy./Diag. 0.40E+00   23.7     1.35159391     -1071.9109693277  6.58E+00
    95 Broy./Diag. 0.40E+00   24.3     1.28474077     -1076.9422469389 -5.03E+00
    96 Broy./Diag. 0.40E+00   23.1     1.33674527     -1078.0692092624 -1.13E+00
    97 Broy./Diag. 0.40E+00   24.1     1.71714167     -1073.5858299819  4.48E+00
    98 Broy./Diag. 0.40E+00   24.3     1.74163746     -1079.2673823497 -5.68E+00
    99 Broy./Diag. 0.40E+00   23.8     1.48582725     -1077.5248884541  1.74E+00
   100 Broy./Diag. 0.40E+00   23.5     1.17309910     -1075.7411989127  1.78E+00
   101 Broy./Diag. 0.40E+00   23.7     1.62867098     -1076.6179230540 -8.77E-01
   102 Broy./Diag. 0.40E+00   24.4     1.67643539     -1078.0594726167 -1.44E+00
   103 Broy./Diag. 0.40E+00   24.6     1.12967383     -1072.9266497231  5.13E+00
   104 Broy./Diag. 0.40E+00   25.1     1.70561899     -1078.0725917842 -5.15E+00
   105 Broy./Diag. 0.40E+00   24.4     1.72629281     -1077.9279361470  1.45E-01
   106 Broy./Diag. 0.40E+00   24.4     1.68115546     -1075.8702992444  2.06E+00
   107 Broy./Diag. 0.40E+00   24.6     1.72537676     -1076.6402002769 -7.70E-01
   108 Broy./Diag. 0.40E+00   24.6     1.74232867     -1077.3689538450 -7.29E-01
   109 Broy./Diag. 0.40E+00   24.3     1.71695178     -1075.7969434863  1.57E+00
   110 Broy./Diag. 0.40E+00   24.6     1.78116280     -1077.8454950476 -2.05E+00
   111 Broy./Diag. 0.40E+00   24.7     1.19608663     -1075.1657201591  2.68E+00
   112 Broy./Diag. 0.40E+00   24.9     1.14607174     -1074.7143521977  4.51E-01
   113 Broy./Diag. 0.40E+00   24.9     1.13830088     -1072.1475429068  2.57E+00
   114 Broy./Diag. 0.40E+00   24.6     1.69410153     -1079.5111146875 -7.36E+00
   115 Broy./Diag. 0.40E+00   24.7     1.75621122     -1077.1729493046  2.34E+00
   116 Broy./Diag. 0.40E+00   24.7     1.37375970     -1073.9368864033  3.24E+00
   117 Broy./Diag. 0.40E+00   24.5     1.37646896     -1079.7066478097 -5.77E+00
   118 Broy./Diag. 0.40E+00   24.6     1.39405322     -1075.9517594217  3.75E+00
   119 Broy./Diag. 0.40E+00   24.6     1.73575314     -1075.7490360966  2.03E-01
   120 Broy./Diag. 0.40E+00   24.7     1.75095414     -1078.5176357458 -2.77E+00
   121 Broy./Diag. 0.40E+00   24.7     1.72759588     -1075.8000865775  2.72E+00
   122 Broy./Diag. 0.40E+00   24.7     1.67910968     -1080.2948223293 -4.49E+00
   123 Broy./Diag. 0.40E+00   24.6     1.19339246     -1075.9463302065  4.35E+00
   124 Broy./Diag. 0.40E+00   24.7     1.70852381     -1076.5803153881 -6.34E-01
   125 Broy./Diag. 0.40E+00   24.6     1.74948559     -1077.7930984531 -1.21E+00
   126 Broy./Diag. 0.40E+00   24.7     1.43812504     -1073.4421142792  4.35E+00
   127 Broy./Diag. 0.40E+00   24.4     1.16850925     -1078.1729118108 -4.73E+00
   128 Broy./Diag. 0.40E+00   24.9     1.64942000     -1078.0590596460  1.14E-01
   129 Broy./Diag. 0.40E+00   24.8     1.74925810     -1072.7225870637  5.34E+00
   130 Broy./Diag. 0.40E+00   24.4     1.73569357     -1078.6821612354 -5.96E+00
   131 Broy./Diag. 0.40E+00   24.7     1.04480026     -1076.6756657833  2.01E+00
   132 Broy./Diag. 0.40E+00   24.6     1.72656699     -1073.9608282060  2.71E+00
   133 Broy./Diag. 0.40E+00   24.9     1.74262142     -1077.7871552675 -3.83E+00
   134 Broy./Diag. 0.40E+00   24.8     1.72283945     -1075.9153880997  1.87E+00
   135 Broy./Diag. 0.40E+00   24.5     1.77313319     -1076.5504722061 -6.35E-01
   136 Broy./Diag. 0.40E+00   24.9     1.61338000     -1076.4990441226  5.14E-02
   137 Broy./Diag. 0.40E+00   24.7     1.69126732     -1076.3047520716  1.94E-01
   138 Broy./Diag. 0.40E+00   24.8     1.40276951     -1073.2256527694  3.08E+00
   139 Broy./Diag. 0.40E+00   25.1     1.37213524     -1079.2175806984 -5.99E+00
   140 Broy./Diag. 0.40E+00   25.1     1.06994188     -1076.1963033259  3.02E+00
   141 Broy./Diag. 0.40E+00   24.3     1.70630267     -1073.8406096660  2.36E+00
   142 Broy./Diag. 0.40E+00   23.8     1.72541203     -1079.3079211454 -5.47E+00
   143 Broy./Diag. 0.40E+00   24.5     1.04056783     -1076.8954389843  2.41E+00
   144 Broy./Diag. 0.40E+00   24.6     1.71414409     -1076.8541255532  4.13E-02
   145 Broy./Diag. 0.40E+00   25.0     1.78380555     -1075.4849684358  1.37E+00
   146 Broy./Diag. 0.40E+00   24.5     1.16582913     -1074.1322253660  1.35E+00
   147 Broy./Diag. 0.40E+00   24.7     1.13331432     -1075.5775416609 -1.45E+00
   148 Broy./Diag. 0.40E+00   24.8     1.52545717     -1077.5458680460 -1.97E+00
   149 Broy./Diag. 0.40E+00   24.6     1.74932576     -1077.3535246051  1.92E-01
   150 Broy./Diag. 0.40E+00   24.8     1.70905231     -1072.7176760115  4.64E+00
   151 Broy./Diag. 0.40E+00   24.5     1.72344649     -1082.2768276478 -9.56E+00
   152 Broy./Diag. 0.40E+00   24.1     1.40890607     -1076.7179023050  5.56E+00
   153 Broy./Diag. 0.40E+00   25.7     1.15889384     -1074.2277960118  2.49E+00
   154 Broy./Diag. 0.40E+00   24.4     1.71337223     -1078.2037239009 -3.98E+00
   155 Broy./Diag. 0.40E+00   24.4     1.76241659     -1077.7997849131  4.04E-01
   156 Broy./Diag. 0.40E+00   24.5     1.22165391     -1073.9136700591  3.89E+00
   157 Broy./Diag. 0.40E+00   24.7     0.98118865     -1076.8074366267 -2.89E+00
   158 Broy./Diag. 0.40E+00   25.1     1.75119598     -1079.2303742150 -2.42E+00
   159 Broy./Diag. 0.40E+00   24.7     1.73725242     -1078.3912869330  8.39E-01
   160 Broy./Diag. 0.40E+00   24.1     1.13946509     -1075.8689543580  2.52E+00
   161 Broy./Diag. 0.40E+00   24.5     1.25128707     -1074.9826458397  8.86E-01
   162 Broy./Diag. 0.40E+00   24.8     1.07062951     -1075.4622173102 -4.80E-01
   163 Broy./Diag. 0.40E+00   25.5     1.56201823     -1073.1794005799  2.28E+00
   164 Broy./Diag. 0.40E+00   24.4     1.74717714     -1079.2899411066 -6.11E+00
   165 Broy./Diag. 0.40E+00   24.8     1.68448139     -1080.4368367002 -1.15E+00
   166 Broy./Diag. 0.40E+00   24.6     1.46086568     -1075.7918471976  4.64E+00
   167 Broy./Diag. 0.40E+00   24.5     1.68880738     -1074.4341261647  1.36E+00
   168 Broy./Diag. 0.40E+00   24.5     1.74250952     -1075.0595578775 -6.25E-01
   169 Broy./Diag. 0.40E+00   24.9     0.97473946     -1076.5095704757 -1.45E+00
   170 Broy./Diag. 0.40E+00   24.6     1.74512819     -1078.5813247540 -2.07E+00
   171 Broy./Diag. 0.40E+00   24.9     1.75223890     -1079.1623572697 -5.81E-01
   172 Broy./Diag. 0.40E+00   24.5     1.73165633     -1073.9139630007  5.25E+00
   173 Broy./Diag. 0.40E+00   24.9     1.74031127     -1078.6049151198 -4.69E+00
   174 Broy./Diag. 0.40E+00   24.8     1.69738826     -1079.4618274762 -8.57E-01
   175 Broy./Diag. 0.40E+00   24.7     1.70030121     -1073.6964801868  5.77E+00
   176 Broy./Diag. 0.40E+00   24.3     1.73012944     -1081.5106464436 -7.81E+00
   177 Broy./Diag. 0.40E+00   24.6     1.37695633     -1079.0000110298  2.51E+00
   178 Broy./Diag. 0.40E+00   24.7     1.73131463     -1078.7768549433  2.23E-01
   179 Broy./Diag. 0.40E+00   24.3     1.74210106     -1077.9742296627  8.03E-01
   180 Broy./Diag. 0.40E+00   24.9     1.74256251     -1076.7320208116  1.24E+00
   181 Broy./Diag. 0.40E+00   22.5     1.70650895     -1077.6159940875 -8.84E-01
   182 Broy./Diag. 0.40E+00   22.8     1.70869024     -1074.5962766365  3.02E+00
   183 Broy./Diag. 0.40E+00   21.4     1.70084392     -1078.7306826411 -4.13E+00
   184 Broy./Diag. 0.40E+00   22.6     1.70760787     -1073.2506779933  5.48E+00
   185 Broy./Diag. 0.40E+00   23.6     1.74210781     -1082.2849887303 -9.03E+00
   186 Broy./Diag. 0.40E+00   23.6     1.67578531     -1078.3118260045  3.97E+00
   187 Broy./Diag. 0.40E+00   24.0     1.17853286     -1076.2650381229  2.05E+00
   188 Broy./Diag. 0.40E+00   25.1     1.29122938     -1074.5001415949  1.76E+00
   189 Broy./Diag. 0.40E+00   24.6     1.75258451     -1076.0940187729 -1.59E+00
   190 Broy./Diag. 0.40E+00   23.8     1.72861496     -1078.5419749694 -2.45E+00
   191 Broy./Diag. 0.40E+00   23.9     1.07645891     -1075.5082005545  3.03E+00
   192 Broy./Diag. 0.40E+00   23.9     1.71080152     -1073.1022609628  2.41E+00
   193 Broy./Diag. 0.40E+00   24.0     1.75728973     -1079.7824821351 -6.68E+00
   194 Broy./Diag. 0.40E+00   24.9     1.28489820     -1077.7994892795  1.98E+00
   195 Broy./Diag. 0.40E+00   21.7     1.39469393     -1075.6083087945  2.19E+00
   196 Broy./Diag. 0.40E+00   21.9     1.60381625     -1073.5338333670  2.07E+00
   197 Broy./Diag. 0.40E+00   23.7     1.60802244     -1079.6327914703 -6.10E+00
   198 Broy./Diag. 0.40E+00   24.3     1.61548500     -1073.4117040387  6.22E+00
   199 Broy./Diag. 0.40E+00   24.1     1.67770106     -1081.0595999475 -7.65E+00
   200 Broy./Diag. 0.40E+00   25.2     1.22966651     -1077.8821992747  3.18E+00
   201 Broy./Diag. 0.40E+00   24.7     1.25153016     -1075.7140532813  2.17E+00
   202 Broy./Diag. 0.40E+00   24.6     1.71558853     -1074.9420425803  7.72E-01
   203 Broy./Diag. 0.40E+00   24.0     1.74536203     -1077.9267009240 -2.98E+00
   204 Broy./Diag. 0.40E+00   23.8     1.11018632     -1075.3466484724  2.58E+00
   205 Broy./Diag. 0.40E+00   23.5     1.19369338     -1072.9711511026  2.38E+00
   206 Broy./Diag. 0.40E+00   24.3     1.28237893     -1079.7929567321 -6.82E+00
   207 Broy./Diag. 0.40E+00   24.2     1.39971546     -1082.5645887661 -2.77E+00
   208 Broy./Diag. 0.40E+00   23.9     1.22295994     -1076.0952368062  6.47E+00
   209 Broy./Diag. 0.40E+00   24.0     1.27428801     -1075.0730270257  1.02E+00
   210 Broy./Diag. 0.40E+00   22.2     1.33482176     -1076.3941246845 -1.32E+00
   211 Broy./Diag. 0.40E+00   22.8     1.44554758     -1077.8865410415 -1.49E+00
   212 Broy./Diag. 0.40E+00   23.0     1.72745353     -1074.1028962270  3.78E+00
   213 Broy./Diag. 0.40E+00   22.5     1.73957750     -1078.2754895854 -4.17E+00
   214 Broy./Diag. 0.40E+00   23.0     1.25058294     -1077.7939950794  4.81E-01
   215 Broy./Diag. 0.40E+00   23.0     1.73463204     -1073.2869282643  4.51E+00
   216 Broy./Diag. 0.40E+00   21.0     1.74161947     -1081.9662116312 -8.68E+00
   217 Broy./Diag. 0.40E+00   23.7     1.13744920     -1077.3302500537  4.64E+00
   218 Broy./Diag. 0.40E+00   23.9     0.77309923     -1075.5661290597  1.76E+00
   219 Broy./Diag. 0.40E+00   24.2     1.17209549     -1073.1937183050  2.37E+00
   220 Broy./Diag. 0.40E+00   22.3     1.59827604     -1077.0602504448 -3.87E+00
   221 Broy./Diag. 0.40E+00   22.5     1.64593674     -1079.5775435156 -2.52E+00
   222 Broy./Diag. 0.40E+00   22.4     1.71253641     -1075.8148634078  3.76E+00
   223 Broy./Diag. 0.40E+00   22.8     1.79236408     -1079.8870517181 -4.07E+00
   224 Broy./Diag. 0.40E+00   23.5     1.32305859     -1075.4735471881  4.41E+00
   225 Broy./Diag. 0.40E+00   23.2     1.64375163     -1076.1080366094 -6.34E-01
   226 Broy./Diag. 0.40E+00   23.6     1.67973013     -1076.8629564671 -7.55E-01
   227 Broy./Diag. 0.40E+00   24.9     1.12002700     -1079.9554395655 -3.09E+00
   228 Broy./Diag. 0.40E+00   24.0     1.09729032     -1077.0159284939  2.94E+00
   229 Broy./Diag. 0.40E+00   25.0     1.71808881     -1073.5563111992  3.46E+00
   230 Broy./Diag. 0.40E+00   22.1     1.75017725     -1078.6900362240 -5.13E+00
   231 Broy./Diag. 0.40E+00   22.6     1.18405573     -1076.6036138582  2.09E+00
   232 Broy./Diag. 0.40E+00   22.7     1.71100774     -1075.0689162955  1.53E+00
   233 Broy./Diag. 0.40E+00   21.9     1.78080470     -1075.1156070703 -4.67E-02
   234 Broy./Diag. 0.40E+00   21.8     1.13875658     -1073.6330039792  1.48E+00
   235 Broy./Diag. 0.40E+00   23.2     1.12389266     -1076.9057866075 -3.27E+00
   236 Broy./Diag. 0.40E+00   23.8     1.08644063     -1076.6796094447  2.26E-01
   237 Broy./Diag. 0.40E+00   24.2     1.71052331     -1079.9979487658 -3.32E+00
   238 Broy./Diag. 0.40E+00   24.5     1.74108282     -1077.8697182948  2.13E+00
   239 Broy./Diag. 0.40E+00   24.5     1.70705682     -1074.5684715305  3.30E+00
   240 Broy./Diag. 0.40E+00   23.7     1.58928424     -1073.1016134542  1.47E+00
   241 Broy./Diag. 0.40E+00   23.6     1.64363344     -1080.0108939587 -6.91E+00
   242 Broy./Diag. 0.40E+00   24.1     1.07950585     -1076.3081098577  3.70E+00
   243 Broy./Diag. 0.40E+00   23.8     0.96227514     -1073.7551367909  2.55E+00
   244 Broy./Diag. 0.40E+00   23.1     1.02855322     -1078.5148884359 -4.76E+00
   245 Broy./Diag. 0.40E+00   21.3     1.35279317     -1076.3652388301  2.15E+00
   246 Broy./Diag. 0.40E+00   23.3     1.16339141     -1076.0011776082  3.64E-01
   247 Broy./Diag. 0.40E+00   23.7     1.73246585     -1079.6679695258 -3.67E+00
   248 Broy./Diag. 0.40E+00   24.4     1.78981513     -1077.4303744842  2.24E+00
   249 Broy./Diag. 0.40E+00   22.3     1.75326344     -1075.5376558180  1.89E+00
   250 Broy./Diag. 0.40E+00   22.8     1.69770532     -1073.2344157669  2.30E+00
   251 Broy./Diag. 0.40E+00   23.6     1.75026520     -1076.6977303261 -3.46E+00
   252 Broy./Diag. 0.40E+00   23.5     1.47991316     -1073.7125873280  2.99E+00
   253 Broy./Diag. 0.40E+00   23.6     1.71719005     -1079.1797258875 -5.47E+00
   254 Broy./Diag. 0.40E+00   23.5     1.33333668     -1078.7530279049  4.27E-01
   255 Broy./Diag. 0.40E+00   23.9     1.17806761     -1076.0080155264  2.75E+00
   256 Broy./Diag. 0.40E+00   25.2     1.17893759     -1075.7015809561  3.06E-01
   257 Broy./Diag. 0.40E+00   21.6     1.22722921     -1074.6004199508  1.10E+00
   258 Broy./Diag. 0.40E+00   22.6     1.76976982     -1077.1362042646 -2.54E+00
   259 Broy./Diag. 0.40E+00   24.8     1.12998485     -1073.7426256605  3.39E+00
   260 Broy./Diag. 0.40E+00   23.8     1.02133123     -1077.6363638616 -3.89E+00
   261 Broy./Diag. 0.40E+00   22.5     1.70399017     -1074.7455306027  2.89E+00
   262 Broy./Diag. 0.40E+00   23.2     1.79466605     -1079.4107755249 -4.67E+00
   263 Broy./Diag. 0.40E+00   23.0     1.67910216     -1079.1221018373  2.89E-01
   264 Broy./Diag. 0.40E+00   21.0     1.66769688     -1075.8965174397  3.23E+00
   265 Broy./Diag. 0.40E+00   23.3     1.11929505     -1076.3109405137 -4.14E-01
   266 Broy./Diag. 0.40E+00   23.8     1.18191799     -1075.2499926886  1.06E+00
   267 Broy./Diag. 0.40E+00   23.0     1.48572252     -1075.2267940728  2.32E-02
   268 Broy./Diag. 0.40E+00   23.9     1.20526221     -1074.4256878071  8.01E-01
   269 Broy./Diag. 0.40E+00   24.1     1.13276310     -1075.8076619013 -1.38E+00
   270 Broy./Diag. 0.40E+00   24.0     1.38422303     -1076.3097784253 -5.02E-01
   271 Broy./Diag. 0.40E+00   22.7     1.72389164     -1076.0404632412  2.69E-01
   272 Broy./Diag. 0.40E+00   23.6     1.75779576     -1080.5877182780 -4.55E+00
   273 Broy./Diag. 0.40E+00   23.7     1.75073859     -1072.5952554373  7.99E+00
   274 Broy./Diag. 0.40E+00   23.8     1.74737270     -1081.8773894885 -9.28E+00
   275 Broy./Diag. 0.40E+00   23.0     1.40456987     -1078.8500310887  3.03E+00
   276 Broy./Diag. 0.40E+00   24.2     1.20790283     -1077.9233474454  9.27E-01
   277 Broy./Diag. 0.40E+00   24.0     1.55143640     -1076.5328952320  1.39E+00
   278 Broy./Diag. 0.40E+00   22.7     1.60189892     -1074.4071101351  2.13E+00
   279 Broy./Diag. 0.40E+00   23.8     1.66207670     -1077.4060812810 -3.00E+00
   280 Broy./Diag. 0.40E+00   24.0     1.60744625     -1075.9929690610  1.41E+00
   281 Broy./Diag. 0.40E+00   23.8     1.70501550     -1072.6639315555  3.33E+00
   282 Broy./Diag. 0.40E+00   24.2     1.73399702     -1079.0620071256 -6.40E+00
   283 Broy./Diag. 0.40E+00   25.1     1.68121188     -1076.6388448983  2.42E+00
   284 Broy./Diag. 0.40E+00   23.8     1.70209436     -1076.5703299405  6.85E-02
   285 Broy./Diag. 0.40E+00   23.9     1.76602019     -1075.3456629898  1.22E+00
   286 Broy./Diag. 0.40E+00   24.4     1.19288723     -1076.0452553500 -7.00E-01
   287 Broy./Diag. 0.40E+00   23.5     1.32553416     -1075.6512562872  3.94E-01
   288 Broy./Diag. 0.40E+00   24.4     1.15808519     -1074.4292609022  1.22E+00
   289 Broy./Diag. 0.40E+00   24.9     1.22483399     -1075.4195663526 -9.90E-01
   290 Broy./Diag. 0.40E+00   21.8     1.55232108     -1076.3681355893 -9.49E-01
   291 Broy./Diag. 0.40E+00   23.2     1.71638518     -1071.8833591338  4.48E+00
   292 Broy./Diag. 0.40E+00   23.1     1.73621593     -1081.1063290514 -9.22E+00
   293 Broy./Diag. 0.40E+00   21.2     1.77270080     -1078.6259348456  2.48E+00
   294 Broy./Diag. 0.40E+00   22.0     1.17168258     -1074.9346516800  3.69E+00
   295 Broy./Diag. 0.40E+00   23.8     1.27360281     -1076.3823147920 -1.45E+00
   296 Broy./Diag. 0.40E+00   24.1     1.51873644     -1079.3681034719 -2.99E+00
   297 Broy./Diag. 0.40E+00   23.8     1.59090115     -1078.4480743764  9.20E-01
   298 Broy./Diag. 0.40E+00   23.8     1.59730576     -1075.7294176911  2.72E+00
   299 Broy./Diag. 0.40E+00   23.6     1.61297660     -1077.0216464450 -1.29E+00
   300 Broy./Diag. 0.40E+00   23.3     1.70656776     -1076.0030172502  1.02E+00

  Leaving inner SCF loop after reaching   300 steps.


  Electronic density on regular grids:       -512.0009490870       -0.0009490870
  Core density on regular grids:              511.9999086834       -0.0000913166
  Total charge density on r-space grids:       -0.0010404036
  Total charge density g-space grids:          -0.0010404036

  Overlap energy of the core charge distribution:               0.00000000000000
  Self energy of the core charge distribution:              -2838.21791979120962
  Core Hamiltonian energy:                                    760.18991981366582
  Hartree energy:                                            1240.56352328811954
  Exchange-correlation energy:                               -238.53854056076577

  Total energy:                                             -1076.00301725019017

 *** WARNING in qs_scf.F:542 :: SCF run NOT converged ***


 ENERGY| Total FORCE_EVAL ( QS ) energy (a.u.):            -1075.374966262203088


 ATOMIC FORCES in [a.u.]

 # Atom   Kind   Element          X              Y              Z
      1      1      O          -0.06525877     0.11288733    -0.08013032
      2      2      H          -0.00682385    -0.01627822     0.04918969
      3      2      H           0.05884510    -0.02541762    -0.02218511
      4      1      O           0.08825480    -0.07828317    -0.03305551
      5      2      H          -0.05372804     0.04413402     0.00652867
      6      2      H          -0.01354923    -0.05523843    -0.10748525
      7      1      O           0.06488271     0.07477088     0.00077987
      8      2      H          -0.08519725     0.04986204     0.05358840
      9      2      H           0.03748920    -0.01999396     0.10530291
     10      1      O          -0.09210117    -0.03926385    -0.00298911
     11      2      H           0.02448352     0.00693613     0.09846166
     12      2      H           0.03363602     0.04962694    -0.05292112
     13      1      O           0.00220665     0.03092619    -0.00019314
     14      2      H          -0.00499611    -0.06775663    -0.00158088
     15      2      H          -0.00960959     0.09087700     0.03167839
     16      1      O           0.09697851     0.03101571     0.05440994
     17      2      H          -0.06355139    -0.02984936    -0.06997190
     18      2      H          -0.03290976     0.01675753     0.05946571
     19      1      O           0.00944423    -0.05713716     0.02807772
     20      2      H          -0.03701948     0.09436523    -0.09101589
     21      2      H          -0.00550842     0.00598966     0.09986940
     22      1      O           0.06105872     0.02064107    -0.11071270
     23      2      H           0.02316287    -0.02190188     0.03478497
     24      2      H          -0.07248390    -0.03618694    -0.04499135
     25      1      O           0.04490276     0.02002374     0.00413986
     26      2      H          -0.00566574     0.05971003    -0.00323973
     27      2      H          -0.06407705    -0.01172086     0.02534633
     28      1      O           0.06289920     0.09108588     0.11032449
     29      2      H          -0.03255658    -0.08492630    -0.09411251
     30      2      H          -0.07916529     0.02101818     0.01879378
     31      1      O          -0.03350419    -0.13206424    -0.02229205
     32      2      H          -0.02929478     0.06923608     0.08460690
     33      2      H           0.03458909     0.02159313    -0.03447641
     34      1      O           0.04333898    -0.02299904     0.08784103
     35      2      H          -0.01932565     0.05724461    -0.00527790
     36      2      H          -0.04974266    -0.01710549     0.02635002
     37      1      O           0.07495174    -0.10027042    -0.02797822
     38      2      H           0.00930682    -0.02502873     0.07603714
     39      2      H          -0.06715823     0.04410504     0.02667684
     40      1      O          -0.03174570     0.14481728    -0.02711386
     41      2      H           0.04518048    -0.04372509    -0.01173263
     42      2      H          -0.04966081    -0.03607968    -0.01796367
     43      1      O           0.00103651    -0.01821716     0.11760784
     44      2      H          -0.06364229    -0.03825781    -0.02538741
     45      2      H           0.06096362     0.00944751    -0.09580373
     46      1      O           0.04723744     0.04301181    -0.07068461
     47      2      H          -0.05477926    -0.06478238     0.00515237
     48      2      H           0.03266129     0.03333057     0.03205339
     49      1      O          -0.02497470     0.04245187     0.05689181
     50      2      H          -0.04060050    -0.03948806    -0.08851428
     51      2      H           0.07679258     0.00058471    -0.02680919
     52      1      O           0.03394865     0.03923183    -0.19621104
     53      2      H          -0.03040979    -0.05105377     0.04805285
     54      2      H          -0.02211999     0.04290280     0.07753601
     55      1      O           0.05230098     0.01774649    -0.04617032
     56      2      H          -0.08831961    -0.00629298     0.02928889
     57      2      H           0.05774849    -0.04276275     0.07464606
     58      1      O          -0.05648547    -0.11522458     0.08754061
     59      2      H           0.00612209     0.00836883    -0.05352439
     60      2      H           0.01761150     0.08382532    -0.03880509
     61      1      O           0.03497805    -0.03161997    -0.06131245
     62      2      H           0.04227698     0.04481294     0.05413247
     63      2      H          -0.09237773     0.02659938    -0.00311198
     64      1      O           0.03431879    -0.02804941     0.06212542
     65      2      H          -0.05667534     0.04167185     0.02682232
     66      2      H           0.02442379     0.04577384     0.06445768
     67      1      O          -0.03039479     0.09514958     0.01753201
     68      2      H           0.07489178    -0.02341443    -0.04849502
     69      2      H          -0.06548754    -0.03322208    -0.07909108
     70      1      O           0.09383721    -0.05275217    -0.05345461
     71      2      H          -0.02887911     0.04956270     0.04063065
     72      2      H          -0.05281976    -0.02965279    -0.08125852
     73      1      O           0.05054519     0.01558947     0.02879932
     74      2      H          -0.03497891     0.01685127    -0.03439463
     75      2      H          -0.02071892    -0.07925430     0.03576519
     76      1      O          -0.03958519     0.04210146     0.13164136
     77      2      H           0.08719733    -0.03455102    -0.01078470
     78      2      H          -0.02001153    -0.00442580    -0.05066846
     79      1      O           0.01158657     0.02651011     0.06144189
     80      2      H           0.00073159    -0.03129428     0.11257199
     81      2      H          -0.00892921    -0.04978396    -0.10029004
     82      1      O           0.06749292     0.05362806     0.00891299
     83      2      H          -0.05683707     0.04144185     0.04315805
     84      2      H           0.01278667    -0.05453978     0.02182696
     85      1      O          -0.07807536     0.01621666     0.05379584
     86      2      H           0.00726020     0.04415530     0.01608409
     87      2      H           0.06705523    -0.01144249    -0.01175224
     88      1      O           0.01500224     0.01370328    -0.17482241
     89      2      H          -0.05755044    -0.00980613     0.04531959
     90      2      H           0.02111182    -0.04847376     0.04673415
     91      1      O          -0.09555541    -0.06121342     0.04903748
     92      2      H           0.04506236    -0.00401082    -0.03526945
     93      2      H           0.02285821     0.03278785     0.09459293
     94      1      O           0.06176125     0.07638476     0.00996300
     95      2      H          -0.08144329     0.01426898    -0.02249089
     96      2      H           0.03320866     0.04464612    -0.10808518
     97      1      O          -0.02758908     0.01864175    -0.04468541
     98      2      H           0.06925303    -0.01198473     0.02956578
     99      2      H          -0.05496360    -0.05827542    -0.02321385
    100      1      O           0.05945015    -0.08843668     0.11045478
    101      2      H           0.01833743     0.07192212    -0.10538738
    102      2      H          -0.07159311    -0.00299157    -0.00903109
    103      1      O           0.07708872    -0.10151734    -0.07587409
    104      2      H           0.02440125    -0.02084225     0.04907918
    105      2      H          -0.08781867     0.03008634    -0.03085910
    106      1      O          -0.07480107     0.09927571    -0.10525842
    107      2      H           0.06401668    -0.00242451    -0.04121467
    108      2      H          -0.00201238    -0.03139115     0.09738723
    109      1      O           0.05696153     0.03522483    -0.12374350
    110      2      H          -0.02755860     0.02698006     0.07417537
    111      2      H          -0.04525660    -0.02646501     0.01746599
    112      1      O          -0.05689148    -0.10846561    -0.08243144
    113      2      H          -0.02405173     0.01802660     0.04283279
    114      2      H           0.05129397     0.08746911    -0.02006075
    115      1      O          -0.01038432     0.01697905    -0.04262482
    116      2      H          -0.00953752     0.05469286    -0.07685228
    117      2      H           0.02891469    -0.02650726    -0.03560802
    118      1      O           0.06305026    -0.06980150     0.01333658
    119      2      H          -0.02659076    -0.03066435     0.04269584
    120      2      H          -0.02851361     0.05235038    -0.06336369
    121      1      O          -0.10445803    -0.07868904     0.06868825
    122      2      H           0.03614957    -0.06227869    -0.04432801
    123      2      H           0.02260661     0.05665684    -0.01524944
    124      1      O          -0.00944614     0.04013087    -0.13702599
    125      2      H          -0.04271265    -0.02383474     0.00465780
    126      2      H           0.06194356    -0.05941745     0.03443385
    127      1      O           0.08923614    -0.02504015     0.04644145
    128      2      H          -0.06395067     0.07306807     0.03006708
    129      2      H          -0.02297123     0.00183624    -0.06693863
    130      1      O           0.05233668     0.13818394     0.07838667
    131      2      H          -0.01268402    -0.06564734     0.05246169
    132      2      H          -0.01390210    -0.00990236    -0.03464749
    133      1      O          -0.05031537    -0.09706666     0.02861570
    134      2      H           0.06293996    -0.00326307    -0.02035571
    135      2      H          -0.01101853     0.03030592     0.03468690
    136      1      O           0.05410199    -0.00309727    -0.08007819
    137      2      H           0.00597649     0.00362521     0.02074889
    138      2      H          -0.03693577    -0.01162802    -0.00506996
    139      1      O          -0.07324867     0.00677387    -0.09720696
    140      2      H           0.03322442    -0.06938784     0.02387513
    141      2      H           0.04037696     0.01609690     0.07273319
    142      1      O          -0.02387743     0.05767219    -0.14161838
    143      2      H           0.00790954     0.06651409     0.07146980
    144      2      H           0.00085474    -0.07857947     0.02386725
    145      1      O           0.02806114    -0.00315898     0.05482300
    146      2      H           0.06463806    -0.07419980     0.01532312
    147      2      H          -0.07074502    -0.03343994     0.01992210
    148      1      O          -0.00695236    -0.08046009    -0.16285266
    149      2      H           0.03648826     0.02095850     0.07810565
    150      2      H          -0.04719930    -0.00329337     0.00479629
    151      1      O           0.00379163    -0.11651349    -0.01717372
    152      2      H          -0.00335365     0.04197862     0.07985484
    153      2      H           0.03403325     0.04076060    -0.03516297
    154      1      O          -0.00991470     0.08214314     0.01860119
    155      2      H          -0.00697901    -0.10052378    -0.02117688
    156      2      H          -0.00398521     0.01561706     0.07057773
    157      1      O           0.04175126     0.00817432    -0.00977408
    158      2      H          -0.02344657     0.05966284    -0.03684629
    159      2      H          -0.01414293    -0.02900212    -0.08848545
    160      1      O           0.04619377     0.01151089    -0.13433464
    161      2      H           0.01335736     0.07551260    -0.00273670
    162      2      H          -0.05392520    -0.06108970     0.06318074
    163      1      O           0.09170883    -0.06152990    -0.06390375
    164      2      H           0.00646619     0.04587490     0.03884324
    165      2      H          -0.05218500    -0.04610899    -0.02755617
    166      1      O           0.03584950    -0.07255159     0.08209430
    167      2      H           0.00766284     0.09410940     0.03560492
    168      2      H          -0.06442069    -0.03722093     0.06862646
    169      1      O          -0.02291920    -0.03030717    -0.01789053
    170      2      H          -0.02603394     0.01324420    -0.12591133
    171      2      H           0.05013033    -0.01062795    -0.01020876
    172      1      O           0.09329889     0.02146932     0.00072549
    173      2      H          -0.02603327    -0.01444420    -0.07202455
    174      2      H          -0.03442393     0.05603665     0.01368634
    175      1      O          -0.05101429     0.14450232     0.11531905
    176      2      H          -0.04909492    -0.08788420     0.00828299
    177      2      H           0.07323794    -0.05430202     0.04644016
    178      1      O          -0.07585875     0.01817810    -0.08567535
    179      2      H           0.03841657    -0.03877033    -0.09746800
    180      2      H           0.05698533     0.00160586     0.06459623
    181      1      O          -0.00462755    -0.02494338    -0.08333305
    182      2      H          -0.04791764     0.07632929     0.04586793
    183      2      H           0.02666984     0.00376876    -0.01980001
    184      1      O           0.03410430    -0.01486730     0.02216704
    185      2      H           0.03946999     0.07247310    -0.02099360
    186      2      H          -0.02752309    -0.00012166     0.11031183
    187      1      O           0.01149840     0.04495124     0.12015886
    188      2      H           0.06945671    -0.02419648    -0.00370586
    189      2      H          -0.06341064    -0.03986649     0.00619555
    190      1      O           0.04864643    -0.02489928     0.06596239
    191      2      H          -0.03369850    -0.01301107    -0.08284044
    192      2      H          -0.02655356     0.02097025     0.08721488
 SUM OF ATOMIC FORCES          -0.12296441     0.04297889    -0.07941461     0.15255855

 -------------------------------------------------------------------------------
 -                                                                             -
 -                                DBCSR STATISTICS                             -
 -                                                                             -
 -------------------------------------------------------------------------------
 COUNTER                                    TOTAL       BLAS       SMM       ACC
 flops     5 x     5 x   256           3521459200       0.0%    100.0%      0.0%
 flops    13 x     5 x   256           4117102080       0.0%    100.0%      0.0%
 flops     5 x    13 x   256           4317447680       0.0%    100.0%      0.0%
 flops    13 x    13 x   256           6354962432       0.0%    100.0%      0.0%
 flops inhomo. stacks                           0       0.0%      0.0%      0.0%
 flops total                        18.310971E+09       0.0%    100.0%      0.0%
 flops max/rank                     18.310971E+09       0.0%    100.0%      0.0%
 matmuls inhomo. stacks                         0       0.0%      0.0%      0.0%
 matmuls total                             602000       0.0%    100.0%      0.0%
 number of processed stacks                 42140       0.0%    100.0%      0.0%
 average stack size                                     0.0      14.3       0.0
 marketing flops                   333.927416E+09
 -------------------------------------------------------------------------------
 # multiplications                            301
 max memory usage/rank              30.525399E+09
 # max total images/rank                        1
 # max 3D layers                                1
 # MPI messages exchanged                       0
 MPI messages size (bytes):
  total size                         0.000000E+00
  min size                           0.000000E+00
  max size                           0.000000E+00
  average size                       0.000000E+00
 MPI breakdown and total messages size (bytes):
             size <=      128                   0                        0
       128 < size <=     8192                   0                        0
      8192 < size <=    32768                   0                        0
     32768 < size <=   131072                   0                        0
    131072 < size <=  4194304                   0                        0
   4194304 < size <= 16777216                   0                        0
  16777216 < size                               0                        0
 -------------------------------------------------------------------------------

 MEMORY| Estimated peak process memory [MiB]                               29106

 -------------------------------------------------------------------------------
 -                                                                             -
 -                           R E F E R E N C E S                               -
 -                                                                             -
 -------------------------------------------------------------------------------
 
 CP2K version 7.1, the CP2K developers group (2019).
 CP2K is freely available from https://www.cp2k.org/ .

 Schuett, Ole; Messmer, Peter; Hutter, Juerg; VandeVondele, Joost. 
 Electronic Structure Calculations on Graphics Processing Units, John
 Wiley & Sons, Ltd, 173-190 (2016). 
 GPU-Accelerated Sparse Matrix-Matrix Multiplication for
 Linear Scaling Density Functional Theory.
 https://dx.doi.org/10.1002/9781118670712.ch8

 Borstnik, U; VandeVondele, J; Weber, V; Hutter, J. 
 PARALLEL COMPUTING, 40 (5-6), 47-58 (2014). 
 Sparse matrix multiplication: The distributed block-compressed sparse
 row library.
 https://dx.doi.org/10.1016/j.parco.2014.03.012

 Hutter, J; Iannuzzi, M; Schiffmann, F; VandeVondele, J. 
 WIREs Comput Mol Sci., 4 (1), 15-25 (2014). 
 CP2K: atomistic simulations of condensed matter systems.
 https://dx.doi.org/10.1002/wcms.1159

 Krack, M. 
 THEORETICAL CHEMISTRY ACCOUNTS, 114 (1-3), 145-152 (2005). 
 Pseudopotentials for H to Kr optimized for gradient-corrected
 exchange-correlation functionals.
 https://dx.doi.org/10.1007/s00214-005-0655-y

 VandeVondele, J; Krack, M; Mohamed, F; Parrinello, M; Chassaing, T;
 Hutter, J. COMPUTER PHYSICS COMMUNICATIONS, 167 (2), 103-128 (2005). 
 QUICKSTEP: Fast and accurate density functional calculations using a
 mixed Gaussian and plane waves approach.
 https://dx.doi.org/10.1016/j.cpc.2004.12.014

 Frigo, M; Johnson, SG. 
 PROCEEDINGS OF THE IEEE, 93 (2), 216-231 (2005). 
 The design and implementation of FFTW3.
 https://dx.doi.org/10.1109/JPROC.2004.840301

 Hartwigsen, C; Goedecker, S; Hutter, J. 
 PHYSICAL REVIEW B, 58 (7), 3641-3662 (1998). 
 Relativistic separable dual-space Gaussian pseudopotentials from H to Rn.
 https://dx.doi.org/10.1103/PhysRevB.58.3641

 Lippert, G; Hutter, J; Parrinello, M. 
 MOLECULAR PHYSICS, 92 (3), 477-487 (1997). 
 A hybrid Gaussian and plane wave density functional scheme.
 https://dx.doi.org/10.1080/002689797170220

 Goedecker, S; Teter, M; Hutter, J. 
 PHYSICAL REVIEW B, 54 (3), 1703-1710 (1996). 
 Separable dual-space Gaussian pseudopotentials.
 https://dx.doi.org/10.1103/PhysRevB.54.1703


 -------------------------------------------------------------------------------
 -                                                                             -
 -                                T I M I N G                                  -
 -                                                                             -
 -------------------------------------------------------------------------------
 SUBROUTINE                       CALLS  ASD         SELF TIME        TOTAL TIME
                                MAXIMUM       AVERAGE  MAXIMUM  AVERAGE  MAXIMUM
 CP2K                                 1  1.0    1.038    1.038 7200.456 7200.456
 qs_forces                            1  2.0    0.000    0.000 7189.073 7189.073
 qs_energies                          1  3.0    0.000    0.000 7185.471 7185.471
 scf_env_do_scf                       1  4.0    0.001    0.001 7173.681 7173.681
 scf_env_do_scf_inner_loop          300  5.0    0.051    0.051 7173.680 7173.680
 gspace_mixing                      299  6.0   42.219   42.219 2989.236 2989.236
 broyden_mixing                     299  7.0 2701.388 2701.388 2701.392 2701.392
 qs_scf_new_mos                     300  6.0    0.012    0.012 1967.601 1967.601
 eigensolver                        300  7.0    0.039    0.039 1913.528 1913.528
 cp_fm_syevd                        300  8.0 1271.736 1271.736 1273.024 1273.024
 pw_transfer                       3912  9.9    0.398    0.398 1170.524 1170.524
 rebuild_ks_matrix                  301  7.0    0.001    0.001 1143.771 1143.771
 qs_ks_build_kohn_sham_matrix       301  8.0    0.100    0.100 1143.770 1143.770
 qs_ks_update_qs_env                300  6.0    0.004    0.004 1140.536 1140.536
 fft_wrap_pw1pw2                   3310 10.9    0.055    0.055 1140.228 1140.228
 qs_rho_update_rho                  301  6.0    0.003    0.003 1077.685 1077.685
 calculate_rho_elec                 301  7.0  531.199  531.199 1077.682 1077.682
 fft_wrap_pw1pw2_70                1504 11.2   90.846   90.846 1037.278 1037.278
 cp_fm_cholesky_restore             900  8.0  639.381  639.381  639.381  639.381
 fft3d_s                           3311 12.9  542.609  542.609  542.675  542.675
 density_rs2pw                      301  8.0    0.031    0.031  536.953  536.953
 pw_scatter_s                      1804 13.2  411.162  411.162  411.162  411.162
 pw_poisson_solve                   301  9.0  332.976  332.976  363.301  363.301
 sum_up_and_integrate               301  9.0   17.915   17.915  322.752  322.752
 integrate_v_rspace                 301 10.0    9.499    9.499  304.836  304.836
 potential_pw2rs                    301 11.0    2.566    2.566  279.393  279.393
 qs_vxc_create                      301  9.0    0.006    0.006  165.237  165.237
 xc_vxc_pw_create                   301 10.0   42.517   42.517  165.231  165.231
 -------------------------------------------------------------------------------

 The number of warnings for this run is : 1
 
 -------------------------------------------------------------------------------
  **** **** ******  **  PROGRAM ENDED AT                 2020-05-28 01:40:13.243
 ***** ** ***  *** **   PROGRAM RAN ON                                   gnode44
 **    ****   ******    PROGRAM RAN BY                               mayank.modi
 ***** **    ** ** **   PROGRAM PROCESS ID                                  5877
  **** **  *******  **  PROGRAM STOPPED IN /home/mayank.modi/ab-initio-thermodyn
                                           amics-of-water/mayank/cp2k_energy_cal
                                           culations
