 DBCSR| CPU Multiplication driver                                           XSMM
 DBCSR| Multrec recursion limit                                              512
 DBCSR| Multiplication stack size                                           1000
 DBCSR| Maximum elements for images                                    UNLIMITED
 DBCSR| Multiplicative factor virtual images                                   1
 DBCSR| Use multiplication densification                                       T
 DBCSR| Multiplication size stacks                                             3


  **** **** ******  **  PROGRAM STARTED AT               2020-05-27 13:41:39.922
 ***** ** ***  *** **   PROGRAM STARTED ON                               gnode44
 **    ****   ******    PROGRAM STARTED BY                           mayank.modi
 ***** **    ** ** **   PROGRAM PROCESS ID                                 39026
  **** **  *******  **  PROGRAM STARTED IN /home/mayank.modi/ab-initio-thermodyn
                                           amics-of-water/mayank/cp2k_energy_cal
                                           culations

 CP2K| version string:                                          CP2K version 7.1
 CP2K| source code revision number:                                  git:e635599
 CP2K| cp2kflags: omp libint fftw3 libxc xsmm spglib                            
 CP2K| is freely available from                            https://www.cp2k.org/
 CP2K| Program compiled at                          Mon Dec 23 19:23:12 CET 2019
 CP2K| Program compiled on                                                pc9404
 CP2K| Program compiled for                                Linux-x86-64-gfortran
 CP2K| Data directory path                                        /opt/cp2k/data
 CP2K| Input file name                                 input_training/input11.in

 GLOBAL| Force Environment number                                              1
 GLOBAL| Basis set file name                                           BASIS_SET
 GLOBAL| Potential file name                                      GTH_POTENTIALS
 GLOBAL| MM Potential file name                                     MM_POTENTIAL
 GLOBAL| Coordinate file name                                      __STD_INPUT__
 GLOBAL| Method name                                                        CP2K
 GLOBAL| Project name                                                   H2O_bulk
 GLOBAL| Preferred FFT library                                             FFTW3
 GLOBAL| Preferred diagonalization lib.                                       SL
 GLOBAL| Run type                                                   ENERGY_FORCE
 GLOBAL| All-to-all communication in single precision                          F
 GLOBAL| FFTs using library dependent lengths                                  F
 GLOBAL| Global print level                                                  LOW
 GLOBAL| MPI I/O enabled                                                       T
 GLOBAL| Total number of message passing processes                             1
 GLOBAL| Number of threads for this process                                   36
 GLOBAL| This output is from process                                           0
 GLOBAL| CPU model name                Intel(R) Xeon(R) CPU E5-2640 v4 @ 2.40GHz
 GLOBAL| CPUID                                                              1002
 GLOBAL| Compiled for CPUID                                                    0

 MEMORY| system memory details [Kb]
 MEMORY|                        rank 0           min           max       average
 MEMORY| MemTotal            131893056     131893056     131893056     131893056
 MEMORY| MemFree             119366832     119366832     119366832     119366832
 MEMORY| Buffers               2107424       2107424       2107424       2107424
 MEMORY| Cached                2944136       2944136       2944136       2944136
 MEMORY| Slab                  3304536       3304536       3304536       3304536
 MEMORY| SReclaimable          3097780       3097780       3097780       3097780
 MEMORY| MemLikelyFree       127516172     127516172     127516172     127516172


 GENERATE| WARNING:: No connections detected for Hydrogen - Atom Nr:        77 !
 GENERATE|  Preliminary Number of Bonds generated:                             0
 GENERATE|  Achieved consistency in connectivity generation.

 *******************************************************************************
 *******************************************************************************
 **                                                                           **
 **     #####                         ##              ##                      **
 **    ##   ##            ##          ##              ##                      **
 **   ##     ##                       ##            ######                    **
 **   ##     ##  ##   ##  ##   #####  ##  ##   ####   ##    #####    #####    **
 **   ##     ##  ##   ##  ##  ##      ## ##   ##      ##   ##   ##  ##   ##   **
 **   ##  ## ##  ##   ##  ##  ##      ####     ###    ##   ######   ######    **
 **    ##  ###   ##   ##  ##  ##      ## ##      ##   ##   ##       ##        **
 **     #######   #####   ##   #####  ##  ##  ####    ##    #####   ##        **
 **           ##                                                    ##        **
 **                                                                           **
 **                                                ... make the atoms dance   **
 **                                                                           **
 **            Copyright (C) by CP2K developers group (2000 - 2019)           **
 **                                                                           **
 *******************************************************************************


 TOTAL NUMBERS AND MAXIMUM NUMBERS

  Total number of            - Atomic kinds:                                   2
                             - Atoms:                                        192
                             - Shell sets:                                   384
                             - Shells:                                       704
                             - Primitive Cartesian functions:                960
                             - Cartesian basis functions:                   1536
                             - Spherical basis functions:                   1472

  Maximum angular momentum of- Orbital basis functions:                        2
                             - Local part of the GTH pseudopotential:          2
                             - Non-local part of the GTH pseudopotential:      0


 SCF PARAMETERS         Density guess:                                    ATOMIC
                        --------------------------------------------------------
                        max_scf:                                             300
                        max_scf_history:                                       0
                        max_diis:                                              4
                        --------------------------------------------------------
                        eps_scf:                                        1.00E-07
                        eps_scf_history:                                0.00E+00
                        eps_diis:                                       1.00E-01
                        eps_eigval:                                     1.00E-05
                        --------------------------------------------------------
                        level_shift [a.u.]:                                 0.00
                        --------------------------------------------------------
                        Mixing method:                            BROYDEN_MIXING
                                                charge density mixing in g-space
                        --------------------------------------------------------
                        No outer SCF

 Number of electrons:                                                        512
 Number of occupied orbitals:                                                256
 Number of molecular orbitals:                                               256

 Number of orbital functions:                                               1472
 Number of independent orbital functions:                                   1472

 Extrapolation method: initial_guess


 SCF WAVEFUNCTION OPTIMIZATION

  Step     Update method      Time    Convergence         Total energy    Change
  ------------------------------------------------------------------------------
     1 NoMix/Diag. 0.40E+00   11.2     0.68791714     -1064.3003945826 -1.06E+03
     2 Broy./Diag. 0.40E+00   15.7     1.92809873      -997.1608199622  6.71E+01
     3 Broy./Diag. 0.40E+00   16.4     1.95048708     -1258.9957159254 -2.62E+02
     4 Broy./Diag. 0.40E+00   16.5     1.92323975     -1112.7380690326  1.46E+02
     5 Broy./Diag. 0.40E+00   19.7     2.12076020     -1103.3929775906  9.35E+00
     6 Broy./Diag. 0.40E+00   20.8     1.69881863     -1102.1171955260  1.28E+00
     7 Broy./Diag. 0.40E+00   19.6     1.86042736     -1090.5135885472  1.16E+01
     8 Broy./Diag. 0.40E+00   19.1     1.34765309     -1083.5802951936  6.93E+00
     9 Broy./Diag. 0.40E+00   22.5     1.43983040     -1083.3192201973  2.61E-01
    10 Broy./Diag. 0.40E+00   21.6     1.31624977     -1080.1953218029  3.12E+00
    11 Broy./Diag. 0.40E+00   23.0     1.75150115     -1084.2287643512 -4.03E+00
    12 Broy./Diag. 0.40E+00   23.5     1.82924714     -1082.1852627828  2.04E+00
    13 Broy./Diag. 0.40E+00   24.3     1.35093729     -1066.5881461478  1.56E+01
    14 Broy./Diag. 0.40E+00   24.3     1.34598053     -1079.8468067762 -1.33E+01
    15 Broy./Diag. 0.40E+00   24.6     1.35861942     -1074.0978659361  5.75E+00
    16 Broy./Diag. 0.40E+00   24.3     0.95167149     -1078.1512721126 -4.05E+00
    17 Broy./Diag. 0.40E+00   24.2     0.95565970     -1078.4887456886 -3.37E-01
    18 Broy./Diag. 0.40E+00   24.1     1.29815998     -1078.2758479487  2.13E-01
    19 Broy./Diag. 0.40E+00   24.7     1.35306017     -1078.5318043698 -2.56E-01
    20 Broy./Diag. 0.40E+00   24.4     0.57168157     -1075.4567577943  3.08E+00
    21 Broy./Diag. 0.40E+00   24.6     1.76158738     -1074.3954805976  1.06E+00
    22 Broy./Diag. 0.40E+00   24.3     1.80372399     -1078.0310388672 -3.64E+00
    23 Broy./Diag. 0.40E+00   24.4     1.85711881     -1077.9644037204  6.66E-02
    24 Broy./Diag. 0.40E+00   24.4     1.30747423     -1078.2791615776 -3.15E-01
    25 Broy./Diag. 0.40E+00   24.4     1.55598598     -1075.1700661782  3.11E+00
    26 Broy./Diag. 0.40E+00   24.2     1.49342290     -1077.7167496383 -2.55E+00
    27 Broy./Diag. 0.40E+00   23.9     1.38767369     -1075.4785094978  2.24E+00
    28 Broy./Diag. 0.40E+00   23.9     1.00926345     -1077.7790785404 -2.30E+00
    29 Broy./Diag. 0.40E+00   22.6     0.76868487     -1076.9224868131  8.57E-01
    30 Broy./Diag. 0.40E+00   23.8     1.20579452     -1074.9569874115  1.97E+00
    31 Broy./Diag. 0.40E+00   23.7     1.10106383     -1077.8609811040 -2.90E+00
    32 Broy./Diag. 0.40E+00   24.5     1.66840308     -1075.1771608004  2.68E+00
    33 Broy./Diag. 0.40E+00   24.4     1.68107976     -1078.2800058644 -3.10E+00
    34 Broy./Diag. 0.40E+00   24.5     1.57960325     -1078.5636549578 -2.84E-01
    35 Broy./Diag. 0.40E+00   24.2     1.54579531     -1077.8890005370  6.75E-01
    36 Broy./Diag. 0.40E+00   24.4     1.16435319     -1074.8078357891  3.08E+00
    37 Broy./Diag. 0.40E+00   24.1     1.67047522     -1078.4456594414 -3.64E+00
    38 Broy./Diag. 0.40E+00   24.4     1.68939935     -1078.4470119664 -1.35E-03
    39 Broy./Diag. 0.40E+00   24.4     0.63710116     -1077.0496411722  1.40E+00
    40 Broy./Diag. 0.40E+00   24.2     1.24127877     -1074.8761040545  2.17E+00
    41 Broy./Diag. 0.40E+00   24.3     0.47370175     -1077.5961043546 -2.72E+00
    42 Broy./Diag. 0.40E+00   24.5     1.36247051     -1077.7883573487 -1.92E-01
    43 Broy./Diag. 0.40E+00   24.5     1.23808344     -1074.8904873382  2.90E+00
    44 Broy./Diag. 0.40E+00   24.3     1.26118606     -1078.0241309138 -3.13E+00
    45 Broy./Diag. 0.40E+00   24.7     0.95872647     -1077.8472926790  1.77E-01
    46 Broy./Diag. 0.40E+00   24.3     0.90261274     -1077.0565674139  7.91E-01
    47 Broy./Diag. 0.40E+00   24.3     1.68857540     -1075.5642852528  1.49E+00
    48 Broy./Diag. 0.40E+00   24.5     1.69415569     -1077.8152127930 -2.25E+00
    49 Broy./Diag. 0.40E+00   24.6     1.17127411     -1074.5748457029  3.24E+00
    50 Broy./Diag. 0.40E+00   24.4     0.89277377     -1078.4115983610 -3.84E+00
    51 Broy./Diag. 0.40E+00   24.3     0.72549584     -1076.8804714846  1.53E+00
    52 Broy./Diag. 0.40E+00   24.4     0.63386958     -1075.1394963649  1.74E+00
    53 Broy./Diag. 0.40E+00   24.5     0.62641626     -1076.6086814234 -1.47E+00
    54 Broy./Diag. 0.40E+00   24.7     1.23479225     -1077.8772956913 -1.27E+00
    55 Broy./Diag. 0.40E+00   24.4     1.28158148     -1077.9227070898 -4.54E-02
    56 Broy./Diag. 0.40E+00   24.4     1.46135189     -1075.3151516942  2.61E+00
    57 Broy./Diag. 0.40E+00   24.2     1.68336369     -1077.9162314449 -2.60E+00
    58 Broy./Diag. 0.40E+00   24.3     1.70422508     -1078.2883420808 -3.72E-01
    59 Broy./Diag. 0.40E+00   24.4     0.38953107     -1076.2503416039  2.04E+00
    60 Broy./Diag. 0.40E+00   24.4     1.21873029     -1074.7484390290  1.50E+00
    61 Broy./Diag. 0.40E+00   24.4     1.03746969     -1078.0162406230 -3.27E+00
    62 Broy./Diag. 0.40E+00   24.0     0.90264838     -1076.9646698486  1.05E+00
    63 Broy./Diag. 0.40E+00   24.2     1.09076396     -1074.9027619657  2.06E+00
    64 Broy./Diag. 0.40E+00   24.2     1.01472178     -1077.6188326313 -2.72E+00
    65 Broy./Diag. 0.40E+00   24.7     1.14861796     -1075.5116253200  2.11E+00
    66 Broy./Diag. 0.40E+00   24.7     1.24230449     -1077.7073402726 -2.20E+00
    67 Broy./Diag. 0.40E+00   24.4     1.28349804     -1077.6575077485  4.98E-02
    68 Broy./Diag. 0.40E+00   24.2     0.93627035     -1076.5195427570  1.14E+00
    69 Broy./Diag. 0.40E+00   24.6     0.98866058     -1078.2054893945 -1.69E+00
    70 Broy./Diag. 0.40E+00   24.5     1.39207528     -1075.8087127434  2.40E+00
    71 Broy./Diag. 0.40E+00   24.7     1.66941256     -1078.0212950704 -2.21E+00
    72 Broy./Diag. 0.40E+00   24.4     1.69659534     -1077.7717762006  2.50E-01
    73 Broy./Diag. 0.40E+00   22.4     1.43507357     -1075.5656654297  2.21E+00
    74 Broy./Diag. 0.40E+00   22.9     1.50132597     -1078.3008169654 -2.74E+00
    75 Broy./Diag. 0.40E+00   23.9     0.99185010     -1077.2026604369  1.10E+00
    76 Broy./Diag. 0.40E+00   23.7     0.72462690     -1074.6356012174  2.57E+00
    77 Broy./Diag. 0.40E+00   24.7     0.68551359     -1076.9284103902 -2.29E+00
    78 Broy./Diag. 0.40E+00   23.9     1.24310758     -1075.0726319478  1.86E+00
    79 Broy./Diag. 0.40E+00   24.1     1.23794904     -1077.8828291126 -2.81E+00
    80 Broy./Diag. 0.40E+00   23.7     1.27550060     -1077.6612043053  2.22E-01
    81 Broy./Diag. 0.40E+00   24.6     1.28035940     -1075.3548640001  2.31E+00
    82 Broy./Diag. 0.40E+00   24.3     1.26989822     -1078.3483098457 -2.99E+00
    83 Broy./Diag. 0.40E+00   23.8     0.78220044     -1077.3911098908  9.57E-01
    84 Broy./Diag. 0.40E+00   24.0     1.68534215     -1075.1343433110  2.26E+00
    85 Broy./Diag. 0.40E+00   24.1     1.76670549     -1077.8078713649 -2.67E+00
    86 Broy./Diag. 0.40E+00   24.8     1.34901962     -1077.9438465313 -1.36E-01
    87 Broy./Diag. 0.40E+00   24.5     1.18263216     -1077.8218746252  1.22E-01
    88 Broy./Diag. 0.40E+00   24.5     0.14536468     -1074.5367454954  3.29E+00
    89 Broy./Diag. 0.40E+00   24.7     1.66977215     -1075.3484672323 -8.12E-01
    90 Broy./Diag. 0.40E+00   22.4     1.68503413     -1077.8728944354 -2.52E+00
    91 Broy./Diag. 0.40E+00   25.2     1.26450926     -1075.2653956785  2.61E+00
    92 Broy./Diag. 0.40E+00   24.8     1.27917755     -1078.0476256058 -2.78E+00
    93 Broy./Diag. 0.40E+00   24.5     1.12761392     -1077.7892862886  2.58E-01
    94 Broy./Diag. 0.40E+00   24.3     1.45685187     -1075.4177365895  2.37E+00
    95 Broy./Diag. 0.40E+00   23.8     0.46627439     -1077.9995444988 -2.58E+00
    96 Broy./Diag. 0.40E+00   22.9     1.37051698     -1077.9458133600  5.37E-02
    97 Broy./Diag. 0.40E+00   22.2     0.98867315     -1077.6357634347  3.10E-01
    98 Broy./Diag. 0.40E+00   24.2     1.23357803     -1077.8056308680 -1.70E-01
    99 Broy./Diag. 0.40E+00   24.1     1.35170085     -1074.9117381064  2.89E+00
   100 Broy./Diag. 0.40E+00   24.2     1.34527670     -1078.4125903081 -3.50E+00
   101 Broy./Diag. 0.40E+00   24.5     1.25889309     -1077.7334952380  6.79E-01
   102 Broy./Diag. 0.40E+00   23.6     1.28828473     -1077.4193105179  3.14E-01
   103 Broy./Diag. 0.40E+00   23.9     1.67888629     -1074.3852603099  3.03E+00
   104 Broy./Diag. 0.40E+00   23.9     1.69028610     -1078.5335926433 -4.15E+00
   105 Broy./Diag. 0.40E+00   24.6     1.58098633     -1078.4859986080  4.76E-02
   106 Broy./Diag. 0.40E+00   23.8     1.62206990     -1077.8758687736  6.10E-01
   107 Broy./Diag. 0.40E+00   22.8     0.23302117     -1075.0352151756  2.84E+00
   108 Broy./Diag. 0.40E+00   24.2     0.12820921     -1074.7947353417  2.40E-01
   109 Broy./Diag. 0.40E+00   24.1     0.98321880     -1075.6914412652 -8.97E-01
   110 Broy./Diag. 0.40E+00   23.9     0.91488630     -1078.0212052335 -2.33E+00
   111 Broy./Diag. 0.40E+00   24.2     0.17767941     -1075.8232072088  2.20E+00
   112 Broy./Diag. 0.40E+00   22.6     1.24365268     -1075.4109934216  4.12E-01
   113 Broy./Diag. 0.40E+00   23.6     1.68088242     -1078.1133459752 -2.70E+00
   114 Broy./Diag. 0.40E+00   23.7     1.70107460     -1078.0872243893  2.61E-02
   115 Broy./Diag. 0.40E+00   24.4     0.92993723     -1077.9452944494  1.42E-01
   116 Broy./Diag. 0.40E+00   24.8     0.91441551     -1076.5835764804  1.36E+00
   117 Broy./Diag. 0.40E+00   24.8     1.28166320     -1074.9428879659  1.64E+00
   118 Broy./Diag. 0.40E+00   24.3     1.27821965     -1077.9968390403 -3.05E+00
   119 Broy./Diag. 0.40E+00   24.0     1.36077767     -1075.6296446166  2.37E+00
   120 Broy./Diag. 0.40E+00   24.5     1.34979457     -1078.0614926601 -2.43E+00
   121 Broy./Diag. 0.40E+00   24.8     1.69039673     -1075.0670368649  2.99E+00
   122 Broy./Diag. 0.40E+00   24.7     1.69209254     -1078.1042162605 -3.04E+00
   123 Broy./Diag. 0.40E+00   24.5     1.14394038     -1077.9085823859  1.96E-01
   124 Broy./Diag. 0.40E+00   24.7     1.21236311     -1074.8495528396  3.06E+00
   125 Broy./Diag. 0.40E+00   24.7     0.63788161     -1078.3340537485 -3.48E+00
   126 Broy./Diag. 0.40E+00   24.7     0.57375020     -1076.8285205866  1.51E+00
   127 Broy./Diag. 0.40E+00   24.7     1.67394684     -1075.9268936951  9.02E-01
   128 Broy./Diag. 0.40E+00   21.9     1.68789601     -1077.9369930668 -2.01E+00
   129 Broy./Diag. 0.40E+00   23.7     1.29728272     -1077.8453411650  9.17E-02
   130 Broy./Diag. 0.40E+00   24.3     0.90577506     -1075.5018169709  2.34E+00
   131 Broy./Diag. 0.40E+00   24.6     0.91861679     -1078.0315959106 -2.53E+00
   132 Broy./Diag. 0.40E+00   24.9     0.10951180     -1075.6119270793  2.42E+00
   133 Broy./Diag. 0.40E+00   25.1     0.89937741     -1075.5499517942  6.20E-02
   134 Broy./Diag. 0.40E+00   24.7     1.24183460     -1077.2199244578 -1.67E+00
   135 Broy./Diag. 0.40E+00   25.7     1.26262324     -1078.0373958229 -8.17E-01
   136 Broy./Diag. 0.40E+00   24.6     0.88808871     -1075.3372218414  2.70E+00
   137 Broy./Diag. 0.40E+00   24.6     1.67764906     -1077.7113626653 -2.37E+00
   138 Broy./Diag. 0.40E+00   24.7     1.69894272     -1077.9266309762 -2.15E-01
   139 Broy./Diag. 0.40E+00   22.9     1.12291835     -1075.2992044957  2.63E+00
   140 Broy./Diag. 0.40E+00   24.6     1.45165144     -1077.7232439206 -2.42E+00
   141 Broy./Diag. 0.40E+00   24.4     1.31431660     -1077.6270056999  9.62E-02
   142 Broy./Diag. 0.40E+00   23.9     1.26866133     -1075.6891446207  1.94E+00
   143 Broy./Diag. 0.40E+00   23.7     1.26973331     -1077.9715736610 -2.28E+00
   144 Broy./Diag. 0.40E+00   22.1     1.67929792     -1075.3961243156  2.58E+00
   145 Broy./Diag. 0.40E+00   22.7     1.75392705     -1078.3230832181 -2.93E+00
   146 Broy./Diag. 0.40E+00   24.5     1.77248883     -1075.2399276851  3.08E+00
   147 Broy./Diag. 0.40E+00   25.4     1.79535913     -1079.7051178803 -4.47E+00
   148 Broy./Diag. 0.40E+00   24.6     1.73787177     -1077.7468314198  1.96E+00
   149 Broy./Diag. 0.40E+00   24.6     0.99492663     -1077.3676239272  3.79E-01
   150 Broy./Diag. 0.40E+00   25.8     1.23770213     -1077.2525842994  1.15E-01
   151 Broy./Diag. 0.40E+00   24.7     1.21262475     -1074.7820588966  2.47E+00
   152 Broy./Diag. 0.40E+00   24.4     0.96135168     -1078.2251021696 -3.44E+00
   153 Broy./Diag. 0.40E+00   24.6     1.25850814     -1075.7842218739  2.44E+00
   154 Broy./Diag. 0.40E+00   23.2     1.75560032     -1077.9640540852 -2.18E+00
   155 Broy./Diag. 0.40E+00   24.2     1.68272457     -1077.7714715426  1.93E-01
   156 Broy./Diag. 0.40E+00   25.1     0.14721092     -1076.1233354757  1.65E+00
   157 Broy./Diag. 0.40E+00   24.9     0.48569252     -1076.0361392462  8.72E-02
   158 Broy./Diag. 0.40E+00   24.4     0.76284450     -1077.0813857606 -1.05E+00
   159 Broy./Diag. 0.40E+00   25.6     1.23830772     -1077.8666599287 -7.85E-01
   160 Broy./Diag. 0.40E+00   24.8     1.28039894     -1077.8464041815  2.03E-02
   161 Broy./Diag. 0.40E+00   25.3     1.26729089     -1075.3900599692  2.46E+00
   162 Broy./Diag. 0.40E+00   24.5     1.69442422     -1078.2869928240 -2.90E+00
   163 Broy./Diag. 0.40E+00   24.4     1.69735181     -1078.2317408018  5.53E-02
   164 Broy./Diag. 0.40E+00   24.7     0.34872813     -1075.9997914815  2.23E+00
   165 Broy./Diag. 0.40E+00   24.7     1.04286571     -1074.6300320644  1.37E+00
   166 Broy./Diag. 0.40E+00   25.2     0.97553620     -1077.5995878160 -2.97E+00
   167 Broy./Diag. 0.40E+00   24.1     1.06485947     -1075.3420961855  2.26E+00
   168 Broy./Diag. 0.40E+00   24.0     0.99657214     -1077.4590271883 -2.12E+00
   169 Broy./Diag. 0.40E+00   24.1     1.24243681     -1075.4684892064  1.99E+00
   170 Broy./Diag. 0.40E+00   24.4     1.26150050     -1078.0424174984 -2.57E+00
   171 Broy./Diag. 0.40E+00   25.0     1.58733308     -1077.9851769169  5.72E-02
   172 Broy./Diag. 0.40E+00   24.9     1.69426728     -1078.2286809593 -2.44E-01
   173 Broy./Diag. 0.40E+00   25.1     1.71963996     -1077.7133139476  5.15E-01
   174 Broy./Diag. 0.40E+00   24.5     0.43144063     -1074.8962510921  2.82E+00
   175 Broy./Diag. 0.40E+00   25.0     0.87929273     -1076.6539389824 -1.76E+00
   176 Broy./Diag. 0.40E+00   24.6     0.90430560     -1076.8776508850 -2.24E-01
   177 Broy./Diag. 0.40E+00   24.5     1.12593565     -1075.2360991888  1.64E+00
   178 Broy./Diag. 0.40E+00   24.9     0.97074002     -1077.6948474704 -2.46E+00
   179 Broy./Diag. 0.40E+00   24.7     0.15488708     -1075.8758163925  1.82E+00
   180 Broy./Diag. 0.40E+00   24.8     1.23199908     -1076.0599112039 -1.84E-01
   181 Broy./Diag. 0.40E+00   24.6     1.25954636     -1078.1323857474 -2.07E+00
   182 Broy./Diag. 0.40E+00   23.5     0.89392839     -1075.9480245872  2.18E+00
   183 Broy./Diag. 0.40E+00   24.3     1.43457319     -1078.1895881476 -2.24E+00
   184 Broy./Diag. 0.40E+00   24.8     1.43726183     -1078.1192454629  7.03E-02
   185 Broy./Diag. 0.40E+00   24.4     1.28866087     -1077.7798850865  3.39E-01
   186 Broy./Diag. 0.40E+00   24.8     1.28016409     -1074.7215734125  3.06E+00
   187 Broy./Diag. 0.40E+00   24.8     1.06005159     -1078.6454770795 -3.92E+00
   188 Broy./Diag. 0.40E+00   24.7     1.67247096     -1078.3574268262  2.88E-01
   189 Broy./Diag. 0.40E+00   24.5     1.69986675     -1077.7306101166  6.27E-01
   190 Broy./Diag. 0.40E+00   24.3     1.17726360     -1074.9091494647  2.82E+00
   191 Broy./Diag. 0.40E+00   23.6     1.10301577     -1078.1849136181 -3.28E+00
   192 Broy./Diag. 0.40E+00   23.6     1.08217710     -1077.7107768529  4.74E-01
   193 Broy./Diag. 0.40E+00   23.9     1.25266847     -1075.1727081731  2.54E+00
   194 Broy./Diag. 0.40E+00   24.2     1.32601119     -1077.5529810215 -2.38E+00
   195 Broy./Diag. 0.40E+00   25.5     1.35532489     -1077.4876660220  6.53E-02
   196 Broy./Diag. 0.40E+00   24.6     0.08108354     -1075.5802808745  1.91E+00
   197 Broy./Diag. 0.40E+00   24.6     0.90430072     -1076.1656920649 -5.85E-01
   198 Broy./Diag. 0.40E+00   25.2     1.05108318     -1077.1983188394 -1.03E+00
   199 Broy./Diag. 0.40E+00   24.0     0.67110852     -1078.0112918523 -8.13E-01
   200 Broy./Diag. 0.40E+00   24.8     1.71108977     -1076.4403210195  1.57E+00
   201 Broy./Diag. 0.40E+00   24.5     1.80280240     -1079.1757987313 -2.74E+00
   202 Broy./Diag. 0.40E+00   24.6     1.86546885     -1076.9986418136  2.18E+00
   203 Broy./Diag. 0.40E+00   24.7     1.30621362     -1073.6918286964  3.31E+00
   204 Broy./Diag. 0.40E+00   24.8     1.31400783     -1078.3290472177 -4.64E+00
   205 Broy./Diag. 0.40E+00   25.1     1.27001223     -1078.1315349009  1.98E-01
   206 Broy./Diag. 0.40E+00   24.4     1.67542234     -1075.2808130291  2.85E+00
   207 Broy./Diag. 0.40E+00   24.3     1.70766431     -1077.5551894156 -2.27E+00
   208 Broy./Diag. 0.40E+00   24.0     1.52880789     -1077.4014657184  1.54E-01
   209 Broy./Diag. 0.40E+00   24.3     1.21468436     -1077.5327664972 -1.31E-01
   210 Broy./Diag. 0.40E+00   24.2     0.90312427     -1075.0788130801  2.45E+00
   211 Broy./Diag. 0.40E+00   24.5     0.79383069     -1077.2564248438 -2.18E+00
   212 Broy./Diag. 0.40E+00   23.7     1.40999488     -1075.1261414740  2.13E+00
   213 Broy./Diag. 0.40E+00   22.4     1.47245151     -1078.1889629159 -3.06E+00
   214 Broy./Diag. 0.40E+00   25.9     1.25555315     -1077.8763859264  3.13E-01
   215 Broy./Diag. 0.40E+00   24.9     1.30919365     -1077.8491415123  2.72E-02
   216 Broy./Diag. 0.40E+00   24.8     0.24237602     -1075.5698965584  2.28E+00
   217 Broy./Diag. 0.40E+00   24.8     0.72907959     -1075.8163044371 -2.46E-01
   218 Broy./Diag. 0.40E+00   25.3     1.42085425     -1077.0467114645 -1.23E+00
   219 Broy./Diag. 0.40E+00   24.8     1.69483748     -1077.9259439491 -8.79E-01
   220 Broy./Diag. 0.40E+00   24.4     1.68769763     -1077.8692257132  5.67E-02
   221 Broy./Diag. 0.40E+00   24.4     1.10097585     -1075.1414198360  2.73E+00
   222 Broy./Diag. 0.40E+00   23.8     1.09799080     -1078.5686176369 -3.43E+00
   223 Broy./Diag. 0.40E+00   24.6     1.33781227     -1075.2063754763  3.36E+00
   224 Broy./Diag. 0.40E+00   25.1     1.34716653     -1077.8816850220 -2.68E+00
   225 Broy./Diag. 0.40E+00   24.8     1.25034212     -1077.8223849657  5.93E-02
   226 Broy./Diag. 0.40E+00   24.6     1.27884876     -1077.4575760829  3.65E-01
   227 Broy./Diag. 0.40E+00   24.1     0.60558030     -1075.0051953716  2.45E+00
   228 Broy./Diag. 0.40E+00   23.8     0.61462536     -1076.8663181829 -1.86E+00
   229 Broy./Diag. 0.40E+00   24.3     1.68153745     -1078.1091328009 -1.24E+00
   230 Broy./Diag. 0.40E+00   24.1     1.70215765     -1078.0721110114  3.70E-02
   231 Broy./Diag. 0.40E+00   23.8     0.46573478     -1075.7787982334  2.29E+00
   232 Broy./Diag. 0.40E+00   24.5     1.17306762     -1074.9965304505  7.82E-01
   233 Broy./Diag. 0.40E+00   24.8     0.96513233     -1077.8483543699 -2.85E+00
   234 Broy./Diag. 0.40E+00   25.5     0.52065821     -1076.2855714019  1.56E+00
   235 Broy./Diag. 0.40E+00   24.0     0.29769253     -1075.1064541045  1.18E+00
   236 Broy./Diag. 0.40E+00   24.8     0.15163379     -1075.9939344892 -8.87E-01
   237 Broy./Diag. 0.40E+00   24.2     1.24487016     -1075.9635525016  3.04E-02
   238 Broy./Diag. 0.40E+00   23.5     1.25665532     -1078.0247217568 -2.06E+00
   239 Broy./Diag. 0.40E+00   24.1     0.87410194     -1077.9672603313  5.75E-02
   240 Broy./Diag. 0.40E+00   24.0     1.24046031     -1075.9153881502  2.05E+00
   241 Broy./Diag. 0.40E+00   24.5     1.59912778     -1077.8950232291 -1.98E+00
   242 Broy./Diag. 0.40E+00   24.4     1.60257328     -1077.8012990165  9.37E-02
   243 Broy./Diag. 0.40E+00   24.6     1.33262960     -1074.8760775078  2.93E+00
   244 Broy./Diag. 0.40E+00   23.5     1.35684044     -1078.0123459064 -3.14E+00
   245 Broy./Diag. 0.40E+00   25.9     1.10194903     -1078.1772382714 -1.65E-01
   246 Broy./Diag. 0.40E+00   24.7     1.68045204     -1075.3107625529  2.87E+00
   247 Broy./Diag. 0.40E+00   26.3     1.68420547     -1078.1140777239 -2.80E+00
   248 Broy./Diag. 0.40E+00   24.9     1.28597278     -1078.0833850924  3.07E-02
   249 Broy./Diag. 0.40E+00   24.2     1.21534637     -1077.8497138569  2.34E-01
   250 Broy./Diag. 0.40E+00   24.4     0.41064487     -1074.7928238104  3.06E+00
   251 Broy./Diag. 0.40E+00   23.5     0.93089893     -1075.8552087159 -1.06E+00
   252 Broy./Diag. 0.40E+00   24.2     0.98162436     -1077.8651436690 -2.01E+00
   253 Broy./Diag. 0.40E+00   23.8     0.96956580     -1076.6868408385  1.18E+00
   254 Broy./Diag. 0.40E+00   24.1     1.24439680     -1075.1746441493  1.51E+00
   255 Broy./Diag. 0.40E+00   24.4     1.25810493     -1077.8947931830 -2.72E+00
   256 Broy./Diag. 0.40E+00   24.1     1.67980144     -1076.9765049513  9.18E-01
   257 Broy./Diag. 0.40E+00   24.8     1.70222884     -1078.1739789041 -1.20E+00
   258 Broy./Diag. 0.40E+00   24.4     1.30981533     -1078.1010832119  7.29E-02
   259 Broy./Diag. 0.40E+00   24.1     1.36069063     -1074.8925871811  3.21E+00
   260 Broy./Diag. 0.40E+00   24.1     1.33340652     -1078.1339493532 -3.24E+00
   261 Broy./Diag. 0.40E+00   24.4     1.59701909     -1075.1485374100  2.99E+00
   262 Broy./Diag. 0.40E+00   24.3     1.59363139     -1078.0006019864 -2.85E+00
   263 Broy./Diag. 0.40E+00   24.3     1.05404208     -1075.4313662726  2.57E+00
   264 Broy./Diag. 0.40E+00   24.4     0.74592773     -1078.0416665954 -2.61E+00
   265 Broy./Diag. 0.40E+00   24.4     1.19146514     -1077.8906737867  1.51E-01
   266 Broy./Diag. 0.40E+00   24.2     1.28483582     -1077.8029123240  8.78E-02
   267 Broy./Diag. 0.40E+00   24.7     1.29267973     -1074.8213778447  2.98E+00
   268 Broy./Diag. 0.40E+00   24.1     1.32604323     -1078.2789887571 -3.46E+00
   269 Broy./Diag. 0.40E+00   22.9     1.35544698     -1078.1454090874  1.34E-01
   270 Broy./Diag. 0.40E+00   24.1     1.68068847     -1075.4635183508  2.68E+00
   271 Broy./Diag. 0.40E+00   24.5     1.69142483     -1077.6922126980 -2.23E+00
   272 Broy./Diag. 0.40E+00   24.0     1.26968516     -1076.0707566058  1.62E+00
   273 Broy./Diag. 0.40E+00   24.2     1.28084985     -1078.2975758724 -2.23E+00
   274 Broy./Diag. 0.40E+00   24.2     1.16141035     -1076.4455052251  1.85E+00
   275 Broy./Diag. 0.40E+00   24.7     1.80456207     -1079.3742558855 -2.93E+00
   276 Broy./Diag. 0.40E+00   24.4     1.33948032     -1077.2982008571  2.08E+00
   277 Broy./Diag. 0.40E+00   23.3     1.29148048     -1074.1055721168  3.19E+00
   278 Broy./Diag. 0.40E+00   21.7     0.88003030     -1078.4986502660 -4.39E+00
   279 Broy./Diag. 0.40E+00   23.9     1.45511481     -1076.3284361362  2.17E+00
   280 Broy./Diag. 0.40E+00   24.3     1.69008781     -1077.6702050291 -1.34E+00
   281 Broy./Diag. 0.40E+00   25.1     1.70057481     -1077.8621325521 -1.92E-01
   282 Broy./Diag. 0.40E+00   24.5     1.28772609     -1075.7141120207  2.15E+00
   283 Broy./Diag. 0.40E+00   24.3     1.28352545     -1078.2465966223 -2.53E+00
   284 Broy./Diag. 0.40E+00   23.1     1.70423166     -1075.3855472070  2.86E+00
   285 Broy./Diag. 0.40E+00   24.1     1.21014751     -1077.8619041201 -2.48E+00
   286 Broy./Diag. 0.40E+00   24.4     1.18121984     -1077.7554002844  1.07E-01
   287 Broy./Diag. 0.40E+00   23.8     0.79817525     -1074.9867979348  2.77E+00
   288 Broy./Diag. 0.40E+00   24.0     0.60935199     -1076.6818620941 -1.70E+00
   289 Broy./Diag. 0.40E+00   24.1     1.06169253     -1075.5099736006  1.17E+00
   290 Broy./Diag. 0.40E+00   24.6     1.68671148     -1077.9127448706 -2.40E+00
   291 Broy./Diag. 0.40E+00   24.1     1.70441284     -1077.9320342489 -1.93E-02
   292 Broy./Diag. 0.40E+00   24.5     0.48151975     -1076.2127700584  1.72E+00
   293 Broy./Diag. 0.40E+00   24.7     1.27387173     -1075.5721243944  6.41E-01
   294 Broy./Diag. 0.40E+00   24.7     1.28747367     -1078.1058721932 -2.53E+00
   295 Broy./Diag. 0.40E+00   24.9     1.07960885     -1078.0224484250  8.34E-02
   296 Broy./Diag. 0.40E+00   24.5     0.38574014     -1075.3854495437  2.64E+00
   297 Broy./Diag. 0.40E+00   24.5     0.37271898     -1076.3812546404 -9.96E-01
   298 Broy./Diag. 0.40E+00   24.9     1.35823184     -1075.3484593693  1.03E+00
   299 Broy./Diag. 0.40E+00   24.7     1.48532389     -1077.5162300266 -2.17E+00
   300 Broy./Diag. 0.40E+00   24.7     1.26442948     -1075.6460324079  1.87E+00

  Leaving inner SCF loop after reaching   300 steps.


  Electronic density on regular grids:       -512.0002763501       -0.0002763501
  Core density on regular grids:              512.0000508288        0.0000508288
  Total charge density on r-space grids:       -0.0002255213
  Total charge density g-space grids:          -0.0002255213

  Overlap energy of the core charge distribution:               0.00000000000000
  Self energy of the core charge distribution:              -2838.21791979120962
  Core Hamiltonian energy:                                    760.61743761963760
  Hartree energy:                                            1240.71544101029940
  Exchange-correlation energy:                               -238.76099124661334

  Total energy:                                             -1075.64603240788574

 *** WARNING in qs_scf.F:542 :: SCF run NOT converged ***


 ENERGY| Total FORCE_EVAL ( QS ) energy (a.u.):            -1074.379906350431384


 ATOMIC FORCES in [a.u.]

 # Atom   Kind   Element          X              Y              Z
      1      1      O          -0.06323773    -0.01936199    -0.00574119
      2      2      H           0.02699002    -0.05833448     0.03338917
      3      2      H           0.07913841     0.05733429     0.02879003
      4      1      O           0.06291762    -0.00058853    -0.05917205
      5      2      H           0.01886173    -0.02055463     0.03571620
      6      2      H          -0.07345371     0.01958567    -0.02678694
      7      1      O           0.07686999    -0.07109674    -0.05440351
      8      2      H          -0.05082957    -0.00363668     0.05139719
      9      2      H          -0.02275917     0.08018664    -0.07124338
     10      1      O           0.00938818     0.04910542    -0.12566590
     11      2      H          -0.07403270    -0.02694347     0.03102456
     12      2      H           0.05862483    -0.01798385     0.07982133
     13      1      O          -0.02178406     0.13642074    -0.15238107
     14      2      H           0.05744619    -0.01761917     0.03152901
     15      2      H          -0.06607580    -0.01589165     0.03223846
     16      1      O           0.03576962     0.13778452     0.12210255
     17      2      H           0.02726340    -0.02812417    -0.07901497
     18      2      H          -0.07867782    -0.01598884    -0.00422427
     19      1      O          -0.06242656     0.05222169     0.11757244
     20      2      H          -0.01488542     0.05353523    -0.04149588
     21      2      H           0.05770507    -0.03095163     0.06776404
     22      1      O           0.03523278    -0.10125334     0.11605942
     23      2      H          -0.04453076     0.01289896    -0.01847972
     24      2      H           0.03832244     0.04717955     0.00283151
     25      1      O          -0.04703526    -0.11325558     0.16948951
     26      2      H          -0.02433224     0.04287228    -0.05184184
     27      2      H           0.07299702    -0.00254279     0.00205313
     28      1      O          -0.07069542    -0.04305971    -0.04463574
     29      2      H          -0.00296947     0.04573542    -0.03429994
     30      2      H           0.05844446    -0.03792365     0.02723774
     31      1      O           0.01517727    -0.09749903     0.06193754
     32      2      H           0.07549401     0.01654906    -0.04941146
     33      2      H          -0.07140786     0.03209236     0.07126840
     34      1      O           0.02597231    -0.13443682    -0.07766322
     35      2      H          -0.08051474    -0.02201787    -0.01421235
     36      2      H           0.03351288     0.09533406    -0.05050431
     37      1      O          -0.06123345    -0.01735212     0.03329098
     38      2      H           0.02395274    -0.07360064    -0.03657285
     39      2      H           0.04489829    -0.00856244     0.08641827
     40      1      O          -0.03955215    -0.13148293    -0.01746616
     41      2      H           0.09183228     0.04839694     0.02462099
     42      2      H          -0.02967877     0.06612478     0.09355518
     43      1      O           0.04287857    -0.09233368    -0.04578080
     44      2      H          -0.06750517     0.04288308    -0.03140353
     45      2      H           0.06167849     0.05218503    -0.02717657
     46      1      O           0.07364978     0.00715646     0.02480120
     47      2      H          -0.06429033     0.03519561    -0.07406404
     48      2      H          -0.00130297    -0.07537815     0.02222105
     49      1      O           0.00970047     0.14782437    -0.06645018
     50      2      H           0.06412530    -0.08901513    -0.02344591
     51      2      H          -0.09168175     0.01451475     0.05559182
     52      1      O           0.01399238    -0.11308167    -0.13899900
     53      2      H           0.02552464     0.01269340     0.07695805
     54      2      H          -0.05217737     0.09445631    -0.03709597
     55      1      O          -0.11508165    -0.11402735     0.08261664
     56      2      H           0.04015792     0.03497388    -0.06376483
     57      2      H           0.04183675    -0.01663716     0.09440716
     58      1      O          -0.07575771     0.04862459     0.05073789
     59      2      H           0.07134189     0.07419193    -0.04656798
     60      2      H          -0.00384239    -0.02667235     0.03746664
     61      1      O           0.06155775     0.06881133    -0.06654305
     62      2      H          -0.06180667    -0.03142749    -0.05365122
     63      2      H          -0.00270541    -0.04864665     0.06102227
     64      1      O           0.07743342     0.11989321    -0.12616660
     65      2      H          -0.04650347    -0.01615493     0.10275056
     66      2      H          -0.06330369    -0.07476834    -0.01777694
     67      1      O          -0.04768913     0.14104096    -0.07660017
     68      2      H          -0.04906212    -0.02832563     0.06211283
     69      2      H           0.06486555    -0.01864948    -0.01389569
     70      1      O          -0.01643624    -0.05217958    -0.01432545
     71      2      H           0.06261576     0.08520636    -0.04087481
     72      2      H          -0.07331850     0.00458728     0.01123890
     73      1      O           0.02525088    -0.08507968     0.03617950
     74      2      H          -0.06700035     0.06727779     0.00804570
     75      2      H          -0.00303914    -0.01425314    -0.04632312
     76      1      O           0.02696759    -0.04107397     0.09621655
     77      2      H           0.01173082    -0.03076557    -0.05166305
     78      2      H          -0.01274385     0.00885850    -0.00123683
     79      1      O          -0.06649448    -0.11248069     0.07464534
     80      2      H           0.00146109     0.08054787     0.09309287
     81      2      H           0.06512906    -0.02806123    -0.03354362
     82      1      O          -0.05439247     0.08760044     0.04067667
     83      2      H          -0.02518842    -0.03679657    -0.10402360
     84      2      H           0.07692970    -0.00377575     0.01064262
     85      1      O          -0.10203341    -0.00013044     0.08962915
     86      2      H           0.03977184     0.00827151     0.07937350
     87      2      H           0.01363169    -0.07670678    -0.01865000
     88      1      O           0.01859768     0.00055066     0.09105230
     89      2      H          -0.06739565    -0.06666171    -0.02208648
     90      2      H           0.05357564    -0.04980022     0.04974396
     91      1      O          -0.02136190    -0.07358375    -0.00621821
     92      2      H          -0.04797470     0.03773296     0.00515780
     93      2      H           0.04977616    -0.04865925     0.09024795
     94      1      O          -0.02023413     0.04897476     0.02408046
     95      2      H           0.05856944     0.01211170     0.09803899
     96      2      H          -0.04263746    -0.04295896    -0.02162959
     97      1      O           0.12109386     0.00113893     0.09540260
     98      2      H          -0.04909971     0.06028150    -0.02264208
     99      2      H          -0.04588350    -0.06668379     0.02321306
    100      1      O           0.04740056    -0.01982650     0.12266464
    101      2      H          -0.05392455     0.08582883     0.05255488
    102      2      H           0.01756826    -0.00170305    -0.06462092
    103      1      O           0.01153327    -0.04042466     0.02304029
    104      2      H          -0.05425595     0.05402805    -0.02575088
    105      2      H           0.04243016    -0.00451744     0.03335040
    106      1      O          -0.08398830    -0.05349263     0.14082245
    107      2      H           0.05385454     0.03837067    -0.01729001
    108      2      H          -0.00639968    -0.00175332    -0.11358351
    109      1      O          -0.12503054    -0.03027583     0.00689983
    110      2      H           0.06676615     0.05498065     0.04138584
    111      2      H           0.05692823    -0.07755345    -0.04248417
    112      1      O          -0.05905621    -0.13719676    -0.08497906
    113      2      H          -0.02389812     0.06290595     0.00622752
    114      2      H           0.06999390    -0.01593691    -0.05507116
    115      1      O           0.01335252     0.08357376     0.12358562
    116      2      H          -0.00971174    -0.04172040    -0.02866511
    117      2      H          -0.04202069     0.05389201    -0.07238951
    118      1      O           0.02087300    -0.13805099    -0.14163546
    119      2      H           0.02736159     0.11193887    -0.05541272
    120      2      H          -0.02545098     0.02553594     0.08434817
    121      1      O          -0.05524889    -0.02112802    -0.08425929
    122      2      H          -0.02439887    -0.00304499     0.06097236
    123      2      H           0.08073955    -0.02381381     0.03799745
    124      1      O          -0.03803228     0.13685203    -0.04401776
    125      2      H           0.00496953    -0.03833153    -0.03688519
    126      2      H           0.04324254    -0.04511068     0.10372986
    127      1      O          -0.00725081     0.07696217     0.11604031
    128      2      H           0.02846919    -0.04745112     0.00699515
    129      2      H          -0.02128696     0.03539632    -0.07756132
    130      1      O          -0.00562296    -0.11507048    -0.05558117
    131      2      H          -0.02868128     0.08883447     0.02012175
    132      2      H           0.05425420    -0.04739095    -0.06138568
    133      1      O           0.05681188     0.03947815    -0.00809574
    134      2      H          -0.01156690     0.02479837    -0.03787949
    135      2      H          -0.08325865     0.01914968     0.01570557
    136      1      O          -0.06803061    -0.02930216     0.05999660
    137      2      H           0.01347504     0.01528206     0.05264168
    138      2      H           0.04620839    -0.00613654    -0.06911449
    139      1      O          -0.04316857    -0.05389484    -0.13164597
    140      2      H           0.08519085    -0.03625921     0.03663070
    141      2      H          -0.00620779     0.05612479     0.02531847
    142      1      O           0.00799020    -0.10189875    -0.16097781
    143      2      H          -0.06251299     0.01532783     0.08904182
    144      2      H           0.02610120     0.04517196     0.02581605
    145      1      O           0.06679028     0.09829623     0.05157503
    146      2      H           0.01654739    -0.02300510     0.06290495
    147      2      H          -0.05224182    -0.01806175    -0.04810502
    148      1      O          -0.05079756     0.05571838    -0.08103502
    149      2      H           0.05569763    -0.02499970    -0.06513973
    150      2      H          -0.00832903    -0.04559237     0.07541606
    151      1      O           0.00302339     0.02626510    -0.07766583
    152      2      H          -0.02251183     0.01406241     0.10399782
    153      2      H          -0.02751228    -0.06009584    -0.03651167
    154      1      O           0.09599279     0.11340053    -0.14275003
    155      2      H          -0.01224935     0.04452384     0.20461754
    156      2      H          -0.05539550    -0.10626659    -0.07867345
    157      1      O          -0.03882463    -0.08331299    -0.04539579
    158      2      H           0.03385976     0.01168622     0.04752408
    159      2      H          -0.00467760     0.09631153    -0.03439303
    160      1      O          -0.00336036    -0.10588771     0.00826447
    161      2      H           0.01728582     0.05362155    -0.05312794
    162      2      H           0.00078867    -0.03939871     0.03466008
    163      1      O           0.06854652     0.08648973    -0.01871560
    164      2      H          -0.04288887     0.00426727     0.04515070
    165      2      H          -0.01172970    -0.10209338    -0.01071301
    166      1      O           0.04587675    -0.10334768     0.06525914
    167      2      H           0.01700343     0.06652293     0.05748157
    168      2      H          -0.08274035     0.00163565     0.01983416
    169      1      O           0.03511544     0.00098840    -0.02935516
    170      2      H          -0.07030335     0.03735321     0.05095343
    171      2      H           0.06616820    -0.04487824     0.02938009
    172      1      O          -0.08133437     0.00083028     0.15170449
    173      2      H          -0.01507413    -0.00940143    -0.08171197
    174      2      H           0.06400322     0.04968558    -0.02794883
    175      1      O          -0.07703151    -0.05631541     0.05287386
    176      2      H          -0.00825123     0.09621153    -0.05270872
    177      2      H           0.07874268    -0.04932060    -0.00390152
    178      1      O           0.07603891    -0.00372421    -0.18478789
    179      2      H           0.03083208    -0.00553050     0.11661641
    180      2      H          -0.10707629     0.01737871    -0.01810496
    181      1      O           0.00365116     0.01581965     0.16743788
    182      2      H          -0.04291750     0.08981325    -0.04871072
    183      2      H           0.06141275    -0.04499001    -0.02570701
    184      1      O           0.00486771    -0.09964022    -0.02171617
    185      2      H           0.05083500     0.06548187    -0.00302103
    186      2      H           0.00172518    -0.03123630     0.05714724
    187      1      O          -0.02594786     0.08967861     0.13141757
    188      2      H           0.06194856     0.01328084    -0.01036598
    189      2      H          -0.02601402    -0.04758172     0.03447658
    190      1      O           0.02612185    -0.02172240     0.02121217
    191      2      H           0.05081705     0.05262878    -0.01951983
    192      2      H          -0.04824285    -0.02097503     0.03351099
 SUM OF ATOMIC FORCES          -0.10265005    -0.24616731     0.91988701     0.95777215

 -------------------------------------------------------------------------------
 -                                                                             -
 -                                DBCSR STATISTICS                             -
 -                                                                             -
 -------------------------------------------------------------------------------
 COUNTER                                    TOTAL       BLAS       SMM       ACC
 flops     5 x     5 x   256           3937561600       0.0%    100.0%      0.0%
 flops     5 x    13 x   256           4768225280       0.0%    100.0%      0.0%
 flops    13 x     5 x   256           4858380800       0.0%    100.0%      0.0%
 flops    13 x    13 x   256           6797726208       0.0%    100.0%      0.0%
 flops inhomo. stacks                           0       0.0%      0.0%      0.0%
 flops total                        20.361894E+09       0.0%    100.0%      0.0%
 flops max/rank                     20.361894E+09       0.0%    100.0%      0.0%
 matmuls inhomo. stacks                         0       0.0%      0.0%      0.0%
 matmuls total                             675444       0.0%    100.0%      0.0%
 number of processed stacks                 42140       0.0%    100.0%      0.0%
 average stack size                                     0.0      16.0       0.0
 marketing flops                   333.927416E+09
 -------------------------------------------------------------------------------
 # multiplications                            301
 max memory usage/rank              30.521905E+09
 # max total images/rank                        1
 # max 3D layers                                1
 # MPI messages exchanged                       0
 MPI messages size (bytes):
  total size                         0.000000E+00
  min size                           0.000000E+00
  max size                           0.000000E+00
  average size                       0.000000E+00
 MPI breakdown and total messages size (bytes):
             size <=      128                   0                        0
       128 < size <=     8192                   0                        0
      8192 < size <=    32768                   0                        0
     32768 < size <=   131072                   0                        0
    131072 < size <=  4194304                   0                        0
   4194304 < size <= 16777216                   0                        0
  16777216 < size                               0                        0
 -------------------------------------------------------------------------------

 MEMORY| Estimated peak process memory [MiB]                               29102

 -------------------------------------------------------------------------------
 -                                                                             -
 -                           R E F E R E N C E S                               -
 -                                                                             -
 -------------------------------------------------------------------------------
 
 CP2K version 7.1, the CP2K developers group (2019).
 CP2K is freely available from https://www.cp2k.org/ .

 Schuett, Ole; Messmer, Peter; Hutter, Juerg; VandeVondele, Joost. 
 Electronic Structure Calculations on Graphics Processing Units, John
 Wiley & Sons, Ltd, 173-190 (2016). 
 GPU-Accelerated Sparse Matrix-Matrix Multiplication for
 Linear Scaling Density Functional Theory.
 https://dx.doi.org/10.1002/9781118670712.ch8

 Borstnik, U; VandeVondele, J; Weber, V; Hutter, J. 
 PARALLEL COMPUTING, 40 (5-6), 47-58 (2014). 
 Sparse matrix multiplication: The distributed block-compressed sparse
 row library.
 https://dx.doi.org/10.1016/j.parco.2014.03.012

 Hutter, J; Iannuzzi, M; Schiffmann, F; VandeVondele, J. 
 WIREs Comput Mol Sci., 4 (1), 15-25 (2014). 
 CP2K: atomistic simulations of condensed matter systems.
 https://dx.doi.org/10.1002/wcms.1159

 Krack, M. 
 THEORETICAL CHEMISTRY ACCOUNTS, 114 (1-3), 145-152 (2005). 
 Pseudopotentials for H to Kr optimized for gradient-corrected
 exchange-correlation functionals.
 https://dx.doi.org/10.1007/s00214-005-0655-y

 VandeVondele, J; Krack, M; Mohamed, F; Parrinello, M; Chassaing, T;
 Hutter, J. COMPUTER PHYSICS COMMUNICATIONS, 167 (2), 103-128 (2005). 
 QUICKSTEP: Fast and accurate density functional calculations using a
 mixed Gaussian and plane waves approach.
 https://dx.doi.org/10.1016/j.cpc.2004.12.014

 Frigo, M; Johnson, SG. 
 PROCEEDINGS OF THE IEEE, 93 (2), 216-231 (2005). 
 The design and implementation of FFTW3.
 https://dx.doi.org/10.1109/JPROC.2004.840301

 Hartwigsen, C; Goedecker, S; Hutter, J. 
 PHYSICAL REVIEW B, 58 (7), 3641-3662 (1998). 
 Relativistic separable dual-space Gaussian pseudopotentials from H to Rn.
 https://dx.doi.org/10.1103/PhysRevB.58.3641

 Lippert, G; Hutter, J; Parrinello, M. 
 MOLECULAR PHYSICS, 92 (3), 477-487 (1997). 
 A hybrid Gaussian and plane wave density functional scheme.
 https://dx.doi.org/10.1080/002689797170220

 Goedecker, S; Teter, M; Hutter, J. 
 PHYSICAL REVIEW B, 54 (3), 1703-1710 (1996). 
 Separable dual-space Gaussian pseudopotentials.
 https://dx.doi.org/10.1103/PhysRevB.54.1703


 -------------------------------------------------------------------------------
 -                                                                             -
 -                                T I M I N G                                  -
 -                                                                             -
 -------------------------------------------------------------------------------
 SUBROUTINE                       CALLS  ASD         SELF TIME        TOTAL TIME
                                MAXIMUM       AVERAGE  MAXIMUM  AVERAGE  MAXIMUM
 CP2K                                 1  1.0    1.160    1.160 7267.634 7267.634
 qs_forces                            1  2.0    0.000    0.000 7255.830 7255.830
 qs_energies                          1  3.0    0.000    0.000 7251.928 7251.928
 scf_env_do_scf                       1  4.0    0.001    0.001 7240.002 7240.002
 scf_env_do_scf_inner_loop          300  5.0    0.051    0.051 7240.001 7240.001
 gspace_mixing                      299  6.0   42.396   42.396 2994.606 2994.606
 broyden_mixing                     299  7.0 2705.330 2705.330 2705.334 2705.334
 qs_scf_new_mos                     300  6.0    0.009    0.009 2003.288 2003.288
 eigensolver                        300  7.0    0.034    0.034 1935.455 1935.455
 cp_fm_syevd                        300  8.0 1280.973 1280.973 1282.149 1282.149
 pw_transfer                       3912  9.9    0.397    0.397 1190.051 1190.051
 rebuild_ks_matrix                  301  7.0    0.001    0.001 1172.834 1172.834
 qs_ks_build_kohn_sham_matrix       301  8.0    0.113    0.113 1172.833 1172.833
 qs_ks_update_qs_env                300  6.0    0.004    0.004 1169.354 1169.354
 fft_wrap_pw1pw2                   3310 10.9    0.062    0.062 1158.234 1158.234
 qs_rho_update_rho                  301  6.0    0.003    0.003 1072.488 1072.488
 calculate_rho_elec                 301  7.0  522.193  522.193 1072.485 1072.485
 fft_wrap_pw1pw2_70                1504 11.2   91.049   91.049 1049.359 1049.359
 cp_fm_cholesky_restore             900  8.0  652.154  652.154  652.154  652.154
 fft3d_s                           3311 12.9  555.957  555.957  555.991  555.991
 density_rs2pw                      301  8.0    0.030    0.030  540.982  540.982
 pw_scatter_s                      1804 13.2  411.517  411.517  411.517  411.517
 pw_poisson_solve                   301  9.0  335.013  335.013  366.804  366.804
 sum_up_and_integrate               301  9.0   17.869   17.869  342.273  342.273
 integrate_v_rspace                 301 10.0   10.751   10.751  324.403  324.403
 potential_pw2rs                    301 11.0    2.561    2.561  289.492  289.492
 qs_vxc_create                      301  9.0    0.008    0.008  167.766  167.766
 xc_vxc_pw_create                   301 10.0   42.519   42.519  167.758  167.758
 -------------------------------------------------------------------------------

 The number of warnings for this run is : 1
 
 -------------------------------------------------------------------------------
  **** **** ******  **  PROGRAM ENDED AT                 2020-05-27 15:42:48.082
 ***** ** ***  *** **   PROGRAM RAN ON                                   gnode44
 **    ****   ******    PROGRAM RAN BY                               mayank.modi
 ***** **    ** ** **   PROGRAM PROCESS ID                                 39026
  **** **  *******  **  PROGRAM STOPPED IN /home/mayank.modi/ab-initio-thermodyn
                                           amics-of-water/mayank/cp2k_energy_cal
                                           culations
