 DBCSR| CPU Multiplication driver                                           XSMM
 DBCSR| Multrec recursion limit                                              512
 DBCSR| Multiplication stack size                                           1000
 DBCSR| Maximum elements for images                                    UNLIMITED
 DBCSR| Multiplicative factor virtual images                                   1
 DBCSR| Use multiplication densification                                       T
 DBCSR| Multiplication size stacks                                             3


  **** **** ******  **  PROGRAM STARTED AT               2020-05-30 13:12:56.390
 ***** ** ***  *** **   PROGRAM STARTED ON                               gnode44
 **    ****   ******    PROGRAM STARTED BY                           mayank.modi
 ***** **    ** ** **   PROGRAM PROCESS ID                                 10933
  **** **  *******  **  PROGRAM STARTED IN /home/mayank.modi/ab-initio-thermodyn
                                           amics-of-water/mayank/cp2k_energy_cal
                                           culations

 CP2K| version string:                                          CP2K version 7.1
 CP2K| source code revision number:                                  git:e635599
 CP2K| cp2kflags: omp libint fftw3 libxc xsmm spglib                            
 CP2K| is freely available from                            https://www.cp2k.org/
 CP2K| Program compiled at                          Mon Dec 23 19:23:12 CET 2019
 CP2K| Program compiled on                                                pc9404
 CP2K| Program compiled for                                Linux-x86-64-gfortran
 CP2K| Data directory path                                        /opt/cp2k/data
 CP2K| Input file name                                 input_training/input47.in

 GLOBAL| Force Environment number                                              1
 GLOBAL| Basis set file name                                           BASIS_SET
 GLOBAL| Potential file name                                      GTH_POTENTIALS
 GLOBAL| MM Potential file name                                     MM_POTENTIAL
 GLOBAL| Coordinate file name                                      __STD_INPUT__
 GLOBAL| Method name                                                        CP2K
 GLOBAL| Project name                                                   H2O_bulk
 GLOBAL| Preferred FFT library                                             FFTW3
 GLOBAL| Preferred diagonalization lib.                                       SL
 GLOBAL| Run type                                                   ENERGY_FORCE
 GLOBAL| All-to-all communication in single precision                          F
 GLOBAL| FFTs using library dependent lengths                                  F
 GLOBAL| Global print level                                                  LOW
 GLOBAL| MPI I/O enabled                                                       T
 GLOBAL| Total number of message passing processes                             1
 GLOBAL| Number of threads for this process                                   36
 GLOBAL| This output is from process                                           0
 GLOBAL| CPU model name                Intel(R) Xeon(R) CPU E5-2640 v4 @ 2.40GHz
 GLOBAL| CPUID                                                              1002
 GLOBAL| Compiled for CPUID                                                    0

 MEMORY| system memory details [Kb]
 MEMORY|                        rank 0           min           max       average
 MEMORY| MemTotal            131893056     131893056     131893056     131893056
 MEMORY| MemFree             118635948     118635948     118635948     118635948
 MEMORY| Buffers               2131388       2131388       2131388       2131388
 MEMORY| Cached                3630004       3630004       3630004       3630004
 MEMORY| Slab                  3320180       3320180       3320180       3320180
 MEMORY| SReclaimable          3107796       3107796       3107796       3107796
 MEMORY| MemLikelyFree       127505136     127505136     127505136     127505136


 GENERATE|  Preliminary Number of Bonds generated:                             0
 GENERATE|  Achieved consistency in connectivity generation.

 *******************************************************************************
 *******************************************************************************
 **                                                                           **
 **     #####                         ##              ##                      **
 **    ##   ##            ##          ##              ##                      **
 **   ##     ##                       ##            ######                    **
 **   ##     ##  ##   ##  ##   #####  ##  ##   ####   ##    #####    #####    **
 **   ##     ##  ##   ##  ##  ##      ## ##   ##      ##   ##   ##  ##   ##   **
 **   ##  ## ##  ##   ##  ##  ##      ####     ###    ##   ######   ######    **
 **    ##  ###   ##   ##  ##  ##      ## ##      ##   ##   ##       ##        **
 **     #######   #####   ##   #####  ##  ##  ####    ##    #####   ##        **
 **           ##                                                    ##        **
 **                                                                           **
 **                                                ... make the atoms dance   **
 **                                                                           **
 **            Copyright (C) by CP2K developers group (2000 - 2019)           **
 **                                                                           **
 *******************************************************************************


 TOTAL NUMBERS AND MAXIMUM NUMBERS

  Total number of            - Atomic kinds:                                   2
                             - Atoms:                                        192
                             - Shell sets:                                   384
                             - Shells:                                       704
                             - Primitive Cartesian functions:                960
                             - Cartesian basis functions:                   1536
                             - Spherical basis functions:                   1472

  Maximum angular momentum of- Orbital basis functions:                        2
                             - Local part of the GTH pseudopotential:          2
                             - Non-local part of the GTH pseudopotential:      0


 SCF PARAMETERS         Density guess:                                    ATOMIC
                        --------------------------------------------------------
                        max_scf:                                             300
                        max_scf_history:                                       0
                        max_diis:                                              4
                        --------------------------------------------------------
                        eps_scf:                                        1.00E-07
                        eps_scf_history:                                0.00E+00
                        eps_diis:                                       1.00E-01
                        eps_eigval:                                     1.00E-05
                        --------------------------------------------------------
                        level_shift [a.u.]:                                 0.00
                        --------------------------------------------------------
                        Mixing method:                            BROYDEN_MIXING
                                                charge density mixing in g-space
                        --------------------------------------------------------
                        No outer SCF

 Number of electrons:                                                        512
 Number of occupied orbitals:                                                256
 Number of molecular orbitals:                                               256

 Number of orbital functions:                                               1472
 Number of independent orbital functions:                                   1472

 Extrapolation method: initial_guess


 SCF WAVEFUNCTION OPTIMIZATION

  Step     Update method      Time    Convergence         Total energy    Change
  ------------------------------------------------------------------------------
     1 NoMix/Diag. 0.40E+00   10.6     0.60748245     -1064.1900510568 -1.06E+03
     2 Broy./Diag. 0.40E+00   16.2     1.25706109      -997.4550883012  6.67E+01
     3 Broy./Diag. 0.40E+00   17.5     0.67425178     -1259.1250985419 -2.62E+02
     4 Broy./Diag. 0.40E+00   17.7     0.23381004     -1100.1449274377  1.59E+02
     5 Broy./Diag. 0.40E+00   18.3     1.74583346     -1104.2599309745 -4.12E+00
     6 Broy./Diag. 0.40E+00   18.8     1.83172714     -1081.2893104614  2.30E+01
     7 Broy./Diag. 0.40E+00   20.8     0.29183299     -1074.4973383474  6.79E+00
     8 Broy./Diag. 0.40E+00   21.4     0.08611185     -1074.9881583264 -4.91E-01
     9 Broy./Diag. 0.40E+00   23.3     0.09322531     -1076.4076938977 -1.42E+00
    10 Broy./Diag. 0.40E+00   24.3     0.05659383     -1076.3683589635  3.93E-02
    11 Broy./Diag. 0.40E+00   23.8     0.01229465     -1076.0979877153  2.70E-01
    12 Broy./Diag. 0.40E+00   24.8     0.01426009     -1076.2188240642 -1.21E-01
    13 Broy./Diag. 0.40E+00   24.2     0.00958055     -1076.1981581683  2.07E-02
    14 Broy./Diag. 0.40E+00   23.8     0.00687805     -1076.2934292062 -9.53E-02
    15 Broy./Diag. 0.40E+00   25.4     0.00495574     -1076.2150877540  7.83E-02
    16 Broy./Diag. 0.40E+00   23.7     0.00521089     -1076.2379375899 -2.28E-02
    17 Broy./Diag. 0.40E+00   22.3     0.00373131     -1076.4439500102 -2.06E-01
    18 Broy./Diag. 0.40E+00   21.4     0.00600600     -1076.1980669527  2.46E-01
    19 Broy./Diag. 0.40E+00   24.6     1.26773634     -1076.2423780478 -4.43E-02
    20 Broy./Diag. 0.40E+00   24.7     1.55744219     -1077.7783199897 -1.54E+00
    21 Broy./Diag. 0.40E+00   24.2     1.57648598     -1077.7146002284  6.37E-02
    22 Broy./Diag. 0.40E+00   24.6     0.06142418     -1076.1932319189  1.52E+00
    23 Broy./Diag. 0.40E+00   24.7     0.02940005     -1076.2640584005 -7.08E-02
    24 Broy./Diag. 0.40E+00   24.2     0.00244323     -1076.2832324404 -1.92E-02
    25 Broy./Diag. 0.40E+00   24.3     0.00219047     -1076.2594336355  2.38E-02
    26 Broy./Diag. 0.40E+00   23.5     1.26806536     -1076.2618251508 -2.39E-03
    27 Broy./Diag. 0.40E+00   24.0     1.27393901     -1077.7296380276 -1.47E+00
    28 Broy./Diag. 0.40E+00   23.8     1.43069437     -1076.2611358517  1.47E+00
    29 Broy./Diag. 0.40E+00   25.5     1.44790179     -1079.2576345464 -3.00E+00
    30 Broy./Diag. 0.40E+00   24.0     1.28239517     -1077.6721194426  1.59E+00
    31 Broy./Diag. 0.40E+00   24.5     1.28249657     -1076.2711749315  1.40E+00
    32 Broy./Diag. 0.40E+00   24.6     1.26859988     -1079.3306573146 -3.06E+00
    33 Broy./Diag. 0.40E+00   24.4     0.05428536     -1076.1673455897  3.16E+00
    34 Broy./Diag. 0.40E+00   24.3     0.03204321     -1076.2613287556 -9.40E-02
    35 Broy./Diag. 0.40E+00   24.3     0.00622717     -1076.2462147197  1.51E-02
    36 Broy./Diag. 0.40E+00   24.3     0.00263871     -1076.2180033120  2.82E-02
    37 Broy./Diag. 0.40E+00   24.6     0.00129232     -1076.2277865000 -9.78E-03
    38 Broy./Diag. 0.40E+00   24.6     0.01130561     -1076.2304037087 -2.62E-03
    39 Broy./Diag. 0.40E+00   24.5     0.00512155     -1076.2599278417 -2.95E-02
    40 Broy./Diag. 0.40E+00   24.7     0.00152715     -1076.2451974574  1.47E-02
    41 Broy./Diag. 0.40E+00   24.8     1.55761000     -1076.2541535277 -8.96E-03
    42 Broy./Diag. 0.40E+00   24.5     1.56839038     -1077.7974103317 -1.54E+00
    43 Broy./Diag. 0.40E+00   24.3     1.29913774     -1077.7351497687  6.23E-02
    44 Broy./Diag. 0.40E+00   24.1     0.06251861     -1076.1720550535  1.56E+00
    45 Broy./Diag. 0.40E+00   24.8     0.02519150     -1076.3636588626 -1.92E-01
    46 Broy./Diag. 0.40E+00   24.4     0.00935794     -1076.1726046662  1.91E-01
    47 Broy./Diag. 0.40E+00   24.3     0.00370482     -1076.2372831681 -6.47E-02
    48 Broy./Diag. 0.40E+00   25.1     0.00274647     -1076.2330383344  4.24E-03
    49 Broy./Diag. 0.40E+00   23.4     0.00120289     -1076.2335084603 -4.70E-04
    50 Broy./Diag. 0.40E+00   23.3     0.00121700     -1076.2384642288 -4.96E-03
    51 Broy./Diag. 0.40E+00   24.0     0.00686048     -1076.2391247832 -6.61E-04
    52 Broy./Diag. 0.40E+00   24.2     1.43116774     -1076.2569837749 -1.79E-02
    53 Broy./Diag. 0.40E+00   23.5     1.44209787     -1079.2740278088 -3.02E+00
    54 Broy./Diag. 0.40E+00   22.8     1.55860423     -1076.1481066356  3.13E+00
    55 Broy./Diag. 0.40E+00   22.5     1.56688781     -1077.8104999105 -1.66E+00
    56 Broy./Diag. 0.40E+00   23.4     0.02674711     -1076.2693901392  1.54E+00
    57 Broy./Diag. 0.40E+00   24.1     0.01627393     -1076.1025064808  1.67E-01
    58 Broy./Diag. 0.40E+00   23.9     0.00451253     -1076.2224966643 -1.20E-01
    59 Broy./Diag. 0.40E+00   23.8     0.00215681     -1076.2268859368 -4.39E-03
    60 Broy./Diag. 0.40E+00   24.1     1.26815756     -1076.2247120143  2.17E-03
    61 Broy./Diag. 0.40E+00   24.6     1.27705282     -1077.6857118885 -1.46E+00
    62 Broy./Diag. 0.40E+00   25.1     0.02709707     -1076.2029948309  1.48E+00
    63 Broy./Diag. 0.40E+00   24.8     0.01408273     -1076.3566595655 -1.54E-01
    64 Broy./Diag. 0.40E+00   24.1     0.00936824     -1076.2762686783  8.04E-02
    65 Broy./Diag. 0.40E+00   23.9     0.00517699     -1076.2778341881 -1.57E-03
    66 Broy./Diag. 0.40E+00   25.4     0.00338987     -1076.2737475455  4.09E-03
    67 Broy./Diag. 0.40E+00   24.1     0.00298843     -1076.2498605977  2.39E-02
    68 Broy./Diag. 0.40E+00   24.1     1.43062384     -1076.2694604269 -1.96E-02
    69 Broy./Diag. 0.40E+00   24.5     1.44122327     -1077.7364959535 -1.47E+00
    70 Broy./Diag. 0.40E+00   24.5     0.01952531     -1076.2534186988  1.48E+00
    71 Broy./Diag. 0.40E+00   25.4     0.00823596     -1076.2211328809  3.23E-02
    72 Broy./Diag. 0.40E+00   24.6     0.00435495     -1076.2831403200 -6.20E-02
    73 Broy./Diag. 0.40E+00   24.7     1.26896964     -1076.2578128820  2.53E-02
    74 Broy./Diag. 0.40E+00   24.5     1.28012434     -1077.7297743725 -1.47E+00
    75 Broy./Diag. 0.40E+00   24.4     0.02620475     -1076.2368904111  1.49E+00
    76 Broy./Diag. 0.40E+00   24.6     0.01137743     -1076.2339549621  2.94E-03
    77 Broy./Diag. 0.40E+00   24.6     0.00336673     -1076.2566569149 -2.27E-02
    78 Broy./Diag. 0.40E+00   24.6     0.01373535     -1076.2441247546  1.25E-02
    79 Broy./Diag. 0.40E+00   24.4     0.00643019     -1076.2810036144 -3.69E-02
    80 Broy./Diag. 0.40E+00   24.2     1.55913948     -1076.2502702684  3.07E-02
    81 Broy./Diag. 0.40E+00   24.5     1.56470482     -1077.7498012995 -1.50E+00
    82 Broy./Diag. 0.40E+00   22.9     0.01383063     -1076.2406769457  1.51E+00
    83 Broy./Diag. 0.40E+00   23.2     0.02091940     -1076.2181119635  2.26E-02
    84 Broy./Diag. 0.40E+00   25.1     1.43139043     -1076.3030664854 -8.50E-02
    85 Broy./Diag. 0.40E+00   23.3     1.44822099     -1077.7293263269 -1.43E+00
    86 Broy./Diag. 0.40E+00   24.3     0.01097702     -1076.1765452090  1.55E+00
    87 Broy./Diag. 0.40E+00   25.0     0.00626422     -1076.1958743658 -1.93E-02
    88 Broy./Diag. 0.40E+00   24.3     0.00218542     -1076.2254099907 -2.95E-02
    89 Broy./Diag. 0.40E+00   23.7     0.00257539     -1076.1902571674  3.52E-02
    90 Broy./Diag. 0.40E+00   21.6     0.00931185     -1076.2274977486 -3.72E-02
    91 Broy./Diag. 0.40E+00   24.4     0.00438454     -1076.2404526836 -1.30E-02
    92 Broy./Diag. 0.40E+00   24.7     0.00318139     -1076.2456549705 -5.20E-03
    93 Broy./Diag. 0.40E+00   24.5     0.00187953     -1076.2337756633  1.19E-02
    94 Broy./Diag. 0.40E+00   24.3     1.55738326     -1076.2405873711 -6.81E-03
    95 Broy./Diag. 0.40E+00   24.9     1.56264272     -1079.3231692873 -3.08E+00
    96 Broy./Diag. 0.40E+00   25.7     1.56588968     -1077.7635000047  1.56E+00
    97 Broy./Diag. 0.40E+00   24.7     1.56570046     -1077.7332701729  3.02E-02
    98 Broy./Diag. 0.40E+00   25.4     1.56198374     -1076.4047254061  1.33E+00
    99 Broy./Diag. 0.40E+00   25.2     1.56764786     -1077.4520571678 -1.05E+00
   100 Broy./Diag. 0.40E+00   25.1     0.05289346     -1075.9971882512  1.45E+00
   101 Broy./Diag. 0.40E+00   23.9     0.03085923     -1076.4472578130 -4.50E-01
   102 Broy./Diag. 0.40E+00   24.6     0.01029640     -1076.2264284473  2.21E-01
   103 Broy./Diag. 0.40E+00   24.5     0.00343025     -1076.2082675850  1.82E-02
   104 Broy./Diag. 0.40E+00   23.6     0.00190835     -1076.2124925892 -4.23E-03
   105 Broy./Diag. 0.40E+00   24.6     1.43155887     -1076.2190970854 -6.60E-03
   106 Broy./Diag. 0.40E+00   24.3     1.43611111     -1077.7985857250 -1.58E+00
   107 Broy./Diag. 0.40E+00   24.0     0.03303571     -1076.2577700380  1.54E+00
   108 Broy./Diag. 0.40E+00   23.8     0.02075250     -1076.3248695753 -6.71E-02
   109 Broy./Diag. 0.40E+00   24.1     0.01569608     -1076.3305947897 -5.73E-03
   110 Broy./Diag. 0.40E+00   24.1     1.43042845     -1076.3023384564  2.83E-02
   111 Broy./Diag. 0.40E+00   25.1     1.43731560     -1077.7056877284 -1.40E+00
   112 Broy./Diag. 0.40E+00   24.3     1.26783797     -1076.2397784807  1.47E+00
   113 Broy./Diag. 0.40E+00   24.1     1.27961365     -1077.7891482848 -1.55E+00
   114 Broy./Diag. 0.40E+00   24.2     0.04667908     -1076.2608942547  1.53E+00
   115 Broy./Diag. 0.40E+00   23.9     0.03109093     -1076.2666322779 -5.74E-03
   116 Broy./Diag. 0.40E+00   24.5     0.00700977     -1076.2700885020 -3.46E-03
   117 Broy./Diag. 0.40E+00   24.6     0.00293422     -1076.2540390444  1.60E-02
   118 Broy./Diag. 0.40E+00   24.7     0.00189768     -1076.2625440945 -8.51E-03
   119 Broy./Diag. 0.40E+00   24.4     0.00116940     -1076.2603169641  2.23E-03
   120 Broy./Diag. 0.40E+00   24.2     1.26870435     -1076.2602379100  7.91E-05
   121 Broy./Diag. 0.40E+00   24.2     1.42775578     -1077.7604025430 -1.50E+00
   122 Broy./Diag. 0.40E+00   23.4     1.56542911     -1077.6587091839  1.02E-01
   123 Broy./Diag. 0.40E+00   24.5     1.59696316     -1078.9622005696 -1.30E+00
   124 Broy./Diag. 0.40E+00   24.0     1.26597227     -1077.3517481544  1.61E+00
   125 Broy./Diag. 0.40E+00   24.2     0.09192406     -1076.4387131233  9.13E-01
   126 Broy./Diag. 0.40E+00   24.8     0.05190490     -1076.0095250295  4.29E-01
   127 Broy./Diag. 0.40E+00   24.7     0.00944453     -1076.1639701758 -1.54E-01
   128 Broy./Diag. 0.40E+00   24.6     0.00772625     -1076.1685786008 -4.61E-03
   129 Broy./Diag. 0.40E+00   25.5     0.00418543     -1076.1782555133 -9.68E-03
   130 Broy./Diag. 0.40E+00   24.5     0.00342397     -1076.1872562256 -9.00E-03
   131 Broy./Diag. 0.40E+00   24.4     0.02359867     -1076.1795710841  7.69E-03
   132 Broy./Diag. 0.40E+00   25.6     0.02494137     -1076.2669420716 -8.74E-02
   133 Broy./Diag. 0.40E+00   24.7     0.02449743     -1076.2976020091 -3.07E-02
   134 Broy./Diag. 0.40E+00   24.6     0.01464394     -1076.3499041851 -5.23E-02
   135 Broy./Diag. 0.40E+00   24.8     0.00322744     -1076.2909325190  5.90E-02
   136 Broy./Diag. 0.40E+00   24.9     1.26684978     -1076.2935627478 -2.63E-03
   137 Broy./Diag. 0.40E+00   24.7     1.28576141     -1077.7507281126 -1.46E+00
   138 Broy./Diag. 0.40E+00   24.9     0.02578251     -1076.2476679813  1.50E+00
   139 Broy./Diag. 0.40E+00   24.5     0.01059629     -1076.2269392235  2.07E-02
   140 Broy./Diag. 0.40E+00   24.6     0.00599955     -1076.2540815828 -2.71E-02
   141 Broy./Diag. 0.40E+00   24.5     0.00324587     -1076.2602522299 -6.17E-03
   142 Broy./Diag. 0.40E+00   24.8     0.00172121     -1076.2528151273  7.44E-03
   143 Broy./Diag. 0.40E+00   24.6     0.00132745     -1076.2557578077 -2.94E-03
   144 Broy./Diag. 0.40E+00   24.7     0.00076337     -1076.2588203164 -3.06E-03
   145 Broy./Diag. 0.40E+00   24.6     0.00110951     -1076.2529008861  5.92E-03
   146 Broy./Diag. 0.40E+00   23.9     1.55765280     -1076.2586138150 -5.71E-03
   147 Broy./Diag. 0.40E+00   26.4     1.56748207     -1080.6924729466 -4.43E+00
   148 Broy./Diag. 0.40E+00   24.4     0.65874007     -1076.1238373944  4.57E+00
   149 Broy./Diag. 0.40E+00   24.3     0.66887646     -1077.7944366455 -1.67E+00
   150 Broy./Diag. 0.40E+00   24.0     1.07623208     -1076.2948651087  1.50E+00
   151 Broy./Diag. 0.40E+00   24.3     1.08267930     -1077.5951086619 -1.30E+00
   152 Broy./Diag. 0.40E+00   22.2     1.41537540     -1076.1009750740  1.49E+00
   153 Broy./Diag. 0.40E+00   21.8     1.43531701     -1077.8681561538 -1.77E+00
   154 Broy./Diag. 0.40E+00   21.8     0.05685443     -1076.3462175717  1.52E+00
   155 Broy./Diag. 0.40E+00   21.2     0.03515458     -1076.1542791567  1.92E-01
   156 Broy./Diag. 0.40E+00   23.3     0.01916144     -1076.1945063827 -4.02E-02
   157 Broy./Diag. 0.40E+00   24.1     0.00871483     -1076.2916885160 -9.72E-02
   158 Broy./Diag. 0.40E+00   24.0     0.00652555     -1076.2703757041  2.13E-02
   159 Broy./Diag. 0.40E+00   24.7     0.00337491     -1076.2516682369  1.87E-02
   160 Broy./Diag. 0.40E+00   24.9     0.01867745     -1076.2502419316  1.43E-03
   161 Broy./Diag. 0.40E+00   24.8     0.01045308     -1076.2994602743 -4.92E-02
   162 Broy./Diag. 0.40E+00   24.5     1.26779279     -1076.2794106402  2.00E-02
   163 Broy./Diag. 0.40E+00   24.7     1.28187354     -1077.8133628862 -1.53E+00
   164 Broy./Diag. 0.40E+00   24.5     0.02452053     -1076.2743945166  1.54E+00
   165 Broy./Diag. 0.40E+00   24.7     0.01503041     -1076.1303891422  1.44E-01
   166 Broy./Diag. 0.40E+00   24.6     0.00431469     -1076.3010510481 -1.71E-01
   167 Broy./Diag. 0.40E+00   24.5     0.00262550     -1076.2467948624  5.43E-02
   168 Broy./Diag. 0.40E+00   25.0     0.00165775     -1076.2546555677 -7.86E-03
   169 Broy./Diag. 0.40E+00   24.9     0.00117414     -1076.2578920473 -3.24E-03
   170 Broy./Diag. 0.40E+00   24.8     0.00067109     -1076.2537526430  4.14E-03
   171 Broy./Diag. 0.40E+00   24.9     0.00077348     -1076.2526039931  1.15E-03
   172 Broy./Diag. 0.40E+00   24.6     1.55799006     -1076.2542651900 -1.66E-03
   173 Broy./Diag. 0.40E+00   24.6     1.57059242     -1080.7338889517 -4.48E+00
   174 Broy./Diag. 0.40E+00   24.7     1.26876610     -1076.1704060987  4.56E+00
   175 Broy./Diag. 0.40E+00   25.4     1.28731508     -1077.7489944610 -1.58E+00
   176 Broy./Diag. 0.40E+00   24.6     0.03922589     -1076.1517669667  1.60E+00
   177 Broy./Diag. 0.40E+00   24.9     0.02213735     -1076.2641378468 -1.12E-01
   178 Broy./Diag. 0.40E+00   25.1     0.00440295     -1076.1724564622  9.17E-02
   179 Broy./Diag. 0.40E+00   25.0     0.00303346     -1076.1585949599  1.39E-02
   180 Broy./Diag. 0.40E+00   24.4     0.00179140     -1076.1832095637 -2.46E-02
   181 Broy./Diag. 0.40E+00   24.5     0.00175423     -1076.1639047323  1.93E-02
   182 Broy./Diag. 0.40E+00   24.5     0.02655070     -1076.1779814624 -1.41E-02
   183 Broy./Diag. 0.40E+00   24.5     0.01647954     -1076.3175702929 -1.40E-01
   184 Broy./Diag. 0.40E+00   22.8     0.01398508     -1076.2408105662  7.68E-02
   185 Broy./Diag. 0.40E+00   24.5     0.00419971     -1076.2735312434 -3.27E-02
   186 Broy./Diag. 0.40E+00   24.1     0.00318694     -1076.3093946204 -3.59E-02
   187 Broy./Diag. 0.40E+00   23.2     1.26840860     -1076.2501515978  5.92E-02
   188 Broy./Diag. 0.40E+00   24.7     1.28253683     -1077.7463899445 -1.50E+00
   189 Broy./Diag. 0.40E+00   24.5     0.02582941     -1076.1930166052  1.55E+00
   190 Broy./Diag. 0.40E+00   23.8     0.01106947     -1076.4100233095 -2.17E-01
   191 Broy./Diag. 0.40E+00   24.1     0.00394290     -1076.2451519823  1.65E-01
   192 Broy./Diag. 0.40E+00   24.8     0.00201136     -1076.2628917983 -1.77E-02
   193 Broy./Diag. 0.40E+00   24.7     0.00152610     -1076.2651629499 -2.27E-03
   194 Broy./Diag. 0.40E+00   24.4     1.55783368     -1076.2572794824  7.88E-03
   195 Broy./Diag. 0.40E+00   24.4     1.56544388     -1077.7105011171 -1.45E+00
   196 Broy./Diag. 0.40E+00   24.7     0.02049358     -1076.2451241538  1.47E+00
   197 Broy./Diag. 0.40E+00   24.2     1.43296307     -1076.1904606621  5.47E-02
   198 Broy./Diag. 0.40E+00   24.1     1.43971299     -1079.2440029454 -3.05E+00
   199 Broy./Diag. 0.40E+00   24.5     1.32198238     -1077.6685717473  1.58E+00
   200 Broy./Diag. 0.40E+00   24.7     0.11160127     -1076.1028982292  1.57E+00
   201 Broy./Diag. 0.40E+00   24.6     0.03844413     -1076.1307976828 -2.79E-02
   202 Broy./Diag. 0.40E+00   24.6     0.01119117     -1076.2575367179 -1.27E-01
   203 Broy./Diag. 0.40E+00   24.5     0.00428250     -1076.1949312507  6.26E-02
   204 Broy./Diag. 0.40E+00   24.2     0.00600739     -1076.1799082951  1.50E-02
   205 Broy./Diag. 0.40E+00   24.3     0.00356916     -1076.2198571223 -3.99E-02
   206 Broy./Diag. 0.40E+00   23.5     0.00348293     -1076.2075383157  1.23E-02
   207 Broy./Diag. 0.40E+00   24.7     0.01070928     -1076.2103832686 -2.84E-03
   208 Broy./Diag. 0.40E+00   24.3     1.55695775     -1076.2487196173 -3.83E-02
   209 Broy./Diag. 0.40E+00   25.2     1.56698721     -1080.7703704824 -4.52E+00
   210 Broy./Diag. 0.40E+00   23.3     1.56779423     -1077.6496039063  3.12E+00
   211 Broy./Diag. 0.40E+00   24.9     1.56237015     -1079.1082176509 -1.46E+00
   212 Broy./Diag. 0.40E+00   24.5     0.08092430     -1076.1828111219  2.93E+00
   213 Broy./Diag. 0.40E+00   24.2     0.05564958     -1076.2780425756 -9.52E-02
   214 Broy./Diag. 0.40E+00   24.1     0.01231497     -1076.1573050342  1.21E-01
   215 Broy./Diag. 0.40E+00   24.1     0.00679763     -1076.2490029485 -9.17E-02
   216 Broy./Diag. 0.40E+00   24.5     0.00292708     -1076.2225696997  2.64E-02
   217 Broy./Diag. 0.40E+00   25.7     0.00405530     -1076.2208448653  1.72E-03
   218 Broy./Diag. 0.40E+00   25.0     0.00391322     -1076.2333359266 -1.25E-02
   219 Broy./Diag. 0.40E+00   24.7     1.26908812     -1076.2349987349 -1.66E-03
   220 Broy./Diag. 0.40E+00   24.6     0.59438746     -1077.7415057223 -1.51E+00
   221 Broy./Diag. 0.40E+00   24.8     0.59772146     -1077.7337821699  7.72E-03
   222 Broy./Diag. 0.40E+00   24.7     1.27472118     -1077.7022911147  3.15E-02
   223 Broy./Diag. 0.40E+00   24.6     0.02100975     -1076.2261502830  1.48E+00
   224 Broy./Diag. 0.40E+00   24.7     0.01308240     -1076.2158134667  1.03E-02
   225 Broy./Diag. 0.40E+00   24.5     0.00274843     -1076.2468005160 -3.10E-02
   226 Broy./Diag. 0.40E+00   24.6     0.00197334     -1076.2438417572  2.96E-03
   227 Broy./Diag. 0.40E+00   23.0     0.00113098     -1076.2452312380 -1.39E-03
   228 Broy./Diag. 0.40E+00   24.3     0.00110820     -1076.2449520819  2.79E-04
   229 Broy./Diag. 0.40E+00   25.5     0.00089077     -1076.2509646255 -6.01E-03
   230 Broy./Diag. 0.40E+00   24.5     1.55770776     -1076.2466282493  4.34E-03
   231 Broy./Diag. 0.40E+00   25.2     1.56693339     -1077.6932765811 -1.45E+00
   232 Broy./Diag. 0.40E+00   24.4     1.44818390     -1079.1939252544 -1.50E+00
   233 Broy./Diag. 0.40E+00   24.0     1.26097031     -1076.1052645052  3.09E+00
   234 Broy./Diag. 0.40E+00   24.5     0.62533157     -1077.8711570635 -1.77E+00
   235 Broy./Diag. 0.40E+00   24.4     0.62341407     -1077.7706183043  1.01E-01
   236 Broy./Diag. 0.40E+00   25.0     1.28117621     -1077.7978035342 -2.72E-02
   237 Broy./Diag. 0.40E+00   24.5     0.07284390     -1076.2739844974  1.52E+00
   238 Broy./Diag. 0.40E+00   24.2     0.04634523     -1076.0421024901  2.32E-01
   239 Broy./Diag. 0.40E+00   25.0     0.00908511     -1076.1936384575 -1.52E-01
   240 Broy./Diag. 0.40E+00   24.2     0.00668799     -1076.1769776150  1.67E-02
   241 Broy./Diag. 0.40E+00   22.6     0.02298759     -1076.2152900148 -3.83E-02
   242 Broy./Diag. 0.40E+00   22.5     0.01529501     -1076.3133640520 -9.81E-02
   243 Broy./Diag. 0.40E+00   24.3     0.00342452     -1076.2413845448  7.20E-02
   244 Broy./Diag. 0.40E+00   24.1     0.00736843     -1076.2288047379  1.26E-02
   245 Broy./Diag. 0.40E+00   24.1     1.55750923     -1076.2702086714 -4.14E-02
   246 Broy./Diag. 0.40E+00   24.4     1.56485575     -1077.7656932643 -1.50E+00
   247 Broy./Diag. 0.40E+00   25.1     0.04853661     -1076.2922176726  1.47E+00
   248 Broy./Diag. 0.40E+00   24.6     0.03322472     -1076.3358155251 -4.36E-02
   249 Broy./Diag. 0.40E+00   24.8     0.00939333     -1076.2895101796  4.63E-02
   250 Broy./Diag. 0.40E+00   24.8     1.26725418     -1076.2817497415  7.76E-03
   251 Broy./Diag. 0.40E+00   24.9     1.28019059     -1077.7278675440 -1.45E+00
   252 Broy./Diag. 0.40E+00   24.7     0.01798726     -1076.2245163006  1.50E+00
   253 Broy./Diag. 0.40E+00   24.7     0.01266437     -1076.2657891065 -4.13E-02
   254 Broy./Diag. 0.40E+00   24.8     0.00358126     -1076.2600279609  5.76E-03
   255 Broy./Diag. 0.40E+00   23.1     0.00626774     -1076.2456597505  1.44E-02
   256 Broy./Diag. 0.40E+00   24.3     0.00315448     -1076.2605781408 -1.49E-02
   257 Broy./Diag. 0.40E+00   24.3     0.00169499     -1076.2499209163  1.07E-02
   258 Broy./Diag. 0.40E+00   24.3     0.00128354     -1076.2607170212 -1.08E-02
   259 Broy./Diag. 0.40E+00   24.8     0.00082348     -1076.2509593610  9.76E-03
   260 Broy./Diag. 0.40E+00   24.5     1.55703810     -1076.2525833752 -1.62E-03
   261 Broy./Diag. 0.40E+00   24.7     1.56533347     -1080.7395478248 -4.49E+00
   262 Broy./Diag. 0.40E+00   24.7     0.04303780     -1076.1994442667  4.54E+00
   263 Broy./Diag. 0.40E+00   25.1     0.02671120     -1076.2892551574 -8.98E-02
   264 Broy./Diag. 0.40E+00   24.2     1.27470047     -1076.1583634005  1.31E-01
   265 Broy./Diag. 0.40E+00   23.2     1.28046102     -1077.7149809128 -1.56E+00
   266 Broy./Diag. 0.40E+00   22.1     0.02001399     -1076.1924405535  1.52E+00
   267 Broy./Diag. 0.40E+00   24.4     0.00832791     -1076.2215908130 -2.92E-02
   268 Broy./Diag. 0.40E+00   23.8     0.00242118     -1076.2118243959  9.77E-03
   269 Broy./Diag. 0.40E+00   24.1     0.00181415     -1076.2114929223  3.31E-04
   270 Broy./Diag. 0.40E+00   24.4     0.01627104     -1076.2245788612 -1.31E-02
   271 Broy./Diag. 0.40E+00   25.2     0.00990423     -1076.3343980854 -1.10E-01
   272 Broy./Diag. 0.40E+00   24.0     0.00852319     -1076.2523900594  8.20E-02
   273 Broy./Diag. 0.40E+00   24.9     0.00609903     -1076.2753492623 -2.30E-02
   274 Broy./Diag. 0.40E+00   25.1     0.01810990     -1076.2801090585 -4.76E-03
   275 Broy./Diag. 0.40E+00   22.4     0.00807951     -1076.2924104469 -1.23E-02
   276 Broy./Diag. 0.40E+00   23.0     1.26769670     -1076.2794661327  1.29E-02
   277 Broy./Diag. 0.40E+00   22.3     1.29800071     -1077.7614384997 -1.48E+00
   278 Broy./Diag. 0.40E+00   21.8     0.01341615     -1076.1626898168  1.60E+00
   279 Broy./Diag. 0.40E+00   24.7     0.01449725     -1076.2309133489 -6.82E-02
   280 Broy./Diag. 0.40E+00   24.7     0.00596882     -1076.2083766622  2.25E-02
   281 Broy./Diag. 0.40E+00   23.9     0.00307848     -1076.2321367644 -2.38E-02
   282 Broy./Diag. 0.40E+00   24.6     0.00231106     -1076.2021261770  3.00E-02
   283 Broy./Diag. 0.40E+00   24.6     0.00157910     -1076.2304277188 -2.83E-02
   284 Broy./Diag. 0.40E+00   25.3     0.00239986     -1076.2285028187  1.92E-03
   285 Broy./Diag. 0.40E+00   24.6     0.00285852     -1076.2314021559 -2.90E-03
   286 Broy./Diag. 0.40E+00   24.4     1.55817426     -1076.2369962927 -5.59E-03
   287 Broy./Diag. 0.40E+00   25.3     1.56515731     -1080.7158645050 -4.48E+00
   288 Broy./Diag. 0.40E+00   24.5     0.01474224     -1076.1701306214  4.55E+00
   289 Broy./Diag. 0.40E+00   22.7     1.43373804     -1076.1941491461 -2.40E-02
   290 Broy./Diag. 0.40E+00   24.1     1.44053374     -1077.7344693335 -1.54E+00
   291 Broy./Diag. 0.40E+00   24.3     0.02029287     -1076.2679181188  1.47E+00
   292 Broy./Diag. 0.40E+00   24.6     0.01483719     -1076.2214799740  4.64E-02
   293 Broy./Diag. 0.40E+00   25.2     0.00516521     -1076.2348506814 -1.34E-02
   294 Broy./Diag. 0.40E+00   25.1     0.00302475     -1076.2646557608 -2.98E-02
   295 Broy./Diag. 0.40E+00   24.2     0.00178352     -1076.2503885799  1.43E-02
   296 Broy./Diag. 0.40E+00   24.5     0.00372047     -1076.2499309673  4.58E-04
   297 Broy./Diag. 0.40E+00   25.0     0.00200783     -1076.2728889445 -2.30E-02
   298 Broy./Diag. 0.40E+00   24.8     1.26744826     -1076.2597401610  1.31E-02
   299 Broy./Diag. 0.40E+00   24.5     1.27781404     -1077.7262959470 -1.47E+00
   300 Broy./Diag. 0.40E+00   25.0     1.55817049     -1076.2637617267  1.46E+00

  Leaving inner SCF loop after reaching   300 steps.


  Electronic density on regular grids:       -511.9995935678        0.0004064322
  Core density on regular grids:              511.9998595483       -0.0001404517
  Total charge density on r-space grids:        0.0002659805
  Total charge density g-space grids:           0.0002659805

  Overlap energy of the core charge distribution:               0.00000000000000
  Self energy of the core charge distribution:              -2838.21791979120962
  Core Hamiltonian energy:                                    759.54707602392443
  Hartree energy:                                            1241.08889492206413
  Exchange-correlation energy:                               -238.68181288149793

  Total energy:                                             -1076.26376172671894

 *** WARNING in qs_scf.F:542 :: SCF run NOT converged ***


 ENERGY| Total FORCE_EVAL ( QS ) energy (a.u.):            -1074.330104830012715


 ATOMIC FORCES in [a.u.]

 # Atom   Kind   Element          X              Y              Z
      1      1      O           0.06210933     0.06696304    -0.10023912
      2      2      H          -0.06490559     0.06650178     0.05731665
      3      2      H          -0.03389139    -0.07054570    -0.03703381
      4      1      O           0.07635401    -0.02440300     0.01627493
      5      2      H          -0.01546152    -0.05281840     0.07693954
      6      2      H          -0.08204125     0.06976054     0.03635237
      7      1      O          -0.08396659     0.02975130     0.16007116
      8      2      H           0.04566169     0.03133091    -0.07035850
      9      2      H           0.04046623    -0.09005623     0.02571252
     10      1      O          -0.00607065     0.05165998    -0.08777493
     11      2      H          -0.00792232    -0.02344943     0.02670136
     12      2      H           0.00245275     0.01947620    -0.01140878
     13      1      O          -0.00733568    -0.11189535     0.06662592
     14      2      H          -0.04126166     0.06881809     0.00316789
     15      2      H           0.05524561    -0.04182742    -0.03617772
     16      1      O          -0.00339603     0.02436289     0.03735143
     17      2      H          -0.04001584     0.00367734    -0.02238482
     18      2      H           0.05911737     0.00549630    -0.00157920
     19      1      O          -0.03001939     0.01254076     0.05803499
     20      2      H          -0.00726960    -0.05469383    -0.01205179
     21      2      H           0.01140057     0.03113086    -0.08265499
     22      1      O           0.03443023     0.02411450     0.00384620
     23      2      H          -0.06819339     0.00630538     0.06063422
     24      2      H           0.00874729    -0.02075569    -0.04035663
     25      1      O           0.02226645     0.06246227    -0.09262495
     26      2      H           0.02617111    -0.02255080     0.03373642
     27      2      H          -0.01966456    -0.07717123    -0.02608316
     28      1      O          -0.01506665     0.12862905     0.03867712
     29      2      H           0.08083676    -0.02122541    -0.05114395
     30      2      H          -0.04947944    -0.06774761    -0.00909212
     31      1      O           0.03155244    -0.13063381    -0.06996154
     32      2      H           0.03963237     0.05189219     0.00187124
     33      2      H          -0.08399389     0.02903497    -0.02306729
     34      1      O           0.06605803    -0.06615576     0.04223953
     35      2      H           0.00658085     0.00248268    -0.04524904
     36      2      H          -0.04369401     0.02297407     0.09088818
     37      1      O          -0.01598131     0.00476971     0.00311067
     38      2      H           0.03369601     0.08828923    -0.01669192
     39      2      H           0.01648267    -0.06136664    -0.01113253
     40      1      O          -0.02946565    -0.00195083     0.13019710
     41      2      H          -0.06940630     0.08628671    -0.05872538
     42      2      H           0.07405144    -0.01496074    -0.04529100
     43      1      O           0.04753839     0.01504622    -0.10068857
     44      2      H          -0.08365588     0.00174701    -0.01612409
     45      2      H           0.02512660     0.07340765    -0.04797235
     46      1      O          -0.01664369     0.03763558    -0.13107173
     47      2      H          -0.02903067    -0.03983426     0.03094160
     48      2      H           0.07293925    -0.04142035    -0.03421709
     49      1      O           0.02128996    -0.11775133     0.03790033
     50      2      H           0.01745990     0.06591469     0.06383529
     51      2      H          -0.05335811     0.00534363    -0.07503783
     52      1      O          -0.02950148    -0.00786007     0.02693904
     53      2      H           0.07414392    -0.02114753    -0.01304183
     54      2      H          -0.06454106     0.05455134    -0.02640592
     55      1      O          -0.07187747     0.07127147     0.03946478
     56      2      H           0.02016352    -0.03197705    -0.05524926
     57      2      H           0.02501995    -0.01728810     0.08694792
     58      1      O           0.02504311     0.03170217    -0.06945144
     59      2      H          -0.08934533     0.01399357    -0.06749478
     60      2      H           0.03933693    -0.04696452     0.02034058
     61      1      O          -0.09505608    -0.00707218     0.02724023
     62      2      H           0.02556995     0.06842371    -0.00370111
     63      2      H           0.06007098    -0.01935541    -0.02935956
     64      1      O           0.03857877    -0.00991122    -0.04703947
     65      2      H          -0.06720532    -0.00945899     0.01834941
     66      2      H           0.03892557     0.07819989    -0.04005793
     67      1      O          -0.03247331    -0.07564147    -0.09720715
     68      2      H           0.01344086     0.06600342     0.02731915
     69      2      H           0.02656502    -0.01087547    -0.03488608
     70      1      O          -0.04933027    -0.09978268     0.01279244
     71      2      H           0.00640405     0.10173085     0.01915114
     72      2      H          -0.01913203    -0.00641472    -0.09970812
     73      1      O          -0.01767068     0.10360118    -0.14600688
     74      2      H           0.07246331    -0.02152700     0.06003340
     75      2      H          -0.06584782     0.00333900     0.06559716
     76      1      O          -0.07749262    -0.00182820    -0.06127031
     77      2      H          -0.01112869    -0.09976996     0.02445352
     78      2      H           0.06183705    -0.01164588     0.00926373
     79      1      O          -0.04463683    -0.00123163    -0.04879679
     80      2      H           0.06540050     0.04411315     0.02587485
     81      2      H          -0.01946995    -0.09869584    -0.00886157
     82      1      O          -0.04227940     0.12859741     0.16181954
     83      2      H           0.06148684    -0.01334264    -0.03428640
     84      2      H          -0.04348355    -0.01232893    -0.09125929
     85      1      O          -0.00073307    -0.01227170     0.15750853
     86      2      H          -0.02819272    -0.03948379    -0.09084033
     87      2      H          -0.00115805     0.10763633    -0.02442366
     88      1      O           0.03785877    -0.11480801     0.00477109
     89      2      H          -0.05818645     0.00186739    -0.03722109
     90      2      H           0.02090172     0.06920247    -0.06149725
     91      1      O          -0.00896977     0.01677954     0.01199249
     92      2      H           0.02536307    -0.04570279     0.03293564
     93      2      H          -0.02890918     0.04139338    -0.00066512
     94      1      O          -0.17231121     0.16256400     0.09025668
     95      2      H           0.17364780     0.06833836    -0.02590745
     96      2      H           0.00350490    -0.21239320    -0.08913154
     97      1      O           0.04763704     0.07234765    -0.03507081
     98      2      H          -0.01716366     0.00159190    -0.03179889
     99      2      H          -0.02563889    -0.05569282     0.01863261
    100      1      O           0.01974377     0.09604401     0.14909311
    101      2      H           0.05756540    -0.05364558    -0.02908665
    102      2      H          -0.07599187    -0.07269196     0.03494993
    103      1      O           0.05698085    -0.03579621    -0.06470144
    104      2      H          -0.05149722    -0.01309655    -0.10489987
    105      2      H          -0.05198775     0.00705149     0.03590472
    106      1      O           0.01687915     0.07587693    -0.10576965
    107      2      H           0.04525768    -0.05962533     0.02851171
    108      2      H          -0.07824396     0.02655499    -0.00883941
    109      1      O          -0.08413800    -0.03058612    -0.12360653
    110      2      H           0.05085056    -0.02697935    -0.04637952
    111      2      H          -0.01551429    -0.00271624     0.03640440
    112      1      O           0.11358119     0.01007108     0.09452066
    113      2      H          -0.03260828    -0.11759824     0.04664589
    114      2      H          -0.07333133     0.06183551    -0.05374059
    115      1      O           0.10135722    -0.08983387    -0.01357669
    116      2      H          -0.01927149    -0.03439587    -0.08886429
    117      2      H          -0.04696702     0.09895906     0.02282464
    118      1      O           0.06301464    -0.13245668    -0.05824826
    119      2      H          -0.04111177     0.03488712    -0.03670536
    120      2      H           0.02183912    -0.00836939     0.10148188
    121      1      O          -0.05628495    -0.00285808     0.03471176
    122      2      H          -0.02147190    -0.01895865    -0.03026609
    123      2      H           0.08116027     0.00183767    -0.00736921
    124      1      O          -0.08769149     0.00661198    -0.06282734
    125      2      H           0.00383505    -0.10014658     0.02726602
    126      2      H           0.04385830     0.08208266     0.03021614
    127      1      O          -0.00051619     0.07531286    -0.06669526
    128      2      H           0.00255256    -0.03915948     0.07642452
    129      2      H           0.04804250    -0.02762439    -0.02975146
    130      1      O          -0.08188970     0.15584505    -0.06586173
    131      2      H           0.01265170    -0.04714173    -0.03892994
    132      2      H           0.05036064    -0.06570167     0.09770874
    133      1      O          -0.02040318    -0.14159505    -0.13646595
    134      2      H          -0.06675210     0.05965229    -0.03111747
    135      2      H           0.05796512     0.05221600    -0.02957011
    136      1      O           0.05528884     0.02850220     0.00096660
    137      2      H           0.01803113    -0.08874432     0.02633844
    138      2      H          -0.06055936     0.02511130    -0.00801769
    139      1      O          -0.05136900    -0.14074431     0.01908626
    140      2      H           0.09090569    -0.02614235    -0.02611781
    141      2      H          -0.04893136     0.05897750    -0.00715194
    142      1      O          -0.07585701     0.11103423     0.11367404
    143      2      H          -0.00545378    -0.08982732    -0.05252989
    144      2      H           0.07808898    -0.00669745     0.00373161
    145      1      O           0.02114978     0.13658400    -0.02925996
    146      2      H           0.02397895    -0.09567319     0.06697411
    147      2      H          -0.05321849    -0.03510938    -0.08868975
    148      1      O           0.06737089    -0.03892055     0.14059182
    149      2      H           0.01546624     0.07788179    -0.02386839
    150      2      H          -0.08203035     0.00335414    -0.04051952
    151      1      O           0.08562097     0.03699798     0.07632188
    152      2      H          -0.05095570     0.02145237     0.08638435
    153      2      H          -0.03698632    -0.01599853    -0.11478182
    154      1      O           0.07808060    -0.05164499    -0.04339966
    155      2      H          -0.05838551     0.02173767     0.06913844
    156      2      H          -0.00741154    -0.03567404    -0.02468432
    157      1      O          -0.02189476     0.12913085     0.05688480
    158      2      H          -0.02447836    -0.07377227     0.01447900
    159      2      H           0.00860258    -0.03544270    -0.05233406
    160      1      O           0.00733346     0.09160693     0.09841868
    161      2      H           0.05361287    -0.01194300    -0.06283838
    162      2      H          -0.00900427    -0.10280263     0.03650603
    163      1      O           0.02867902    -0.05305865     0.08474305
    164      2      H           0.02976803    -0.04709032    -0.02880964
    165      2      H          -0.05902470    -0.01785343     0.01745219
    166      1      O           0.06109961    -0.02974174     0.02606061
    167      2      H           0.00700433     0.05527177     0.02359263
    168      2      H          -0.04767462     0.01322542    -0.05935348
    169      1      O          -0.04110318     0.02762205    -0.00038961
    170      2      H           0.02559618    -0.06311392    -0.05319470
    171      2      H           0.02169122     0.04646058    -0.00952453
    172      1      O          -0.07728977     0.13161392    -0.15013877
    173      2      H          -0.01803163    -0.08409290    -0.00282834
    174      2      H           0.06927151    -0.01065621     0.00649548
    175      1      O           0.03710114     0.06524184    -0.13031740
    176      2      H           0.00557435     0.06267272     0.08875504
    177      2      H          -0.06044284    -0.06793677    -0.01606317
    178      1      O          -0.00987678    -0.04932500    -0.00050192
    179      2      H           0.06234049    -0.07104833    -0.02490218
    180      2      H          -0.01455864     0.03281676    -0.06339936
    181      1      O          -0.09401839     0.02750511     0.03057143
    182      2      H           0.01848235     0.05147601    -0.05410711
    183      2      H           0.04247461    -0.10731248     0.00098629
    184      1      O          -0.08534701    -0.10095134     0.01450110
    185      2      H           0.00362367     0.01092406     0.08245355
    186      2      H           0.06947489     0.00048795    -0.05071190
    187      1      O           0.04756102     0.03526498    -0.01994063
    188      2      H          -0.03036097    -0.00705795     0.12082390
    189      2      H          -0.03703925    -0.05333780    -0.03680121
    190      1      O          -0.07922952    -0.05699978    -0.08717680
    191      2      H           0.06210305     0.06181033    -0.07267113
    192      2      H           0.02362272     0.02960715     0.04446679
 SUM OF ATOMIC FORCES          -0.32160572    -0.31311223    -1.18395994     1.26618745

 -------------------------------------------------------------------------------
 -                                                                             -
 -                                DBCSR STATISTICS                             -
 -                                                                             -
 -------------------------------------------------------------------------------
 COUNTER                                    TOTAL       BLAS       SMM       ACC
 flops     5 x     5 x   256           3660160000       0.0%    100.0%      0.0%
 flops    13 x     5 x   256           4407603200       0.0%    100.0%      0.0%
 flops     5 x    13 x   256           4507776000       0.0%    100.0%      0.0%
 flops    13 x    13 x   256           6407052288       0.0%    100.0%      0.0%
 flops inhomo. stacks                           0       0.0%      0.0%      0.0%
 flops total                        18.982591E+09       0.0%    100.0%      0.0%
 flops max/rank                     18.982591E+09       0.0%    100.0%      0.0%
 matmuls inhomo. stacks                         0       0.0%      0.0%      0.0%
 matmuls total                             627886       0.0%    100.0%      0.0%
 number of processed stacks                 42140       0.0%    100.0%      0.0%
 average stack size                                     0.0      14.9       0.0
 marketing flops                   333.927416E+09
 -------------------------------------------------------------------------------
 # multiplications                            301
 max memory usage/rank              30.554649E+09
 # max total images/rank                        1
 # max 3D layers                                1
 # MPI messages exchanged                       0
 MPI messages size (bytes):
  total size                         0.000000E+00
  min size                           0.000000E+00
  max size                           0.000000E+00
  average size                       0.000000E+00
 MPI breakdown and total messages size (bytes):
             size <=      128                   0                        0
       128 < size <=     8192                   0                        0
      8192 < size <=    32768                   0                        0
     32768 < size <=   131072                   0                        0
    131072 < size <=  4194304                   0                        0
   4194304 < size <= 16777216                   0                        0
  16777216 < size                               0                        0
 -------------------------------------------------------------------------------

 MEMORY| Estimated peak process memory [MiB]                               29143

 -------------------------------------------------------------------------------
 -                                                                             -
 -                           R E F E R E N C E S                               -
 -                                                                             -
 -------------------------------------------------------------------------------
 
 CP2K version 7.1, the CP2K developers group (2019).
 CP2K is freely available from https://www.cp2k.org/ .

 Schuett, Ole; Messmer, Peter; Hutter, Juerg; VandeVondele, Joost. 
 Electronic Structure Calculations on Graphics Processing Units, John
 Wiley & Sons, Ltd, 173-190 (2016). 
 GPU-Accelerated Sparse Matrix-Matrix Multiplication for
 Linear Scaling Density Functional Theory.
 https://dx.doi.org/10.1002/9781118670712.ch8

 Borstnik, U; VandeVondele, J; Weber, V; Hutter, J. 
 PARALLEL COMPUTING, 40 (5-6), 47-58 (2014). 
 Sparse matrix multiplication: The distributed block-compressed sparse
 row library.
 https://dx.doi.org/10.1016/j.parco.2014.03.012

 Hutter, J; Iannuzzi, M; Schiffmann, F; VandeVondele, J. 
 WIREs Comput Mol Sci., 4 (1), 15-25 (2014). 
 CP2K: atomistic simulations of condensed matter systems.
 https://dx.doi.org/10.1002/wcms.1159

 Krack, M. 
 THEORETICAL CHEMISTRY ACCOUNTS, 114 (1-3), 145-152 (2005). 
 Pseudopotentials for H to Kr optimized for gradient-corrected
 exchange-correlation functionals.
 https://dx.doi.org/10.1007/s00214-005-0655-y

 VandeVondele, J; Krack, M; Mohamed, F; Parrinello, M; Chassaing, T;
 Hutter, J. COMPUTER PHYSICS COMMUNICATIONS, 167 (2), 103-128 (2005). 
 QUICKSTEP: Fast and accurate density functional calculations using a
 mixed Gaussian and plane waves approach.
 https://dx.doi.org/10.1016/j.cpc.2004.12.014

 Frigo, M; Johnson, SG. 
 PROCEEDINGS OF THE IEEE, 93 (2), 216-231 (2005). 
 The design and implementation of FFTW3.
 https://dx.doi.org/10.1109/JPROC.2004.840301

 Hartwigsen, C; Goedecker, S; Hutter, J. 
 PHYSICAL REVIEW B, 58 (7), 3641-3662 (1998). 
 Relativistic separable dual-space Gaussian pseudopotentials from H to Rn.
 https://dx.doi.org/10.1103/PhysRevB.58.3641

 Lippert, G; Hutter, J; Parrinello, M. 
 MOLECULAR PHYSICS, 92 (3), 477-487 (1997). 
 A hybrid Gaussian and plane wave density functional scheme.
 https://dx.doi.org/10.1080/002689797170220

 Goedecker, S; Teter, M; Hutter, J. 
 PHYSICAL REVIEW B, 54 (3), 1703-1710 (1996). 
 Separable dual-space Gaussian pseudopotentials.
 https://dx.doi.org/10.1103/PhysRevB.54.1703


 -------------------------------------------------------------------------------
 -                                                                             -
 -                                T I M I N G                                  -
 -                                                                             -
 -------------------------------------------------------------------------------
 SUBROUTINE                       CALLS  ASD         SELF TIME        TOTAL TIME
                                MAXIMUM       AVERAGE  MAXIMUM  AVERAGE  MAXIMUM
 CP2K                                 1  1.0    1.010    1.010 7278.804 7278.804
 qs_forces                            1  2.0    0.000    0.000 7267.539 7267.539
 qs_energies                          1  3.0    0.000    0.000 7263.627 7263.627
 scf_env_do_scf                       1  4.0    0.001    0.001 7251.929 7251.929
 scf_env_do_scf_inner_loop          300  5.0    0.052    0.052 7251.928 7251.928
 gspace_mixing                      299  6.0   42.391   42.391 3006.530 3006.530
 broyden_mixing                     299  7.0 2717.778 2717.778 2717.782 2717.782
 qs_scf_new_mos                     300  6.0    0.008    0.008 1981.848 1981.848
 eigensolver                        300  7.0    0.033    0.033 1910.987 1910.987
 cp_fm_syevd                        300  8.0 1279.703 1279.703 1280.876 1280.876
 pw_transfer                       3912  9.9    0.390    0.390 1188.120 1188.120
 rebuild_ks_matrix                  301  7.0    0.001    0.001 1166.910 1166.910
 qs_ks_build_kohn_sham_matrix       301  8.0    0.106    0.106 1166.909 1166.909
 qs_ks_update_qs_env                300  6.0    0.004    0.004 1163.370 1163.370
 fft_wrap_pw1pw2                   3310 10.9    0.054    0.054 1155.540 1155.540
 qs_rho_update_rho                  301  6.0    0.003    0.003 1100.692 1100.692
 calculate_rho_elec                 301  7.0  543.487  543.487 1100.690 1100.690
 fft_wrap_pw1pw2_70                1504 11.2   91.777   91.777 1047.074 1047.074
 cp_fm_cholesky_restore             900  8.0  628.998  628.998  628.998  628.998
 fft3d_s                           3311 12.9  554.091  554.091  554.142  554.142
 density_rs2pw                      301  8.0    0.030    0.030  547.532  547.532
 pw_scatter_s                      1804 13.2  410.331  410.331  410.331  410.331
 pw_poisson_solve                   301  9.0  333.123  333.123  365.667  365.667
 sum_up_and_integrate               301  9.0   17.873   17.873  339.752  339.752
 integrate_v_rspace                 301 10.0   10.844   10.844  321.878  321.878
 potential_pw2rs                    301 11.0    2.502    2.502  285.548  285.548
 qs_vxc_create                      301  9.0    0.006    0.006  166.658  166.658
 xc_vxc_pw_create                   301 10.0   42.464   42.464  166.652  166.652
 -------------------------------------------------------------------------------

 The number of warnings for this run is : 1
 
 -------------------------------------------------------------------------------
  **** **** ******  **  PROGRAM ENDED AT                 2020-05-30 15:14:15.557
 ***** ** ***  *** **   PROGRAM RAN ON                                   gnode44
 **    ****   ******    PROGRAM RAN BY                               mayank.modi
 ***** **    ** ** **   PROGRAM PROCESS ID                                 10933
  **** **  *******  **  PROGRAM STOPPED IN /home/mayank.modi/ab-initio-thermodyn
                                           amics-of-water/mayank/cp2k_energy_cal
                                           culations
