 DBCSR| CPU Multiplication driver                                           XSMM
 DBCSR| Multrec recursion limit                                              512
 DBCSR| Multiplication stack size                                           1000
 DBCSR| Maximum elements for images                                    UNLIMITED
 DBCSR| Multiplicative factor virtual images                                   1
 DBCSR| Use multiplication densification                                       T
 DBCSR| Multiplication size stacks                                             3


  **** **** ******  **  PROGRAM STARTED AT               2020-05-28 03:37:28.038
 ***** ** ***  *** **   PROGRAM STARTED ON                               gnode44
 **    ****   ******    PROGRAM STARTED BY                           mayank.modi
 ***** **    ** ** **   PROGRAM PROCESS ID                                  8717
  **** **  *******  **  PROGRAM STARTED IN /home/mayank.modi/ab-initio-thermodyn
                                           amics-of-water/mayank/cp2k_energy_cal
                                           culations

 CP2K| version string:                                          CP2K version 7.1
 CP2K| source code revision number:                                  git:e635599
 CP2K| cp2kflags: omp libint fftw3 libxc xsmm spglib                            
 CP2K| is freely available from                            https://www.cp2k.org/
 CP2K| Program compiled at                          Mon Dec 23 19:23:12 CET 2019
 CP2K| Program compiled on                                                pc9404
 CP2K| Program compiled for                                Linux-x86-64-gfortran
 CP2K| Data directory path                                        /opt/cp2k/data
 CP2K| Input file name                                 input_training/input18.in

 GLOBAL| Force Environment number                                              1
 GLOBAL| Basis set file name                                           BASIS_SET
 GLOBAL| Potential file name                                      GTH_POTENTIALS
 GLOBAL| MM Potential file name                                     MM_POTENTIAL
 GLOBAL| Coordinate file name                                      __STD_INPUT__
 GLOBAL| Method name                                                        CP2K
 GLOBAL| Project name                                                   H2O_bulk
 GLOBAL| Preferred FFT library                                             FFTW3
 GLOBAL| Preferred diagonalization lib.                                       SL
 GLOBAL| Run type                                                   ENERGY_FORCE
 GLOBAL| All-to-all communication in single precision                          F
 GLOBAL| FFTs using library dependent lengths                                  F
 GLOBAL| Global print level                                                  LOW
 GLOBAL| MPI I/O enabled                                                       T
 GLOBAL| Total number of message passing processes                             1
 GLOBAL| Number of threads for this process                                   36
 GLOBAL| This output is from process                                           0
 GLOBAL| CPU model name                Intel(R) Xeon(R) CPU E5-2640 v4 @ 2.40GHz
 GLOBAL| CPUID                                                              1002
 GLOBAL| Compiled for CPUID                                                    0

 MEMORY| system memory details [Kb]
 MEMORY|                        rank 0           min           max       average
 MEMORY| MemTotal            131893056     131893056     131893056     131893056
 MEMORY| MemFree             121136516     121136516     121136516     121136516
 MEMORY| Buffers               2112808       2112808       2112808       2112808
 MEMORY| Cached                3079864       3079864       3079864       3079864
 MEMORY| Slab                  3302248       3302248       3302248       3302248
 MEMORY| SReclaimable          3100204       3100204       3100204       3100204
 MEMORY| MemLikelyFree       129429392     129429392     129429392     129429392


 GENERATE|  Preliminary Number of Bonds generated:                             0
 GENERATE|  Achieved consistency in connectivity generation.

 *******************************************************************************
 *******************************************************************************
 **                                                                           **
 **     #####                         ##              ##                      **
 **    ##   ##            ##          ##              ##                      **
 **   ##     ##                       ##            ######                    **
 **   ##     ##  ##   ##  ##   #####  ##  ##   ####   ##    #####    #####    **
 **   ##     ##  ##   ##  ##  ##      ## ##   ##      ##   ##   ##  ##   ##   **
 **   ##  ## ##  ##   ##  ##  ##      ####     ###    ##   ######   ######    **
 **    ##  ###   ##   ##  ##  ##      ## ##      ##   ##   ##       ##        **
 **     #######   #####   ##   #####  ##  ##  ####    ##    #####   ##        **
 **           ##                                                    ##        **
 **                                                                           **
 **                                                ... make the atoms dance   **
 **                                                                           **
 **            Copyright (C) by CP2K developers group (2000 - 2019)           **
 **                                                                           **
 *******************************************************************************


 TOTAL NUMBERS AND MAXIMUM NUMBERS

  Total number of            - Atomic kinds:                                   2
                             - Atoms:                                        192
                             - Shell sets:                                   384
                             - Shells:                                       704
                             - Primitive Cartesian functions:                960
                             - Cartesian basis functions:                   1536
                             - Spherical basis functions:                   1472

  Maximum angular momentum of- Orbital basis functions:                        2
                             - Local part of the GTH pseudopotential:          2
                             - Non-local part of the GTH pseudopotential:      0


 SCF PARAMETERS         Density guess:                                    ATOMIC
                        --------------------------------------------------------
                        max_scf:                                             300
                        max_scf_history:                                       0
                        max_diis:                                              4
                        --------------------------------------------------------
                        eps_scf:                                        1.00E-07
                        eps_scf_history:                                0.00E+00
                        eps_diis:                                       1.00E-01
                        eps_eigval:                                     1.00E-05
                        --------------------------------------------------------
                        level_shift [a.u.]:                                 0.00
                        --------------------------------------------------------
                        Mixing method:                            BROYDEN_MIXING
                                                charge density mixing in g-space
                        --------------------------------------------------------
                        No outer SCF

 Number of electrons:                                                        512
 Number of occupied orbitals:                                                256
 Number of molecular orbitals:                                               256

 Number of orbital functions:                                               1472
 Number of independent orbital functions:                                   1472

 Extrapolation method: initial_guess


 SCF WAVEFUNCTION OPTIMIZATION

  Step     Update method      Time    Convergence         Total energy    Change
  ------------------------------------------------------------------------------
     1 NoMix/Diag. 0.40E+00   10.3     0.61743942     -1064.1524647106 -1.06E+03
     2 Broy./Diag. 0.40E+00   15.5     1.94233752      -996.3141686274  6.78E+01
     3 Broy./Diag. 0.40E+00   17.4     1.96372794     -1262.7449659651 -2.66E+02
     4 Broy./Diag. 0.40E+00   17.8     1.96356412     -1111.6053806290  1.51E+02
     5 Broy./Diag. 0.40E+00   18.0     2.09143196     -1101.3562573758  1.02E+01
     6 Broy./Diag. 0.40E+00   19.1     1.68167377     -1101.7056846483 -3.49E-01
     7 Broy./Diag. 0.40E+00   20.7     0.93552997     -1088.3483429169  1.34E+01
     8 Broy./Diag. 0.40E+00   20.7     1.49618827     -1083.4845870280  4.86E+00
     9 Broy./Diag. 0.40E+00   21.5     1.60279721     -1082.3547512301  1.13E+00
    10 Broy./Diag. 0.40E+00   25.1     1.09821578     -1079.2735562601  3.08E+00
    11 Broy./Diag. 0.40E+00   23.7     1.22835437     -1079.5086338753 -2.35E-01
    12 Broy./Diag. 0.40E+00   23.7     1.80287159     -1075.8591765500  3.65E+00
    13 Broy./Diag. 0.40E+00   23.4     1.26775901     -1079.2010309063 -3.34E+00
    14 Broy./Diag. 0.40E+00   24.8     0.09431171     -1076.6299887057  2.57E+00
    15 Broy./Diag. 0.40E+00   23.9     0.49837785     -1076.9763229972 -3.46E-01
    16 Broy./Diag. 0.40E+00   24.9     1.75081989     -1077.1221529202 -1.46E-01
    17 Broy./Diag. 0.40E+00   24.0     0.08034792     -1073.6033191601  3.52E+00
    18 Broy./Diag. 0.40E+00   25.2     0.74971528     -1075.7414043051 -2.14E+00
    19 Broy./Diag. 0.40E+00   25.0     0.78456541     -1076.4139754404 -6.73E-01
    20 Broy./Diag. 0.40E+00   23.3     1.47109410     -1074.5519844499  1.86E+00
    21 Broy./Diag. 0.40E+00   23.6     0.10668732     -1078.9430934806 -4.39E+00
    22 Broy./Diag. 0.40E+00   23.6     0.09912654     -1077.4361278273  1.51E+00
    23 Broy./Diag. 0.40E+00   24.5     1.47395566     -1078.2331415818 -7.97E-01
    24 Broy./Diag. 0.40E+00   24.1     1.13932121     -1077.5496746169  6.83E-01
    25 Broy./Diag. 0.40E+00   23.7     1.14057171     -1076.8107344952  7.39E-01
    26 Broy./Diag. 0.40E+00   23.2     1.36377664     -1076.2989170649  5.12E-01
    27 Broy./Diag. 0.40E+00   23.3     0.08605407     -1076.6662761182 -3.67E-01
    28 Broy./Diag. 0.40E+00   23.6     0.33062470     -1077.4870251529 -8.21E-01
    29 Broy./Diag. 0.40E+00   24.8     1.00407929     -1075.9629031482  1.52E+00
    30 Broy./Diag. 0.40E+00   23.9     1.54671219     -1075.7045653825  2.58E-01
    31 Broy./Diag. 0.40E+00   24.7     1.53335013     -1076.1907674272 -4.86E-01
    32 Broy./Diag. 0.40E+00   23.9     1.53790617     -1079.3083352107 -3.12E+00
    33 Broy./Diag. 0.40E+00   25.0     1.39328010     -1078.0005702447  1.31E+00
    34 Broy./Diag. 0.40E+00   23.8     1.81473148     -1077.5301404335  4.70E-01
    35 Broy./Diag. 0.40E+00   24.5     1.88500697     -1078.3838894079 -8.54E-01
    36 Broy./Diag. 0.40E+00   23.8     0.32685799     -1070.1472254723  8.24E+00
    37 Broy./Diag. 0.40E+00   24.6     1.63881122     -1075.7371470071 -5.59E+00
    38 Broy./Diag. 0.40E+00   24.0     1.63872018     -1077.6913503369 -1.95E+00
    39 Broy./Diag. 0.40E+00   24.0     1.66489669     -1075.4886346104  2.20E+00
    40 Broy./Diag. 0.40E+00   23.6     1.59369821     -1076.9957921569 -1.51E+00
    41 Broy./Diag. 0.40E+00   24.5     1.68526682     -1077.3872415581 -3.91E-01
    42 Broy./Diag. 0.40E+00   24.3     1.54783761     -1077.3613150425  2.59E-02
    43 Broy./Diag. 0.40E+00   22.7     1.49947662     -1074.8616283048  2.50E+00
    44 Broy./Diag. 0.40E+00   22.6     1.54483223     -1078.0307337099 -3.17E+00
    45 Broy./Diag. 0.40E+00   23.6     1.63568457     -1077.7281713469  3.03E-01
    46 Broy./Diag. 0.40E+00   23.5     1.37688009     -1076.7285189103  1.00E+00
    47 Broy./Diag. 0.40E+00   22.6     0.07830461     -1075.3508410731  1.38E+00
    48 Broy./Diag. 0.40E+00   22.2     1.66550259     -1075.2087534317  1.42E-01
    49 Broy./Diag. 0.40E+00   21.9     1.68218670     -1077.2507509163 -2.04E+00
    50 Broy./Diag. 0.40E+00   22.9     0.78170115     -1074.9678313039  2.28E+00
    51 Broy./Diag. 0.40E+00   23.7     1.53183173     -1077.4215477480 -2.45E+00
    52 Broy./Diag. 0.40E+00   23.3     1.81640884     -1077.4876356246 -6.61E-02
    53 Broy./Diag. 0.40E+00   23.2     1.81999730     -1077.3024903933  1.85E-01
    54 Broy./Diag. 0.40E+00   23.6     0.88388201     -1074.7610425978  2.54E+00
    55 Broy./Diag. 0.40E+00   23.5     0.89455021     -1077.5994913265 -2.84E+00
    56 Broy./Diag. 0.40E+00   23.4     0.18723679     -1075.0533661446  2.55E+00
    57 Broy./Diag. 0.40E+00   24.0     0.99369523     -1075.5211016674 -4.68E-01
    58 Broy./Diag. 0.40E+00   23.8     1.50117446     -1076.8612181020 -1.34E+00
    59 Broy./Diag. 0.40E+00   23.1     1.47648851     -1076.8448105441  1.64E-02
    60 Broy./Diag. 0.40E+00   23.9     1.64533230     -1074.9544617158  1.89E+00
    61 Broy./Diag. 0.40E+00   24.1     1.64746978     -1077.7577992659 -2.80E+00
    62 Broy./Diag. 0.40E+00   23.5     1.50572550     -1077.8453083197 -8.75E-02
    63 Broy./Diag. 0.40E+00   22.4     1.70083723     -1077.6014204044  2.44E-01
    64 Broy./Diag. 0.40E+00   24.2     1.70581524     -1077.1293986788  4.72E-01
    65 Broy./Diag. 0.40E+00   23.7     0.09467816     -1074.0653664218  3.06E+00
    66 Broy./Diag. 0.40E+00   22.2     0.04073314     -1075.7526631326 -1.69E+00
    67 Broy./Diag. 0.40E+00   24.3     1.57027431     -1074.9900238923  7.63E-01
    68 Broy./Diag. 0.40E+00   24.3     1.43519651     -1077.4381007815 -2.45E+00
    69 Broy./Diag. 0.40E+00   22.8     0.82584231     -1075.3945313873  2.04E+00
    70 Broy./Diag. 0.40E+00   24.1     1.70852431     -1077.3925044424 -2.00E+00
    71 Broy./Diag. 0.40E+00   24.0     1.14612005     -1077.3209542943  7.16E-02
    72 Broy./Diag. 0.40E+00   23.9     0.87340064     -1077.1513616206  1.70E-01
    73 Broy./Diag. 0.40E+00   24.2     0.92294062     -1077.1661419426 -1.48E-02
    74 Broy./Diag. 0.40E+00   24.8     0.10731373     -1074.7421075601  2.42E+00
    75 Broy./Diag. 0.40E+00   23.2     0.06953846     -1075.1522340642 -4.10E-01
    76 Broy./Diag. 0.40E+00   24.1     1.50111431     -1075.1644671193 -1.22E-02
    77 Broy./Diag. 0.40E+00   24.4     1.80301758     -1077.2731739084 -2.11E+00
    78 Broy./Diag. 0.40E+00   24.1     1.77760318     -1077.2295533397  4.36E-02
    79 Broy./Diag. 0.40E+00   24.3     1.72048802     -1077.2152157342  1.43E-02
    80 Broy./Diag. 0.40E+00   24.4     0.05509129     -1074.9264112968  2.29E+00
    81 Broy./Diag. 0.40E+00   24.0     0.77505081     -1075.0480372997 -1.22E-01
    82 Broy./Diag. 0.40E+00   24.2     0.79543528     -1077.4208087958 -2.37E+00
    83 Broy./Diag. 0.40E+00   24.1     1.22572662     -1075.1447706480  2.28E+00
    84 Broy./Diag. 0.40E+00   24.3     1.61965186     -1077.4213309484 -2.28E+00
    85 Broy./Diag. 0.40E+00   21.9     1.32268721     -1077.3648608378  5.65E-02
    86 Broy./Diag. 0.40E+00   22.6     1.53635866     -1074.9188903836  2.45E+00
    87 Broy./Diag. 0.40E+00   22.0     1.65001363     -1077.6854920725 -2.77E+00
    88 Broy./Diag. 0.40E+00   21.2     1.65209227     -1077.4358977252  2.50E-01
    89 Broy./Diag. 0.40E+00   23.6     1.75380756     -1075.0039306242  2.43E+00
    90 Broy./Diag. 0.40E+00   23.9     1.75236615     -1077.0487796906 -2.04E+00
    91 Broy./Diag. 0.40E+00   24.2     0.90239944     -1074.9854000937  2.06E+00
    92 Broy./Diag. 0.40E+00   24.1     0.89584117     -1077.5321207999 -2.55E+00
    93 Broy./Diag. 0.40E+00   24.1     1.76554696     -1075.1538023544  2.38E+00
    94 Broy./Diag. 0.40E+00   24.1     1.09891758     -1077.3868240339 -2.23E+00
    95 Broy./Diag. 0.40E+00   24.2     1.05093237     -1077.3211976129  6.56E-02
    96 Broy./Diag. 0.40E+00   24.1     1.52621592     -1077.2022199847  1.19E-01
    97 Broy./Diag. 0.40E+00   24.2     1.56349144     -1077.1352579348  6.70E-02
    98 Broy./Diag. 0.40E+00   24.0     1.47808558     -1076.8959842867  2.39E-01
    99 Broy./Diag. 0.40E+00   24.2     0.15350869     -1074.8191997871  2.08E+00
   100 Broy./Diag. 0.40E+00   24.2     0.12970575     -1074.8552912534 -3.61E-02
   101 Broy./Diag. 0.40E+00   24.2     0.98887480     -1075.3065261578 -4.51E-01
   102 Broy./Diag. 0.40E+00   24.2     0.99520506     -1076.9101780292 -1.60E+00
   103 Broy./Diag. 0.40E+00   23.9     0.95323473     -1074.8619725751  2.05E+00
   104 Broy./Diag. 0.40E+00   23.9     0.95615166     -1077.4176324019 -2.56E+00
   105 Broy./Diag. 0.40E+00   24.1     1.72102418     -1077.4253765179 -7.74E-03
   106 Broy./Diag. 0.40E+00   24.2     1.54535898     -1075.0554479869  2.37E+00
   107 Broy./Diag. 0.40E+00   24.3     1.54313339     -1077.3661657039 -2.31E+00
   108 Broy./Diag. 0.40E+00   24.0     0.77894183     -1074.8570460994  2.51E+00
   109 Broy./Diag. 0.40E+00   24.3     1.71592256     -1077.5599799478 -2.70E+00
   110 Broy./Diag. 0.40E+00   24.1     1.71682042     -1077.3888891905  1.71E-01
   111 Broy./Diag. 0.40E+00   23.9     0.91874984     -1077.2882066628  1.01E-01
   112 Broy./Diag. 0.40E+00   24.1     0.21199823     -1074.8356067664  2.45E+00
   113 Broy./Diag. 0.40E+00   22.4     0.86252453     -1075.0808615465 -2.45E-01
   114 Broy./Diag. 0.40E+00   23.3     1.05943193     -1077.4265597640 -2.35E+00
   115 Broy./Diag. 0.40E+00   23.6     1.71978880     -1078.9744822074 -1.55E+00
   116 Broy./Diag. 0.40E+00   22.9     1.62559264     -1077.3495671678  1.62E+00
   117 Broy./Diag. 0.40E+00   21.1     0.13533030     -1075.0212751631  2.33E+00
   118 Broy./Diag. 0.40E+00   23.6     0.77034960     -1074.9202601328  1.01E-01
   119 Broy./Diag. 0.40E+00   23.2     1.81023648     -1077.4314486854 -2.51E+00
   120 Broy./Diag. 0.40E+00   23.9     1.81262199     -1077.3272728240  1.04E-01
   121 Broy./Diag. 0.40E+00   24.1     1.54485241     -1077.3597735970 -3.25E-02
   122 Broy./Diag. 0.40E+00   23.2     0.98301293     -1074.8260387733  2.53E+00
   123 Broy./Diag. 0.40E+00   23.4     0.96133908     -1077.4486725677 -2.62E+00
   124 Broy./Diag. 0.40E+00   24.0     0.91442857     -1075.1127526352  2.34E+00
   125 Broy./Diag. 0.40E+00   22.4     1.82177734     -1077.1952778604 -2.08E+00
   126 Broy./Diag. 0.40E+00   23.0     1.83176855     -1078.6278980871 -1.43E+00
   127 Broy./Diag. 0.40E+00   23.9     1.23177409     -1076.9784985904  1.65E+00
   128 Broy./Diag. 0.40E+00   24.6     1.09036223     -1076.7312098890  2.47E-01
   129 Broy./Diag. 0.40E+00   24.5     0.08101626     -1074.7897678094  1.94E+00
   130 Broy./Diag. 0.40E+00   23.7     1.53081357     -1075.0291844787 -2.39E-01
   131 Broy./Diag. 0.40E+00   22.6     1.53687323     -1077.5760112593 -2.55E+00
   132 Broy./Diag. 0.40E+00   21.9     1.51656718     -1077.3628135847  2.13E-01
   133 Broy./Diag. 0.40E+00   23.9     1.52187922     -1077.1504062210  2.12E-01
   134 Broy./Diag. 0.40E+00   23.0     1.68820183     -1074.9570019718  2.19E+00
   135 Broy./Diag. 0.40E+00   23.7     0.63016256     -1077.3748115537 -2.42E+00
   136 Broy./Diag. 0.40E+00   23.9     1.29627949     -1076.8878529171  4.87E-01
   137 Broy./Diag. 0.40E+00   23.4     1.67246413     -1074.9503429262  1.94E+00
   138 Broy./Diag. 0.40E+00   24.1     1.66964767     -1077.4275209748 -2.48E+00
   139 Broy./Diag. 0.40E+00   24.3     0.88726057     -1074.9243301471  2.50E+00
   140 Broy./Diag. 0.40E+00   25.2     1.52940723     -1077.2258133315 -2.30E+00
   141 Broy./Diag. 0.40E+00   23.7     1.55568911     -1077.2795575399 -5.37E-02
   142 Broy./Diag. 0.40E+00   23.8     1.59650389     -1075.0714722733  2.21E+00
   143 Broy./Diag. 0.40E+00   23.9     1.74997428     -1077.6182152447 -2.55E+00
   144 Broy./Diag. 0.40E+00   23.8     1.41062737     -1077.0766605382  5.42E-01
   145 Broy./Diag. 0.40E+00   25.0     0.79650348     -1077.2637847356 -1.87E-01
   146 Broy./Diag. 0.40E+00   24.3     1.03012221     -1074.7961544435  2.47E+00
   147 Broy./Diag. 0.40E+00   23.8     1.56963837     -1077.4346851017 -2.64E+00
   148 Broy./Diag. 0.40E+00   23.7     1.48286955     -1077.4058635998  2.88E-02
   149 Broy./Diag. 0.40E+00   24.4     1.27810599     -1075.2300582651  2.18E+00
   150 Broy./Diag. 0.40E+00   24.5     1.53696455     -1076.7071353880 -1.48E+00
   151 Broy./Diag. 0.40E+00   24.0     1.55362390     -1077.4384502623 -7.31E-01
   152 Broy./Diag. 0.40E+00   24.1     0.27031237     -1074.7811610947  2.66E+00
   153 Broy./Diag. 0.40E+00   23.8     1.29362201     -1075.6609106339 -8.80E-01
   154 Broy./Diag. 0.40E+00   23.4     1.54612567     -1077.2346893855 -1.57E+00
   155 Broy./Diag. 0.40E+00   23.7     1.76584917     -1075.1449424802  2.09E+00
   156 Broy./Diag. 0.40E+00   24.0     1.77312017     -1077.3053515822 -2.16E+00
   157 Broy./Diag. 0.40E+00   23.7     1.15564619     -1077.2904162732  1.49E-02
   158 Broy./Diag. 0.40E+00   23.8     1.15889771     -1076.8151503030  4.75E-01
   159 Broy./Diag. 0.40E+00   23.8     0.92989447     -1077.1974883838 -3.82E-01
   160 Broy./Diag. 0.40E+00   23.8     0.10693507     -1074.9120383646  2.29E+00
   161 Broy./Diag. 0.40E+00   23.4     0.08166528     -1075.2889899717 -3.77E-01
   162 Broy./Diag. 0.40E+00   23.6     1.51625291     -1075.1519689606  1.37E-01
   163 Broy./Diag. 0.40E+00   24.9     1.52924855     -1077.3277786058 -2.18E+00
   164 Broy./Diag. 0.40E+00   24.2     1.28261993     -1077.2528909843  7.49E-02
   165 Broy./Diag. 0.40E+00   23.9     1.72798654     -1077.2284798358  2.44E-02
   166 Broy./Diag. 0.40E+00   23.2     0.78164472     -1074.8564684914  2.37E+00
   167 Broy./Diag. 0.40E+00   21.1     1.61233831     -1077.6601191134 -2.80E+00
   168 Broy./Diag. 0.40E+00   23.4     1.61643916     -1077.5031941702  1.57E-01
   169 Broy./Diag. 0.40E+00   23.8     0.07807340     -1075.0868344940  2.42E+00
   170 Broy./Diag. 0.40E+00   23.8     1.03450587     -1074.6519698028  4.35E-01
   171 Broy./Diag. 0.40E+00   24.1     1.03512998     -1077.3598780680 -2.71E+00
   172 Broy./Diag. 0.40E+00   24.5     1.53427627     -1075.0432456429  2.32E+00
   173 Broy./Diag. 0.40E+00   24.3     1.53778109     -1077.4709255678 -2.43E+00
   174 Broy./Diag. 0.40E+00   25.0     0.99613890     -1077.0403835034  4.31E-01
   175 Broy./Diag. 0.40E+00   24.0     0.03673876     -1074.8992860793  2.14E+00
   176 Broy./Diag. 0.40E+00   23.8     0.77831743     -1075.0168873626 -1.18E-01
   177 Broy./Diag. 0.40E+00   23.7     0.79233320     -1077.4216567946 -2.40E+00
   178 Broy./Diag. 0.40E+00   23.0     1.77255784     -1075.0036326154  2.42E+00
   179 Broy./Diag. 0.40E+00   22.8     0.71753654     -1077.3630934174 -2.36E+00
   180 Broy./Diag. 0.40E+00   24.5     1.16328305     -1077.4269242981 -6.38E-02
   181 Broy./Diag. 0.40E+00   24.1     0.90313526     -1077.3077477830  1.19E-01
   182 Broy./Diag. 0.40E+00   24.8     1.52233020     -1074.9229312518  2.38E+00
   183 Broy./Diag. 0.40E+00   24.0     1.82369064     -1077.6097548692 -2.69E+00
   184 Broy./Diag. 0.40E+00   24.3     1.18919282     -1078.8927971437 -1.28E+00
   185 Broy./Diag. 0.40E+00   24.3     1.13328895     -1077.2901462921  1.60E+00
   186 Broy./Diag. 0.40E+00   24.2     0.78342160     -1074.9347066214  2.36E+00
   187 Broy./Diag. 0.40E+00   23.8     0.80718616     -1077.1286843720 -2.19E+00
   188 Broy./Diag. 0.40E+00   24.0     1.50218892     -1074.9446548094  2.18E+00
   189 Broy./Diag. 0.40E+00   24.2     1.57977341     -1077.6428144729 -2.70E+00
   190 Broy./Diag. 0.40E+00   24.1     1.82386146     -1077.6391230551  3.69E-03
   191 Broy./Diag. 0.40E+00   24.1     1.15574285     -1075.0788248905  2.56E+00
   192 Broy./Diag. 0.40E+00   23.8     1.52734003     -1076.8894574490 -1.81E+00
   193 Broy./Diag. 0.40E+00   22.7     1.54770067     -1077.4352053685 -5.46E-01
   194 Broy./Diag. 0.40E+00   24.6     0.10418352     -1074.7761448952  2.66E+00
   195 Broy./Diag. 0.40E+00   21.8     1.45953336     -1074.9102232548 -1.34E-01
   196 Broy./Diag. 0.40E+00   22.5     1.46858482     -1077.4571264882 -2.55E+00
   197 Broy./Diag. 0.40E+00   23.4     0.82000596     -1077.5786589566 -1.22E-01
   198 Broy./Diag. 0.40E+00   24.2     0.22065233     -1075.1118675914  2.47E+00
   199 Broy./Diag. 0.40E+00   25.1     1.27715814     -1074.4710343926  6.41E-01
   200 Broy./Diag. 0.40E+00   23.0     1.39305179     -1077.3801057017 -2.91E+00
   201 Broy./Diag. 0.40E+00   24.5     1.52323954     -1077.3278735800  5.22E-02
   202 Broy./Diag. 0.40E+00   24.9     1.71764372     -1077.4435318680 -1.16E-01
   203 Broy./Diag. 0.40E+00   24.3     1.55786087     -1077.3842657723  5.93E-02
   204 Broy./Diag. 0.40E+00   23.8     0.10065743     -1074.7243454318  2.66E+00
   205 Broy./Diag. 0.40E+00   23.5     1.24935499     -1075.0272323095 -3.03E-01
   206 Broy./Diag. 0.40E+00   23.9     1.26800192     -1077.2011600329 -2.17E+00
   207 Broy./Diag. 0.40E+00   24.2     1.36625911     -1075.1881066790  2.01E+00
   208 Broy./Diag. 0.40E+00   23.9     1.39737062     -1077.0537310399 -1.87E+00
   209 Broy./Diag. 0.40E+00   23.8     0.76707887     -1075.1578341734  1.90E+00
   210 Broy./Diag. 0.40E+00   23.2     0.78336271     -1077.1052631289 -1.95E+00
   211 Broy./Diag. 0.40E+00   24.4     1.70581295     -1074.7430318169  2.36E+00
   212 Broy./Diag. 0.40E+00   23.1     1.71166449     -1077.9391894402 -3.20E+00
   213 Broy./Diag. 0.40E+00   24.1     1.50366493     -1077.9801851431 -4.10E-02
   214 Broy./Diag. 0.40E+00   24.8     1.56931360     -1077.7690517729  2.11E-01
   215 Broy./Diag. 0.40E+00   23.8     1.11905147     -1076.9253386744  8.44E-01
   216 Broy./Diag. 0.40E+00   23.6     0.05549492     -1074.7101012362  2.22E+00
   217 Broy./Diag. 0.40E+00   23.3     1.16229781     -1074.7940909751 -8.40E-02
   218 Broy./Diag. 0.40E+00   24.1     1.15579270     -1077.2195214091 -2.43E+00
   219 Broy./Diag. 0.40E+00   24.1     1.52250190     -1074.8724893841  2.35E+00
   220 Broy./Diag. 0.40E+00   23.7     1.52645032     -1077.2711137515 -2.40E+00
   221 Broy./Diag. 0.40E+00   24.2     1.63588338     -1075.1711257106  2.10E+00
   222 Broy./Diag. 0.40E+00   24.1     1.68627433     -1077.1866745655 -2.02E+00
   223 Broy./Diag. 0.40E+00   24.0     0.76493257     -1075.1944682052  1.99E+00
   224 Broy./Diag. 0.40E+00   24.1     1.50932638     -1077.5460164872 -2.35E+00
   225 Broy./Diag. 0.40E+00   24.1     1.50551187     -1077.4239127646  1.22E-01
   226 Broy./Diag. 0.40E+00   25.1     1.34060895     -1077.4830113645 -5.91E-02
   227 Broy./Diag. 0.40E+00   24.0     1.34422564     -1077.2430654935  2.40E-01
   228 Broy./Diag. 0.40E+00   24.3     1.51001364     -1074.9353199976  2.31E+00
   229 Broy./Diag. 0.40E+00   24.4     1.52558469     -1077.5702897665 -2.63E+00
   230 Broy./Diag. 0.40E+00   24.6     1.78993775     -1075.5796129281  1.99E+00
   231 Broy./Diag. 0.40E+00   21.8     1.72749343     -1077.0150374839 -1.44E+00
   232 Broy./Diag. 0.40E+00   24.0     1.80575168     -1078.5437506604 -1.53E+00
   233 Broy./Diag. 0.40E+00   23.9     1.72269936     -1077.0615369280  1.48E+00
   234 Broy./Diag. 0.40E+00   24.5     0.83143576     -1077.1728340266 -1.11E-01
   235 Broy./Diag. 0.40E+00   24.1     1.53832804     -1074.5961834847  2.58E+00
   236 Broy./Diag. 0.40E+00   23.9     1.53330576     -1077.6038929737 -3.01E+00
   237 Broy./Diag. 0.40E+00   23.0     1.51039462     -1074.8660307347  2.74E+00
   238 Broy./Diag. 0.40E+00   21.8     1.52061953     -1077.2576592265 -2.39E+00
   239 Broy./Diag. 0.40E+00   21.5     1.80793875     -1074.9125960178  2.35E+00
   240 Broy./Diag. 0.40E+00   23.6     1.80878749     -1077.0678386039 -2.16E+00
   241 Broy./Diag. 0.40E+00   24.2     1.75912290     -1074.7836417666  2.28E+00
   242 Broy./Diag. 0.40E+00   25.0     1.21175443     -1077.5279193878 -2.74E+00
   243 Broy./Diag. 0.40E+00   23.9     0.97738958     -1077.4639690831  6.40E-02
   244 Broy./Diag. 0.40E+00   24.4     1.53462140     -1077.4431758917  2.08E-02
   245 Broy./Diag. 0.40E+00   22.3     1.54665751     -1077.0239487252  4.19E-01
   246 Broy./Diag. 0.40E+00   22.7     0.10691949     -1075.0229333700  2.00E+00
   247 Broy./Diag. 0.40E+00   23.5     1.52288977     -1074.6931963529  3.30E-01
   248 Broy./Diag. 0.40E+00   23.5     1.52451480     -1077.4711316235 -2.78E+00
   249 Broy./Diag. 0.40E+00   23.5     0.88207122     -1075.0105293711  2.46E+00
   250 Broy./Diag. 0.40E+00   23.9     1.60831848     -1077.2547888506 -2.24E+00
   251 Broy./Diag. 0.40E+00   24.5     1.61789370     -1077.2673024334 -1.25E-02
   252 Broy./Diag. 0.40E+00   23.9     1.07827794     -1074.8646834144  2.40E+00
   253 Broy./Diag. 0.40E+00   24.2     1.16916542     -1077.5390005645 -2.67E+00
   254 Broy./Diag. 0.40E+00   24.2     0.72266532     -1076.4105867990  1.13E+00
   255 Broy./Diag. 0.40E+00   24.7     1.13553843     -1074.8328722411  1.58E+00
   256 Broy./Diag. 0.40E+00   24.9     1.14884324     -1077.2532196002 -2.42E+00
   257 Broy./Diag. 0.40E+00   23.3     1.52105647     -1075.1253810563  2.13E+00
   258 Broy./Diag. 0.40E+00   24.1     1.81875567     -1077.3069223928 -2.18E+00
   259 Broy./Diag. 0.40E+00   24.0     1.77642651     -1077.1433309520  1.64E-01
   260 Broy./Diag. 0.40E+00   25.2     1.61770848     -1077.1199122517  2.34E-02
   261 Broy./Diag. 0.40E+00   23.7     0.81703960     -1078.1296608182 -1.01E+00
   262 Broy./Diag. 0.40E+00   23.8     0.21805934     -1075.5049367168  2.62E+00
   263 Broy./Diag. 0.40E+00   24.9     1.50899850     -1074.1128516602  1.39E+00
   264 Broy./Diag. 0.40E+00   23.9     1.30917935     -1077.2109155206 -3.10E+00
   265 Broy./Diag. 0.40E+00   23.9     0.87331989     -1075.3932434387  1.82E+00
   266 Broy./Diag. 0.40E+00   23.9     1.06286117     -1077.3074193161 -1.91E+00
   267 Broy./Diag. 0.40E+00   24.5     1.52372559     -1077.2808948550  2.65E-02
   268 Broy./Diag. 0.40E+00   24.4     1.55442928     -1077.1860276988  9.49E-02
   269 Broy./Diag. 0.40E+00   24.8     1.55865319     -1074.6783306848  2.51E+00
   270 Broy./Diag. 0.40E+00   23.6     1.55709821     -1077.6174706388 -2.94E+00
   271 Broy./Diag. 0.40E+00   23.9     0.81332647     -1077.5539749820  6.35E-02
   272 Broy./Diag. 0.40E+00   25.2     0.09379646     -1074.8404698541  2.71E+00
   273 Broy./Diag. 0.40E+00   24.2     1.82238599     -1075.2306051982 -3.90E-01
   274 Broy./Diag. 0.40E+00   24.9     1.60548578     -1078.5225855308 -3.29E+00
   275 Broy./Diag. 0.40E+00   21.7     1.53210654     -1077.1373891700  1.39E+00
   276 Broy./Diag. 0.40E+00   23.8     1.44560085     -1074.8024570219  2.33E+00
   277 Broy./Diag. 0.40E+00   23.6     1.53789386     -1077.5697685911 -2.77E+00
   278 Broy./Diag. 0.40E+00   23.0     1.78359400     -1077.5185781042  5.12E-02
   279 Broy./Diag. 0.40E+00   24.6     1.76592032     -1077.2212170296  2.97E-01
   280 Broy./Diag. 0.40E+00   25.6     0.79290445     -1075.0714532966  2.15E+00
   281 Broy./Diag. 0.40E+00   24.0     1.44933607     -1077.4914557131 -2.42E+00
   282 Broy./Diag. 0.40E+00   24.6     1.45180648     -1077.2757733304  2.16E-01
   283 Broy./Diag. 0.40E+00   21.9     0.15334919     -1075.2607938824  2.01E+00
   284 Broy./Diag. 0.40E+00   22.8     0.10213714     -1074.4481881282  8.13E-01
   285 Broy./Diag. 0.40E+00   23.8     0.03052999     -1075.0031690918 -5.55E-01
   286 Broy./Diag. 0.40E+00   23.9     0.94673822     -1074.9207685134  8.24E-02
   287 Broy./Diag. 0.40E+00   24.8     1.53138391     -1077.3670870519 -2.45E+00
   288 Broy./Diag. 0.40E+00   25.1     1.79207903     -1077.4630025498 -9.59E-02
   289 Broy./Diag. 0.40E+00   24.0     1.79427924     -1077.1722795577  2.91E-01
   290 Broy./Diag. 0.40E+00   25.2     1.41331634     -1074.8308843751  2.34E+00
   291 Broy./Diag. 0.40E+00   23.9     1.41884820     -1077.4500389109 -2.62E+00
   292 Broy./Diag. 0.40E+00   24.2     0.03148059     -1074.9030766796  2.55E+00
   293 Broy./Diag. 0.40E+00   24.4     1.56956110     -1074.8877582500  1.53E-02
   294 Broy./Diag. 0.40E+00   24.8     1.57448377     -1077.3584583521 -2.47E+00
   295 Broy./Diag. 0.40E+00   22.8     0.79172943     -1077.3124890211  4.60E-02
   296 Broy./Diag. 0.40E+00   22.1     0.87842282     -1074.8907394860  2.42E+00
   297 Broy./Diag. 0.40E+00   24.3     0.89156508     -1077.3811142700 -2.49E+00
   298 Broy./Diag. 0.40E+00   22.4     1.68427956     -1075.1966172412  2.18E+00
   299 Broy./Diag. 0.40E+00   23.0     0.74858918     -1077.3376027972 -2.14E+00
   300 Broy./Diag. 0.40E+00   23.4     0.92752987     -1077.5434650413 -2.06E-01

  Leaving inner SCF loop after reaching   300 steps.


  Electronic density on regular grids:       -512.0002060982       -0.0002060982
  Core density on regular grids:              511.9997755861       -0.0002244139
  Total charge density on r-space grids:       -0.0004305121
  Total charge density g-space grids:          -0.0004305121

  Overlap energy of the core charge distribution:               0.00000000000000
  Self energy of the core charge distribution:              -2838.21791979120962
  Core Hamiltonian energy:                                    758.34512333089901
  Hartree energy:                                            1240.93135689089399
  Exchange-correlation energy:                               -238.60202547191906

  Total energy:                                             -1077.54346504133537

 *** WARNING in qs_scf.F:542 :: SCF run NOT converged ***


 ENERGY| Total FORCE_EVAL ( QS ) energy (a.u.):            -1071.936740354086851


 ATOMIC FORCES in [a.u.]

 # Atom   Kind   Element          X              Y              Z
      1      1      O           0.02052694    -0.06314586     0.07431298
      2      2      H          -0.07450283    -0.00583558    -0.01392729
      3      2      H           0.05226786     0.04610375    -0.06804478
      4      1      O           0.04181833     0.11952909     0.06502736
      5      2      H          -0.02973410    -0.01676742    -0.08005787
      6      2      H           0.00593084    -0.04812589     0.03960417
      7      1      O          -0.00407758     0.05197024     0.06558039
      8      2      H           0.05253978    -0.01944386     0.03672263
      9      2      H          -0.03419802    -0.07518553    -0.03419756
     10      1      O           0.08337539    -0.01410523     0.07919661
     11      2      H          -0.02386802    -0.00414040    -0.04594190
     12      2      H          -0.04341252    -0.05569426     0.04761507
     13      1      O           0.04745250    -0.05245638     0.04112715
     14      2      H          -0.02441561     0.00324727     0.06030745
     15      2      H          -0.03896967     0.02214364    -0.02749948
     16      1      O           0.02950897    -0.08732474    -0.16406208
     17      2      H           0.04452074     0.03041683     0.03391081
     18      2      H          -0.06994121    -0.03102733    -0.01453976
     19      1      O          -0.06952807     0.02332451     0.02748521
     20      2      H           0.06178863    -0.01231877     0.07802792
     21      2      H           0.00991848    -0.09055443     0.00250653
     22      1      O          -0.05916472     0.09138826    -0.04139483
     23      2      H           0.04903879    -0.07274737     0.02827489
     24      2      H          -0.00063350    -0.02104510    -0.04275270
     25      1      O           0.00591449    -0.08496738    -0.00799158
     26      2      H          -0.03609185     0.07439366    -0.03021127
     27      2      H          -0.02238311    -0.05205076    -0.04176590
     28      1      O          -0.03493534     0.08350266     0.00857904
     29      2      H          -0.00323430     0.02230628    -0.04363270
     30      2      H           0.02036966     0.02406244    -0.01837068
     31      1      O          -0.05577133    -0.05277053    -0.11523083
     32      2      H          -0.02515406     0.05195994     0.04231343
     33      2      H           0.03110576    -0.07143579     0.03407383
     34      1      O           0.04868613     0.06934348    -0.16463272
     35      2      H          -0.06388341     0.01897319     0.01370747
     36      2      H           0.02640021    -0.06676782     0.05735777
     37      1      O           0.07203062    -0.00991956    -0.01189371
     38      2      H          -0.01057358     0.03873965     0.00011337
     39      2      H          -0.04394596    -0.00537150     0.03476961
     40      1      O           0.05487315    -0.00801754     0.12093188
     41      2      H          -0.06667342     0.01883970    -0.00236009
     42      2      H           0.00098017    -0.09977413    -0.00353325
     43      1      O           0.01608476     0.03354073    -0.14513447
     44      2      H          -0.07850271     0.01844870     0.06919799
     45      2      H           0.02595442    -0.03400417     0.02261233
     46      1      O          -0.07087427    -0.03383285     0.03803136
     47      2      H          -0.00707190     0.00281204    -0.03070868
     48      2      H           0.07838048     0.01336605    -0.02068762
     49      1      O          -0.02720591     0.00724423    -0.06841242
     50      2      H          -0.05617449     0.02387939    -0.07071565
     51      2      H           0.07856375     0.00534215     0.00455887
     52      1      O          -0.03738101    -0.03960286     0.05093376
     53      2      H           0.03141735    -0.04111743    -0.03631458
     54      2      H          -0.00966548    -0.02938754     0.09015926
     55      1      O           0.04568859     0.00168452     0.02251890
     56      2      H          -0.07473469     0.05886177    -0.02152222
     57      2      H           0.04487313     0.03561918     0.03565912
     58      1      O           0.04250475     0.06463365    -0.10113364
     59      2      H           0.00246342    -0.02433113     0.03504407
     60      2      H          -0.00294321    -0.00604874     0.04910750
     61      1      O           0.03484795    -0.04497171     0.09293463
     62      2      H          -0.03104641    -0.02421156    -0.07917608
     63      2      H          -0.04621859     0.05425251    -0.00326391
     64      1      O           0.05005133     0.02387200    -0.05869484
     65      2      H           0.03179259    -0.03615517    -0.06998393
     66      2      H          -0.02870539    -0.04231803     0.06611648
     67      1      O          -0.07862667     0.11353144    -0.08509266
     68      2      H           0.00004944    -0.02951030     0.03301505
     69      2      H           0.06689034    -0.00495320    -0.05091369
     70      1      O           0.06478748    -0.03261261     0.01013319
     71      2      H          -0.04206350     0.07879115    -0.01584064
     72      2      H          -0.03163369    -0.09862177    -0.01232724
     73      1      O           0.06574108     0.03270093     0.10969760
     74      2      H           0.01428508     0.03829280    -0.01811336
     75      2      H          -0.03195916    -0.04825920    -0.07413541
     76      1      O          -0.00924824     0.05081762     0.12940860
     77      2      H           0.08319242     0.01268282     0.02720252
     78      2      H          -0.04968446    -0.04686096    -0.02543663
     79      1      O           0.07767776     0.02054927    -0.06512912
     80      2      H          -0.02273879    -0.02930612     0.10211978
     81      2      H          -0.02027586    -0.02185223    -0.03822466
     82      1      O           0.04036492     0.13282236     0.03400546
     83      2      H          -0.00215701    -0.02630465     0.10422775
     84      2      H          -0.07743627    -0.05125198    -0.03683693
     85      1      O           0.08557263     0.04864554    -0.06687048
     86      2      H          -0.01241866     0.02771237    -0.02150181
     87      2      H          -0.03088237    -0.02860478     0.04503671
     88      1      O           0.02676112    -0.10500495    -0.02952492
     89      2      H          -0.06974243    -0.02393829     0.01936522
     90      2      H           0.04241530     0.08501207     0.03276751
     91      1      O          -0.05417086     0.00674416    -0.01953849
     92      2      H          -0.01781028     0.07929330    -0.04585486
     93      2      H           0.01517610    -0.04384676    -0.04616508
     94      1      O           0.03871321    -0.03486600     0.06572152
     95      2      H           0.01370748     0.02516931    -0.00402625
     96      2      H          -0.04581078    -0.01624343    -0.06199866
     97      1      O          -0.01568964     0.03865307    -0.11826575
     98      2      H          -0.07322118    -0.06317225    -0.06705383
     99      2      H           0.07547612    -0.06743303    -0.00491516
    100      1      O           0.01131226    -0.00817311     0.01911522
    101      2      H           0.00883968     0.08694221    -0.05671309
    102      2      H          -0.02738371    -0.04323144     0.04397401
    103      1      O           0.01387795     0.03819605     0.01929438
    104      2      H          -0.00400415    -0.05133258     0.03997388
    105      2      H          -0.01189281     0.01281082     0.08697152
    106      1      O          -0.01827578     0.11436649    -0.06077606
    107      2      H           0.08116027    -0.04832730     0.02700326
    108      2      H          -0.07523402    -0.02058763    -0.06230233
    109      1      O           0.01928251    -0.01366212     0.00113885
    110      2      H          -0.00496586     0.05995629     0.10059681
    111      2      H           0.01804381    -0.07542677     0.00162031
    112      1      O          -0.06377076    -0.05266165     0.01357376
    113      2      H           0.03885433    -0.05371807     0.03321413
    114      2      H          -0.02551150     0.06853070    -0.00580192
    115      1      O           0.04635245     0.00140784    -0.03020128
    116      2      H          -0.09668115    -0.01752790     0.02841964
    117      2      H           0.03497556     0.04273852    -0.09941362
    118      1      O           0.03557316     0.08664475    -0.11905064
    119      2      H           0.01963638    -0.04656047     0.02934083
    120      2      H          -0.06949419     0.03946273     0.04794548
    121      1      O           0.00732744     0.00470216     0.11733609
    122      2      H          -0.00271672     0.08254931     0.01282925
    123      2      H           0.00196757    -0.05984026    -0.03471680
    124      1      O          -0.01372078     0.03803392    -0.00996642
    125      2      H           0.05612072    -0.06435511     0.05141862
    126      2      H          -0.07336870    -0.06072105    -0.03561071
    127      1      O          -0.03481299    -0.00124818    -0.05318721
    128      2      H           0.08321501    -0.01846294     0.02858489
    129      2      H          -0.03135383    -0.06183149    -0.06554613
    130      1      O          -0.06399870    -0.04857963     0.07936570
    131      2      H          -0.00359830    -0.02119248    -0.11120816
    132      2      H           0.08614432     0.04613107     0.03483885
    133      1      O          -0.03448341    -0.06027851     0.03148412
    134      2      H           0.03267935     0.03189367    -0.04821389
    135      2      H          -0.01749890     0.03131624     0.07106326
    136      1      O           0.04209406    -0.02852720     0.11930899
    137      2      H          -0.06401773    -0.01651399     0.01674198
    138      2      H           0.00222651     0.05418786    -0.05253805
    139      1      O           0.09108408     0.03016879     0.14519176
    140      2      H          -0.03639628    -0.09306126     0.01451409
    141      2      H          -0.02912485     0.04034557    -0.01696392
    142      1      O           0.00273987     0.02416475    -0.04673571
    143      2      H           0.05201471    -0.03271046     0.05365398
    144      2      H          -0.08699426     0.00642611    -0.01882641
    145      1      O          -0.05438868     0.01838371    -0.09320942
    146      2      H           0.04948759    -0.05453699    -0.03159433
    147      2      H          -0.00464977    -0.02290543     0.03413781
    148      1      O           0.08837257    -0.12226687    -0.12289984
    149      2      H          -0.01303335     0.07722684    -0.00192831
    150      2      H          -0.04347978    -0.02020633     0.09874784
    151      1      O          -0.27244598     0.00476698    -0.02654963
    152      2      H           0.01023482    -0.05963414    -0.00819204
    153      2      H           0.28192837    -0.02739287     0.09964918
    154      1      O           0.02488039     0.07484715     0.10147590
    155      2      H           0.02653923    -0.01781740    -0.09079778
    156      2      H          -0.06015848    -0.02291675     0.07200360
    157      1      O          -0.05760619    -0.08688380     0.07837388
    158      2      H           0.03594967     0.00219839    -0.07764539
    159      2      H           0.04181109     0.02907357     0.06539446
    160      1      O           0.09500980    -0.03599967    -0.12778008
    161      2      H          -0.00939950     0.06565145     0.01590071
    162      2      H          -0.05517105    -0.02400689    -0.00920785
    163      1      O          -0.04548369    -0.02024468    -0.14702168
    164      2      H           0.03149122     0.05801903     0.04526778
    165      2      H          -0.02784226    -0.02599967     0.06769430
    166      1      O          -0.06220225     0.04338850    -0.05977244
    167      2      H           0.01482276     0.00611982     0.06357203
    168      2      H           0.03080501    -0.06042802     0.02028086
    169      1      O           0.02237746    -0.01105032     0.01206204
    170      2      H          -0.05856403    -0.02595552    -0.00268301
    171      2      H           0.02635510     0.02007431    -0.02058790
    172      1      O          -0.05610698    -0.02630055    -0.02948667
    173      2      H           0.05796372     0.06847793    -0.06993841
    174      2      H           0.00254986    -0.10205286    -0.06215684
    175      1      O           0.11373380    -0.06365397    -0.03049247
    176      2      H          -0.04580099     0.01522450     0.01688492
    177      2      H          -0.04984255    -0.05066139    -0.00976324
    178      1      O           0.02422180     0.13721485     0.02192517
    179      2      H           0.01926797    -0.02093127     0.09352533
    180      2      H          -0.07386622    -0.03571973     0.02542762
    181      1      O          -0.04596127     0.13716593     0.14540260
    182      2      H          -0.04398529    -0.06706093    -0.04410438
    183      2      H           0.07360780    -0.02623499     0.02317262
    184      1      O           0.01581217    -0.13323673     0.10590134
    185      2      H           0.03423617     0.08690298     0.01087849
    186      2      H          -0.04809514    -0.00241465    -0.04794479
    187      1      O           0.03455108     0.11755165    -0.10201525
    188      2      H           0.00247049     0.04239413     0.05676417
    189      2      H          -0.04589109    -0.06842777    -0.02765677
    190      1      O          -0.02994694     0.05682105    -0.14606541
    191      2      H           0.05428184     0.05082089    -0.03550485
    192      2      H          -0.01839184    -0.01421099     0.02941426
 SUM OF ATOMIC FORCES          -0.15203455    -0.51878042    -0.08483446     0.54721524

 -------------------------------------------------------------------------------
 -                                                                             -
 -                                DBCSR STATISTICS                             -
 -                                                                             -
 -------------------------------------------------------------------------------
 COUNTER                                    TOTAL       BLAS       SMM       ACC
 flops     5 x     5 x   256           3640896000       0.0%    100.0%      0.0%
 flops     5 x    13 x   256           4457689600       0.0%    100.0%      0.0%
 flops    13 x     5 x   256           4527810560       0.0%    100.0%      0.0%
 flops    13 x    13 x   256           6459142144       0.0%    100.0%      0.0%
 flops inhomo. stacks                           0       0.0%      0.0%      0.0%
 flops total                        19.085538E+09       0.0%    100.0%      0.0%
 flops max/rank                     19.085538E+09       0.0%    100.0%      0.0%
 matmuls inhomo. stacks                         0       0.0%      0.0%      0.0%
 matmuls total                             629090       0.0%    100.0%      0.0%
 number of processed stacks                 42140       0.0%    100.0%      0.0%
 average stack size                                     0.0      14.9       0.0
 marketing flops                   333.927416E+09
 -------------------------------------------------------------------------------
 # multiplications                            301
 max memory usage/rank              30.546751E+09
 # max total images/rank                        1
 # max 3D layers                                1
 # MPI messages exchanged                       0
 MPI messages size (bytes):
  total size                         0.000000E+00
  min size                           0.000000E+00
  max size                           0.000000E+00
  average size                       0.000000E+00
 MPI breakdown and total messages size (bytes):
             size <=      128                   0                        0
       128 < size <=     8192                   0                        0
      8192 < size <=    32768                   0                        0
     32768 < size <=   131072                   0                        0
    131072 < size <=  4194304                   0                        0
   4194304 < size <= 16777216                   0                        0
  16777216 < size                               0                        0
 -------------------------------------------------------------------------------

 MEMORY| Estimated peak process memory [MiB]                               29138

 -------------------------------------------------------------------------------
 -                                                                             -
 -                           R E F E R E N C E S                               -
 -                                                                             -
 -------------------------------------------------------------------------------
 
 CP2K version 7.1, the CP2K developers group (2019).
 CP2K is freely available from https://www.cp2k.org/ .

 Schuett, Ole; Messmer, Peter; Hutter, Juerg; VandeVondele, Joost. 
 Electronic Structure Calculations on Graphics Processing Units, John
 Wiley & Sons, Ltd, 173-190 (2016). 
 GPU-Accelerated Sparse Matrix-Matrix Multiplication for
 Linear Scaling Density Functional Theory.
 https://dx.doi.org/10.1002/9781118670712.ch8

 Borstnik, U; VandeVondele, J; Weber, V; Hutter, J. 
 PARALLEL COMPUTING, 40 (5-6), 47-58 (2014). 
 Sparse matrix multiplication: The distributed block-compressed sparse
 row library.
 https://dx.doi.org/10.1016/j.parco.2014.03.012

 Hutter, J; Iannuzzi, M; Schiffmann, F; VandeVondele, J. 
 WIREs Comput Mol Sci., 4 (1), 15-25 (2014). 
 CP2K: atomistic simulations of condensed matter systems.
 https://dx.doi.org/10.1002/wcms.1159

 Krack, M. 
 THEORETICAL CHEMISTRY ACCOUNTS, 114 (1-3), 145-152 (2005). 
 Pseudopotentials for H to Kr optimized for gradient-corrected
 exchange-correlation functionals.
 https://dx.doi.org/10.1007/s00214-005-0655-y

 VandeVondele, J; Krack, M; Mohamed, F; Parrinello, M; Chassaing, T;
 Hutter, J. COMPUTER PHYSICS COMMUNICATIONS, 167 (2), 103-128 (2005). 
 QUICKSTEP: Fast and accurate density functional calculations using a
 mixed Gaussian and plane waves approach.
 https://dx.doi.org/10.1016/j.cpc.2004.12.014

 Frigo, M; Johnson, SG. 
 PROCEEDINGS OF THE IEEE, 93 (2), 216-231 (2005). 
 The design and implementation of FFTW3.
 https://dx.doi.org/10.1109/JPROC.2004.840301

 Hartwigsen, C; Goedecker, S; Hutter, J. 
 PHYSICAL REVIEW B, 58 (7), 3641-3662 (1998). 
 Relativistic separable dual-space Gaussian pseudopotentials from H to Rn.
 https://dx.doi.org/10.1103/PhysRevB.58.3641

 Lippert, G; Hutter, J; Parrinello, M. 
 MOLECULAR PHYSICS, 92 (3), 477-487 (1997). 
 A hybrid Gaussian and plane wave density functional scheme.
 https://dx.doi.org/10.1080/002689797170220

 Goedecker, S; Teter, M; Hutter, J. 
 PHYSICAL REVIEW B, 54 (3), 1703-1710 (1996). 
 Separable dual-space Gaussian pseudopotentials.
 https://dx.doi.org/10.1103/PhysRevB.54.1703


 -------------------------------------------------------------------------------
 -                                                                             -
 -                                T I M I N G                                  -
 -                                                                             -
 -------------------------------------------------------------------------------
 SUBROUTINE                       CALLS  ASD         SELF TIME        TOTAL TIME
                                MAXIMUM       AVERAGE  MAXIMUM  AVERAGE  MAXIMUM
 CP2K                                 1  1.0    1.071    1.071 7124.060 7124.060
 qs_forces                            1  2.0    0.000    0.000 7112.716 7112.716
 qs_energies                          1  3.0    0.000    0.000 7109.055 7109.055
 scf_env_do_scf                       1  4.0    0.001    0.001 7097.391 7097.391
 scf_env_do_scf_inner_loop          300  5.0    0.051    0.051 7097.390 7097.390
 gspace_mixing                      299  6.0   42.397   42.397 3025.302 3025.302
 broyden_mixing                     299  7.0 2733.237 2733.237 2733.240 2733.240
 qs_scf_new_mos                     300  6.0    0.008    0.008 1953.517 1953.517
 eigensolver                        300  7.0    0.031    0.031 1915.531 1915.531
 cp_fm_syevd                        300  8.0 1277.703 1277.703 1278.844 1278.844
 pw_transfer                       3912  9.9    0.396    0.396 1153.486 1153.486
 fft_wrap_pw1pw2                   3310 10.9    0.045    0.045 1126.364 1126.364
 rebuild_ks_matrix                  301  7.0    0.001    0.001 1122.361 1122.361
 qs_ks_build_kohn_sham_matrix       301  8.0    0.087    0.087 1122.361 1122.361
 qs_ks_update_qs_env                300  6.0    0.003    0.003 1119.086 1119.086
 fft_wrap_pw1pw2_70                1504 11.2   87.747   87.747 1031.368 1031.368
 qs_rho_update_rho                  301  6.0    0.003    0.003 1000.928 1000.928
 calculate_rho_elec                 301  7.0  465.612  465.612 1000.925 1000.925
 cp_fm_cholesky_restore             900  8.0  635.572  635.572  635.572  635.572
 fft3d_s                           3311 12.9  536.592  536.592  536.623  536.623
 density_rs2pw                      301  8.0    0.027    0.027  526.715  526.715
 pw_scatter_s                      1804 13.2  415.399  415.399  415.399  415.399
 pw_poisson_solve                   301  9.0  340.572  340.572  367.651  367.651
 sum_up_and_integrate               301  9.0   18.562   18.562  297.131  297.131
 integrate_v_rspace                 301 10.0    8.344    8.344  278.569  278.569
 potential_pw2rs                    301 11.0    2.542    2.542  266.807  266.807
 qs_vxc_create                      301  9.0    0.006    0.006  165.498  165.498
 xc_vxc_pw_create                   301 10.0   42.363   42.363  165.492  165.492
 -------------------------------------------------------------------------------

 The number of warnings for this run is : 1
 
 -------------------------------------------------------------------------------
  **** **** ******  **  PROGRAM ENDED AT                 2020-05-28 05:36:12.363
 ***** ** ***  *** **   PROGRAM RAN ON                                   gnode44
 **    ****   ******    PROGRAM RAN BY                               mayank.modi
 ***** **    ** ** **   PROGRAM PROCESS ID                                  8717
  **** **  *******  **  PROGRAM STOPPED IN /home/mayank.modi/ab-initio-thermodyn
                                           amics-of-water/mayank/cp2k_energy_cal
                                           culations
