 DBCSR| CPU Multiplication driver                                           XSMM
 DBCSR| Multrec recursion limit                                              512
 DBCSR| Multiplication stack size                                           1000
 DBCSR| Maximum elements for images                                    UNLIMITED
 DBCSR| Multiplicative factor virtual images                                   1
 DBCSR| Use multiplication densification                                       T
 DBCSR| Multiplication size stacks                                             3


  **** **** ******  **  PROGRAM STARTED AT               2020-05-29 21:10:43.367
 ***** ** ***  *** **   PROGRAM STARTED ON                               gnode44
 **    ****   ******    PROGRAM STARTED BY                           mayank.modi
 ***** **    ** ** **   PROGRAM PROCESS ID                                 39661
  **** **  *******  **  PROGRAM STARTED IN /home/mayank.modi/ab-initio-thermodyn
                                           amics-of-water/mayank/cp2k_energy_cal
                                           culations

 CP2K| version string:                                          CP2K version 7.1
 CP2K| source code revision number:                                  git:e635599
 CP2K| cp2kflags: omp libint fftw3 libxc xsmm spglib                            
 CP2K| is freely available from                            https://www.cp2k.org/
 CP2K| Program compiled at                          Mon Dec 23 19:23:12 CET 2019
 CP2K| Program compiled on                                                pc9404
 CP2K| Program compiled for                                Linux-x86-64-gfortran
 CP2K| Data directory path                                        /opt/cp2k/data
 CP2K| Input file name                                 input_training/input39.in

 GLOBAL| Force Environment number                                              1
 GLOBAL| Basis set file name                                           BASIS_SET
 GLOBAL| Potential file name                                      GTH_POTENTIALS
 GLOBAL| MM Potential file name                                     MM_POTENTIAL
 GLOBAL| Coordinate file name                                      __STD_INPUT__
 GLOBAL| Method name                                                        CP2K
 GLOBAL| Project name                                                   H2O_bulk
 GLOBAL| Preferred FFT library                                             FFTW3
 GLOBAL| Preferred diagonalization lib.                                       SL
 GLOBAL| Run type                                                   ENERGY_FORCE
 GLOBAL| All-to-all communication in single precision                          F
 GLOBAL| FFTs using library dependent lengths                                  F
 GLOBAL| Global print level                                                  LOW
 GLOBAL| MPI I/O enabled                                                       T
 GLOBAL| Total number of message passing processes                             1
 GLOBAL| Number of threads for this process                                   36
 GLOBAL| This output is from process                                           0
 GLOBAL| CPU model name                Intel(R) Xeon(R) CPU E5-2640 v4 @ 2.40GHz
 GLOBAL| CPUID                                                              1002
 GLOBAL| Compiled for CPUID                                                    0

 MEMORY| system memory details [Kb]
 MEMORY|                        rank 0           min           max       average
 MEMORY| MemTotal            131893056     131893056     131893056     131893056
 MEMORY| MemFree             120867824     120867824     120867824     120867824
 MEMORY| Buffers               2126924       2126924       2126924       2126924
 MEMORY| Cached                3330428       3330428       3330428       3330428
 MEMORY| Slab                  3307364       3307364       3307364       3307364
 MEMORY| SReclaimable          3102080       3102080       3102080       3102080
 MEMORY| MemLikelyFree       129427256     129427256     129427256     129427256


 GENERATE|  Preliminary Number of Bonds generated:                             0
 GENERATE|  Achieved consistency in connectivity generation.

 *******************************************************************************
 *******************************************************************************
 **                                                                           **
 **     #####                         ##              ##                      **
 **    ##   ##            ##          ##              ##                      **
 **   ##     ##                       ##            ######                    **
 **   ##     ##  ##   ##  ##   #####  ##  ##   ####   ##    #####    #####    **
 **   ##     ##  ##   ##  ##  ##      ## ##   ##      ##   ##   ##  ##   ##   **
 **   ##  ## ##  ##   ##  ##  ##      ####     ###    ##   ######   ######    **
 **    ##  ###   ##   ##  ##  ##      ## ##      ##   ##   ##       ##        **
 **     #######   #####   ##   #####  ##  ##  ####    ##    #####   ##        **
 **           ##                                                    ##        **
 **                                                                           **
 **                                                ... make the atoms dance   **
 **                                                                           **
 **            Copyright (C) by CP2K developers group (2000 - 2019)           **
 **                                                                           **
 *******************************************************************************


 TOTAL NUMBERS AND MAXIMUM NUMBERS

  Total number of            - Atomic kinds:                                   2
                             - Atoms:                                        192
                             - Shell sets:                                   384
                             - Shells:                                       704
                             - Primitive Cartesian functions:                960
                             - Cartesian basis functions:                   1536
                             - Spherical basis functions:                   1472

  Maximum angular momentum of- Orbital basis functions:                        2
                             - Local part of the GTH pseudopotential:          2
                             - Non-local part of the GTH pseudopotential:      0


 SCF PARAMETERS         Density guess:                                    ATOMIC
                        --------------------------------------------------------
                        max_scf:                                             300
                        max_scf_history:                                       0
                        max_diis:                                              4
                        --------------------------------------------------------
                        eps_scf:                                        1.00E-07
                        eps_scf_history:                                0.00E+00
                        eps_diis:                                       1.00E-01
                        eps_eigval:                                     1.00E-05
                        --------------------------------------------------------
                        level_shift [a.u.]:                                 0.00
                        --------------------------------------------------------
                        Mixing method:                            BROYDEN_MIXING
                                                charge density mixing in g-space
                        --------------------------------------------------------
                        No outer SCF

 Number of electrons:                                                        512
 Number of occupied orbitals:                                                256
 Number of molecular orbitals:                                               256

 Number of orbital functions:                                               1472
 Number of independent orbital functions:                                   1472

 Extrapolation method: initial_guess


 SCF WAVEFUNCTION OPTIMIZATION

  Step     Update method      Time    Convergence         Total energy    Change
  ------------------------------------------------------------------------------
     1 NoMix/Diag. 0.40E+00   10.2     0.64703840     -1064.1854354883 -1.06E+03
     2 Broy./Diag. 0.40E+00   16.1     1.89152461      -995.2729023760  6.89E+01
     3 Broy./Diag. 0.40E+00   17.3     1.94742813     -1266.2767945949 -2.71E+02
     4 Broy./Diag. 0.40E+00   17.7     1.64189899     -1125.0260338340  1.41E+02
     5 Broy./Diag. 0.40E+00   17.4     1.66602829     -1098.7771570358  2.62E+01
     6 Broy./Diag. 0.40E+00   18.1     1.74385314     -1102.8811582836 -4.10E+00
     7 Broy./Diag. 0.40E+00   19.6     1.68545188     -1094.6783671362  8.20E+00
     8 Broy./Diag. 0.40E+00   21.0     1.48467324     -1080.8121548077  1.39E+01
     9 Broy./Diag. 0.40E+00   23.1     1.45045182     -1075.2013727566  5.61E+00
    10 Broy./Diag. 0.40E+00   24.0     1.56422773     -1074.9244685412  2.77E-01
    11 Broy./Diag. 0.40E+00   23.8     0.17386343     -1073.0542866556  1.87E+00
    12 Broy./Diag. 0.40E+00   23.7     0.11973744     -1073.9326839916 -8.78E-01
    13 Broy./Diag. 0.40E+00   23.8     1.49288138     -1070.1969426248  3.74E+00
    14 Broy./Diag. 0.40E+00   23.7     1.50566276     -1081.8397904846 -1.16E+01
    15 Broy./Diag. 0.40E+00   23.6     1.44714428     -1078.7699253275  3.07E+00
    16 Broy./Diag. 0.40E+00   23.4     1.63642709     -1082.3935710185 -3.62E+00
    17 Broy./Diag. 0.40E+00   24.3     1.64310687     -1077.1419938659  5.25E+00
    18 Broy./Diag. 0.40E+00   23.7     1.19361773     -1075.2591308396  1.88E+00
    19 Broy./Diag. 0.40E+00   23.5     1.29172649     -1075.9837014399 -7.25E-01
    20 Broy./Diag. 0.40E+00   24.8     0.19116102     -1074.2065684871  1.78E+00
    21 Broy./Diag. 0.40E+00   23.4     0.09488357     -1075.4830698284 -1.28E+00
    22 Broy./Diag. 0.40E+00   22.8     0.15886251     -1075.2467446127  2.36E-01
    23 Broy./Diag. 0.40E+00   23.2     1.08012448     -1075.5414104726 -2.95E-01
    24 Broy./Diag. 0.40E+00   24.0     1.10535616     -1076.7944401522 -1.25E+00
    25 Broy./Diag. 0.40E+00   23.5     1.32075655     -1075.1850652339  1.61E+00
    26 Broy./Diag. 0.40E+00   23.0     1.61654342     -1080.4815766270 -5.30E+00
    27 Broy./Diag. 0.40E+00   23.1     1.68220787     -1077.6634526811  2.82E+00
    28 Broy./Diag. 0.40E+00   23.2     1.36316641     -1075.6970068861  1.97E+00
    29 Broy./Diag. 0.40E+00   24.0     1.39005020     -1076.4268945492 -7.30E-01
    30 Broy./Diag. 0.40E+00   23.7     0.18797239     -1075.2736483560  1.15E+00
    31 Broy./Diag. 0.40E+00   24.0     0.07738648     -1076.1462165871 -8.73E-01
    32 Broy./Diag. 0.40E+00   22.1     0.10567932     -1075.3535051613  7.93E-01
    33 Broy./Diag. 0.40E+00   23.0     0.08034877     -1075.6769463327 -3.23E-01
    34 Broy./Diag. 0.40E+00   23.9     0.02103254     -1075.8703939192 -1.93E-01
    35 Broy./Diag. 0.40E+00   23.8     1.08807262     -1075.7816802081  8.87E-02
    36 Broy./Diag. 0.40E+00   23.7     1.08340949     -1077.4102663955 -1.63E+00
    37 Broy./Diag. 0.40E+00   23.7     1.10705475     -1077.3555847703  5.47E-02
    38 Broy./Diag. 0.40E+00   23.8     0.11961819     -1076.0372731725  1.32E+00
    39 Broy./Diag. 0.40E+00   23.1     0.12941433     -1075.7176981916  3.20E-01
    40 Broy./Diag. 0.40E+00   22.7     0.05824974     -1076.1740299366 -4.56E-01
    41 Broy./Diag. 0.40E+00   22.0     1.27653769     -1075.8849253778  2.89E-01
    42 Broy./Diag. 0.40E+00   22.8     1.28816440     -1077.5294253330 -1.64E+00
    43 Broy./Diag. 0.40E+00   23.8     1.34293089     -1075.8694732102  1.66E+00
    44 Broy./Diag. 0.40E+00   24.0     1.35648593     -1077.0696781314 -1.20E+00
    45 Broy./Diag. 0.40E+00   24.4     0.92751073     -1075.7499812947  1.32E+00
    46 Broy./Diag. 0.40E+00   25.0     1.46909112     -1078.0694824102 -2.32E+00
    47 Broy./Diag. 0.40E+00   22.3     1.56117048     -1077.4954656063  5.74E-01
    48 Broy./Diag. 0.40E+00   22.9     0.13668830     -1075.8732246911  1.62E+00
    49 Broy./Diag. 0.40E+00   22.4     0.10804805     -1075.7378688934  1.35E-01
    50 Broy./Diag. 0.40E+00   22.6     0.06753975     -1075.7366670809  1.20E-03
    51 Broy./Diag. 0.40E+00   23.5     0.03584533     -1075.9575918247 -2.21E-01
    52 Broy./Diag. 0.40E+00   23.3     1.07507770     -1075.8280738004  1.30E-01
    53 Broy./Diag. 0.40E+00   23.2     1.35459312     -1077.0745248342 -1.25E+00
    54 Broy./Diag. 0.40E+00   23.3     1.38197822     -1077.1483761475 -7.39E-02
    55 Broy./Diag. 0.40E+00   23.6     0.95593259     -1075.7659918837  1.38E+00
    56 Broy./Diag. 0.40E+00   23.6     0.96264547     -1077.8327341143 -2.07E+00
    57 Broy./Diag. 0.40E+00   23.2     1.28274432     -1076.0429489239  1.79E+00
    58 Broy./Diag. 0.40E+00   24.0     1.29245018     -1076.9365336210 -8.94E-01
    59 Broy./Diag. 0.40E+00   24.2     1.30336894     -1075.6679676896  1.27E+00
    60 Broy./Diag. 0.40E+00   23.1     1.28613621     -1077.7034927513 -2.04E+00
    61 Broy./Diag. 0.40E+00   23.6     0.48372988     -1075.9045469630  1.80E+00
    62 Broy./Diag. 0.40E+00   23.7     1.09575227     -1076.0135165546 -1.09E-01
    63 Broy./Diag. 0.40E+00   23.2     1.37216573     -1077.0708442478 -1.06E+00
    64 Broy./Diag. 0.40E+00   23.4     1.40832388     -1077.1734572982 -1.03E-01
    65 Broy./Diag. 0.40E+00   24.8     0.24549233     -1075.6960268085  1.48E+00
    66 Broy./Diag. 0.40E+00   23.9     0.18432145     -1075.8385256822 -1.42E-01
    67 Broy./Diag. 0.40E+00   23.6     0.13854628     -1076.0717583006 -2.33E-01
    68 Broy./Diag. 0.40E+00   24.7     0.86268544     -1075.8792745745  1.92E-01
    69 Broy./Diag. 0.40E+00   23.8     1.29341221     -1077.4082459300 -1.53E+00
    70 Broy./Diag. 0.40E+00   23.0     1.33519566     -1077.4456774479 -3.74E-02
    71 Broy./Diag. 0.40E+00   23.4     0.25656420     -1075.5860979777  1.86E+00
    72 Broy./Diag. 0.40E+00   23.3     0.17635814     -1076.2708907166 -6.85E-01
    73 Broy./Diag. 0.40E+00   22.3     1.06763786     -1075.8746670351  3.96E-01
    74 Broy./Diag. 0.40E+00   20.6     1.11209060     -1077.3656318007 -1.49E+00
    75 Broy./Diag. 0.40E+00   22.9     0.19687704     -1075.9655616423  1.40E+00
    76 Broy./Diag. 0.40E+00   23.1     0.24738381     -1075.7655574611  2.00E-01
    77 Broy./Diag. 0.40E+00   23.0     1.34396877     -1075.7755066028 -9.95E-03
    78 Broy./Diag. 0.40E+00   23.6     1.35452055     -1077.2555055951 -1.48E+00
    79 Broy./Diag. 0.40E+00   24.9     1.30278535     -1077.5723151522 -3.17E-01
    80 Broy./Diag. 0.40E+00   21.0     1.42574616     -1077.2843502381  2.88E-01
    81 Broy./Diag. 0.40E+00   22.2     1.31150945     -1077.0154266419  2.69E-01
    82 Broy./Diag. 0.40E+00   22.5     1.41006001     -1076.1928311111  8.23E-01
    83 Broy./Diag. 0.40E+00   24.3     1.31922535     -1075.0585425760  1.13E+00
    84 Broy./Diag. 0.40E+00   24.2     1.65035907     -1078.6011079127 -3.54E+00
    85 Broy./Diag. 0.40E+00   21.7     1.54001669     -1077.5113002241  1.09E+00
    86 Broy./Diag. 0.40E+00   22.8     0.27303402     -1075.5416536810  1.97E+00
    87 Broy./Diag. 0.40E+00   22.7     0.19146337     -1076.2872357343 -7.46E-01
    88 Broy./Diag. 0.40E+00   20.7     0.86552711     -1075.4223029574  8.65E-01
    89 Broy./Diag. 0.40E+00   22.1     0.96646900     -1077.2471718665 -1.82E+00
    90 Broy./Diag. 0.40E+00   20.3     1.34078442     -1075.6907612138  1.56E+00
    91 Broy./Diag. 0.40E+00   22.9     1.35884927     -1077.3193355117 -1.63E+00
    92 Broy./Diag. 0.40E+00   23.7     0.17166151     -1076.0109265394  1.31E+00
    93 Broy./Diag. 0.40E+00   23.7     1.30903596     -1075.6741149494  3.37E-01
    94 Broy./Diag. 0.40E+00   23.1     1.33693298     -1077.6999175455 -2.03E+00
    95 Broy./Diag. 0.40E+00   23.7     0.16068866     -1076.0651448594  1.63E+00
    96 Broy./Diag. 0.40E+00   23.4     0.78503757     -1075.8856139323  1.80E-01
    97 Broy./Diag. 0.40E+00   23.4     0.85809679     -1077.1445453011 -1.26E+00
    98 Broy./Diag. 0.40E+00   23.6     0.93700256     -1075.5283765565  1.62E+00
    99 Broy./Diag. 0.40E+00   23.1     1.33245333     -1078.3268938731 -2.80E+00
   100 Broy./Diag. 0.40E+00   23.5     1.39073662     -1077.9155498674  4.11E-01
   101 Broy./Diag. 0.40E+00   24.4     0.44293650     -1076.1557932845  1.76E+00
   102 Broy./Diag. 0.40E+00   23.7     0.27302597     -1075.5630530084  5.93E-01
   103 Broy./Diag. 0.40E+00   24.8     1.32294784     -1075.6280399491 -6.50E-02
   104 Broy./Diag. 0.40E+00   21.1     1.33612552     -1077.5305853608 -1.90E+00
   105 Broy./Diag. 0.40E+00   22.9     0.11806476     -1075.6732083266  1.86E+00
   106 Broy./Diag. 0.40E+00   23.2     1.08417013     -1075.9675760316 -2.94E-01
   107 Broy./Diag. 0.40E+00   23.9     1.09483013     -1077.0325751283 -1.06E+00
   108 Broy./Diag. 0.40E+00   24.8     0.91427435     -1075.7980304461  1.23E+00
   109 Broy./Diag. 0.40E+00   21.7     1.36293499     -1077.3748393730 -1.58E+00
   110 Broy./Diag. 0.40E+00   22.7     1.39960025     -1077.3658185963  9.02E-03
   111 Broy./Diag. 0.40E+00   24.0     0.11523164     -1075.6403067154  1.73E+00
   112 Broy./Diag. 0.40E+00   23.2     0.08079227     -1076.1396405460 -4.99E-01
   113 Broy./Diag. 0.40E+00   23.8     1.33083050     -1075.7238594488  4.16E-01
   114 Broy./Diag. 0.40E+00   23.5     1.34089851     -1077.4879205524 -1.76E+00
   115 Broy./Diag. 0.40E+00   23.1     0.09267886     -1075.7889810540  1.70E+00
   116 Broy./Diag. 0.40E+00   25.3     1.08860249     -1075.8085492514 -1.96E-02
   117 Broy./Diag. 0.40E+00   23.2     1.09904590     -1077.3414950190 -1.53E+00
   118 Broy./Diag. 0.40E+00   23.3     0.90520047     -1075.8007721972  1.54E+00
   119 Broy./Diag. 0.40E+00   22.0     0.89490445     -1077.4069345983 -1.61E+00
   120 Broy./Diag. 0.40E+00   21.5     1.08099023     -1075.8806714386  1.53E+00
   121 Broy./Diag. 0.40E+00   24.5     0.68232868     -1077.4541043095 -1.57E+00
   122 Broy./Diag. 0.40E+00   23.2     0.95112145     -1077.4350595128  1.90E-02
   123 Broy./Diag. 0.40E+00   22.2     1.37115320     -1075.9870650186  1.45E+00
   124 Broy./Diag. 0.40E+00   23.2     1.38308242     -1077.2285103006 -1.24E+00
   125 Broy./Diag. 0.40E+00   24.1     0.26586154     -1075.7102729984  1.52E+00
   126 Broy./Diag. 0.40E+00   23.5     1.31833749     -1075.9864005284 -2.76E-01
   127 Broy./Diag. 0.40E+00   24.0     1.29967772     -1078.9337842866 -2.95E+00
   128 Broy./Diag. 0.40E+00   23.3     0.09322389     -1075.8489659259  3.08E+00
   129 Broy./Diag. 0.40E+00   22.7     0.06506334     -1075.7031177701  1.46E-01
   130 Broy./Diag. 0.40E+00   23.6     0.02107217     -1075.9401946779 -2.37E-01
   131 Broy./Diag. 0.40E+00   23.1     0.93520978     -1075.8098331809  1.30E-01
   132 Broy./Diag. 0.40E+00   23.2     0.95037406     -1077.5926873956 -1.78E+00
   133 Broy./Diag. 0.40E+00   23.9     1.35508651     -1075.8260473999  1.77E+00
   134 Broy./Diag. 0.40E+00   24.3     1.37074530     -1077.0337731982 -1.21E+00
   135 Broy./Diag. 0.40E+00   24.6     1.30654949     -1075.7311783881  1.30E+00
   136 Broy./Diag. 0.40E+00   24.1     1.29946541     -1077.5502325854 -1.82E+00
   137 Broy./Diag. 0.40E+00   24.3     1.13410701     -1077.3497749109  2.00E-01
   138 Broy./Diag. 0.40E+00   24.4     0.20409972     -1075.7643948151  1.59E+00
   139 Broy./Diag. 0.40E+00   24.1     0.09377660     -1075.7333452437  3.10E-02
   140 Broy./Diag. 0.40E+00   24.4     0.04253276     -1075.9272172015 -1.94E-01
   141 Broy./Diag. 0.40E+00   24.4     0.93069308     -1075.8278411924  9.94E-02
   142 Broy./Diag. 0.40E+00   24.5     0.92792214     -1077.5835559585 -1.76E+00
   143 Broy./Diag. 0.40E+00   24.3     1.35942619     -1075.7817021784  1.80E+00
   144 Broy./Diag. 0.40E+00   24.0     1.36760424     -1077.5570948211 -1.78E+00
   145 Broy./Diag. 0.40E+00   24.5     0.10797540     -1075.9300581647  1.63E+00
   146 Broy./Diag. 0.40E+00   24.2     1.29497751     -1075.6120537385  3.18E-01
   147 Broy./Diag. 0.40E+00   23.8     1.31600258     -1077.4565131792 -1.84E+00
   148 Broy./Diag. 0.40E+00   23.9     0.13824490     -1075.8693359292  1.59E+00
   149 Broy./Diag. 0.40E+00   24.4     0.23810822     -1075.7952618966  7.41E-02
   150 Broy./Diag. 0.40E+00   23.7     0.18805421     -1075.8968306791 -1.02E-01
   151 Broy./Diag. 0.40E+00   23.9     0.86684288     -1075.8669223953  2.99E-02
   152 Broy./Diag. 0.40E+00   24.4     1.19891721     -1077.4601245161 -1.59E+00
   153 Broy./Diag. 0.40E+00   25.0     1.36299940     -1077.0495530190  4.11E-01
   154 Broy./Diag. 0.40E+00   24.7     1.41902162     -1077.3208171684 -2.71E-01
   155 Broy./Diag. 0.40E+00   24.1     0.14883446     -1075.5153968567  1.81E+00
   156 Broy./Diag. 0.40E+00   24.3     1.27982955     -1076.1160569328 -6.01E-01
   157 Broy./Diag. 0.40E+00   24.1     1.31374367     -1077.3681440888 -1.25E+00
   158 Broy./Diag. 0.40E+00   24.4     0.92657727     -1075.7416638305  1.63E+00
   159 Broy./Diag. 0.40E+00   24.3     0.86089697     -1077.3181687094 -1.58E+00
   160 Broy./Diag. 0.40E+00   24.2     0.18261042     -1075.8581428058  1.46E+00
   161 Broy./Diag. 0.40E+00   24.5     0.16715591     -1075.7415099018  1.17E-01
   162 Broy./Diag. 0.40E+00   24.3     0.04153743     -1075.7763051940 -3.48E-02
   163 Broy./Diag. 0.40E+00   24.4     0.06636002     -1075.9405452978 -1.64E-01
   164 Broy./Diag. 0.40E+00   24.1     0.07264082     -1076.0560860296 -1.16E-01
   165 Broy./Diag. 0.40E+00   24.3     0.15895270     -1075.8790210302  1.77E-01
   166 Broy./Diag. 0.40E+00   24.1     1.34199587     -1075.9781358497 -9.91E-02
   167 Broy./Diag. 0.40E+00   24.3     1.36019387     -1080.4726794562 -4.49E+00
   168 Broy./Diag. 0.40E+00   23.8     0.94140024     -1075.7691556643  4.70E+00
   169 Broy./Diag. 0.40E+00   24.2     0.93789497     -1077.4084995428 -1.64E+00
   170 Broy./Diag. 0.40E+00   22.4     1.08698548     -1075.6248884788  1.78E+00
   171 Broy./Diag. 0.40E+00   24.3     1.11846018     -1077.5255651827 -1.90E+00
   172 Broy./Diag. 0.40E+00   22.9     0.13405806     -1076.1902091431  1.34E+00
   173 Broy./Diag. 0.40E+00   23.9     0.06595903     -1075.3353407296  8.55E-01
   174 Broy./Diag. 0.40E+00   23.9     0.02249203     -1075.8066670142 -4.71E-01
   175 Broy./Diag. 0.40E+00   24.0     0.02396525     -1075.8037696979  2.90E-03
   176 Broy./Diag. 0.40E+00   22.9     1.30126138     -1075.8444816243 -4.07E-02
   177 Broy./Diag. 0.40E+00   24.0     1.31990716     -1077.7044058775 -1.86E+00
   178 Broy./Diag. 0.40E+00   23.9     0.14580138     -1075.9995858638  1.70E+00
   179 Broy./Diag. 0.40E+00   24.0     0.14602799     -1076.0973929798 -9.78E-02
   180 Broy./Diag. 0.40E+00   23.8     0.88494983     -1075.7878729127  3.10E-01
   181 Broy./Diag. 0.40E+00   23.2     1.33559038     -1077.7086043947 -1.92E+00
   182 Broy./Diag. 0.40E+00   23.6     1.38115658     -1077.2393992308  4.69E-01
   183 Broy./Diag. 0.40E+00   24.5     0.92972992     -1075.6066440942  1.63E+00
   184 Broy./Diag. 0.40E+00   24.5     0.93565089     -1077.9301593073 -2.32E+00
   185 Broy./Diag. 0.40E+00   24.3     1.10932114     -1076.3018468806  1.63E+00
   186 Broy./Diag. 0.40E+00   23.5     1.30269948     -1076.8560584953 -5.54E-01
   187 Broy./Diag. 0.40E+00   23.9     1.34740709     -1076.8647450637 -8.69E-03
   188 Broy./Diag. 0.40E+00   23.0     0.86303014     -1075.2277620056  1.64E+00
   189 Broy./Diag. 0.40E+00   24.3     0.87317979     -1078.0673505009 -2.84E+00
   190 Broy./Diag. 0.40E+00   24.1     0.16647196     -1076.0608476742  2.01E+00
   191 Broy./Diag. 0.40E+00   23.9     0.08674468     -1075.7125363009  3.48E-01
   192 Broy./Diag. 0.40E+00   24.2     0.03756156     -1075.7513834872 -3.88E-02
   193 Broy./Diag. 0.40E+00   23.9     0.02793654     -1075.8864651430 -1.35E-01
   194 Broy./Diag. 0.40E+00   24.5     1.33515443     -1075.7921024439  9.44E-02
   195 Broy./Diag. 0.40E+00   24.9     1.35865062     -1077.1422294156 -1.35E+00
   196 Broy./Diag. 0.40E+00   24.4     1.31477216     -1077.1372907568  4.94E-03
   197 Broy./Diag. 0.40E+00   24.3     1.44017397     -1077.0227349289  1.15E-01
   198 Broy./Diag. 0.40E+00   24.4     1.05563733     -1076.9129888746  1.10E-01
   199 Broy./Diag. 0.40E+00   24.9     1.37435291     -1074.8736592534  2.04E+00
   200 Broy./Diag. 0.40E+00   24.4     1.62499929     -1078.5813788086 -3.71E+00
   201 Broy./Diag. 0.40E+00   24.9     1.67431110     -1077.2738026342  1.31E+00
   202 Broy./Diag. 0.40E+00   24.6     0.34093628     -1075.9437131649  1.33E+00
   203 Broy./Diag. 0.40E+00   24.5     0.11045437     -1075.7445526858  1.99E-01
   204 Broy./Diag. 0.40E+00   24.4     0.05763492     -1075.3216291656  4.23E-01
   205 Broy./Diag. 0.40E+00   24.3     0.02543922     -1075.6907689637 -3.69E-01
   206 Broy./Diag. 0.40E+00   24.8     1.31486086     -1075.8688871538 -1.78E-01
   207 Broy./Diag. 0.40E+00   24.7     1.33697966     -1077.3806352836 -1.51E+00
   208 Broy./Diag. 0.40E+00   24.7     1.00685308     -1077.7054538390 -3.25E-01
   209 Broy./Diag. 0.40E+00   24.7     0.12788051     -1075.6667921636  2.04E+00
   210 Broy./Diag. 0.40E+00   24.7     1.08626026     -1076.0096363295 -3.43E-01
   211 Broy./Diag. 0.40E+00   24.5     1.10085302     -1077.3162527869 -1.31E+00
   212 Broy./Diag. 0.40E+00   24.8     1.34469619     -1075.9807360307  1.34E+00
   213 Broy./Diag. 0.40E+00   24.6     1.36793637     -1076.9362158757 -9.55E-01
   214 Broy./Diag. 0.40E+00   24.3     0.20515951     -1075.3985826409  1.54E+00
   215 Broy./Diag. 0.40E+00   24.3     0.22286855     -1076.6352589815 -1.24E+00
   216 Broy./Diag. 0.40E+00   24.6     1.32239942     -1075.7674754932  8.68E-01
   217 Broy./Diag. 0.40E+00   25.1     1.34257630     -1077.4756242160 -1.71E+00
   218 Broy./Diag. 0.40E+00   24.7     1.00598163     -1077.5364949754 -6.09E-02
   219 Broy./Diag. 0.40E+00   24.3     0.35003180     -1075.5087072754  2.03E+00
   220 Broy./Diag. 0.40E+00   24.2     0.31584512     -1076.5422945033 -1.03E+00
   221 Broy./Diag. 0.40E+00   24.6     0.05947758     -1075.8334251988  7.09E-01
   222 Broy./Diag. 0.40E+00   25.0     1.35787285     -1075.8335787633 -1.54E-04
   223 Broy./Diag. 0.40E+00   24.8     1.36302219     -1078.5614232689 -2.73E+00
   224 Broy./Diag. 0.40E+00   24.6     0.08552062     -1075.6777820873  2.88E+00
   225 Broy./Diag. 0.40E+00   25.3     0.07208555     -1076.0604041295 -3.83E-01
   226 Broy./Diag. 0.40E+00   24.4     1.31499559     -1075.8408846373  2.20E-01
   227 Broy./Diag. 0.40E+00   24.5     1.34753199     -1077.3730007902 -1.53E+00
   228 Broy./Diag. 0.40E+00   24.5     0.98833542     -1077.4157196118 -4.27E-02
   229 Broy./Diag. 0.40E+00   24.5     0.19872668     -1075.6365935718  1.78E+00
   230 Broy./Diag. 0.40E+00   24.3     0.12148916     -1076.1559263096 -5.19E-01
   231 Broy./Diag. 0.40E+00   25.1     0.04247341     -1075.8717431403  2.84E-01
   232 Broy./Diag. 0.40E+00   24.9     1.35056589     -1075.7334096022  1.38E-01
   233 Broy./Diag. 0.40E+00   24.5     1.36333770     -1077.2229091385 -1.49E+00
   234 Broy./Diag. 0.40E+00   24.7     1.12351205     -1077.0770311135  1.46E-01
   235 Broy./Diag. 0.40E+00   24.9     0.05755466     -1075.7408013166  1.34E+00
   236 Broy./Diag. 0.40E+00   24.7     1.32250553     -1075.8737791867 -1.33E-01
   237 Broy./Diag. 0.40E+00   24.4     1.32695397     -1077.4469809699 -1.57E+00
   238 Broy./Diag. 0.40E+00   24.6     0.97022189     -1077.3838877011  6.31E-02
   239 Broy./Diag. 0.40E+00   24.3     0.15973685     -1075.6643708995  1.72E+00
   240 Broy./Diag. 0.40E+00   24.2     0.08832312     -1075.9185408313 -2.54E-01
   241 Broy./Diag. 0.40E+00   24.5     0.04270030     -1075.8356203621  8.29E-02
   242 Broy./Diag. 0.40E+00   24.5     1.35359934     -1075.7711237520  6.45E-02
   243 Broy./Diag. 0.40E+00   24.4     1.36360432     -1077.4389733071 -1.67E+00
   244 Broy./Diag. 0.40E+00   24.5     0.07269905     -1075.8689009680  1.57E+00
   245 Broy./Diag. 0.40E+00   24.6     0.07304598     -1075.7528783048  1.16E-01
   246 Broy./Diag. 0.40E+00   24.5     1.32416457     -1075.9373677428 -1.84E-01
   247 Broy./Diag. 0.40E+00   24.5     1.31828727     -1078.9706119355 -3.03E+00
   248 Broy./Diag. 0.40E+00   24.7     1.29998086     -1077.3788394269  1.59E+00
   249 Broy./Diag. 0.40E+00   24.4     1.38941799     -1076.8041217319  5.75E-01
   250 Broy./Diag. 0.40E+00   24.4     0.22824856     -1075.2514042441  1.55E+00
   251 Broy./Diag. 0.40E+00   24.2     0.19666089     -1076.4765049658 -1.23E+00
   252 Broy./Diag. 0.40E+00   23.9     1.35291238     -1075.4884091629  9.88E-01
   253 Broy./Diag. 0.40E+00   24.1     1.36444937     -1077.2081798841 -1.72E+00
   254 Broy./Diag. 0.40E+00   24.4     0.07207364     -1075.8145867820  1.39E+00
   255 Broy./Diag. 0.40E+00   24.0     0.05803406     -1075.7873345637  2.73E-02
   256 Broy./Diag. 0.40E+00   23.9     1.29766007     -1075.8789554573 -9.16E-02
   257 Broy./Diag. 0.40E+00   24.6     1.31674879     -1077.6386526481 -1.76E+00
   258 Broy./Diag. 0.40E+00   23.7     1.62568061     -1077.4769275708  1.62E-01
   259 Broy./Diag. 0.40E+00   22.8     1.68209157     -1077.1934822949  2.83E-01
   260 Broy./Diag. 0.40E+00   23.9     0.27445841     -1075.3829834118  1.81E+00
   261 Broy./Diag. 0.40E+00   24.9     0.14754019     -1076.2407807900 -8.58E-01
   262 Broy./Diag. 0.40E+00   24.2     1.35534559     -1075.7895887573  4.51E-01
   263 Broy./Diag. 0.40E+00   24.3     1.36917479     -1077.0645979060 -1.28E+00
   264 Broy./Diag. 0.40E+00   22.9     0.05507256     -1075.6442414730  1.42E+00
   265 Broy./Diag. 0.40E+00   24.2     0.03713570     -1075.9981766057 -3.54E-01
   266 Broy./Diag. 0.40E+00   23.4     1.08273397     -1075.8124691635  1.86E-01
   267 Broy./Diag. 0.40E+00   24.2     1.09899080     -1077.4337399751 -1.62E+00
   268 Broy./Diag. 0.40E+00   23.1     1.23231181     -1077.6143509333 -1.81E-01
   269 Broy./Diag. 0.40E+00   23.7     1.27761466     -1077.1913085111  4.23E-01
   270 Broy./Diag. 0.40E+00   23.6     1.45018325     -1077.1096540532  8.17E-02
   271 Broy./Diag. 0.40E+00   24.3     1.37177910     -1077.1500180786 -4.04E-02
   272 Broy./Diag. 0.40E+00   24.7     1.33784328     -1074.8399565585  2.31E+00
   273 Broy./Diag. 0.40E+00   23.9     1.27694465     -1078.8231526656 -3.98E+00
   274 Broy./Diag. 0.40E+00   24.1     0.22836453     -1076.7804017319  2.04E+00
   275 Broy./Diag. 0.40E+00   24.3     0.11442862     -1074.9597982924  1.82E+00
   276 Broy./Diag. 0.40E+00   25.6     1.52447898     -1075.9572882625 -9.97E-01
   277 Broy./Diag. 0.40E+00   25.1     1.54048600     -1077.1124096126 -1.16E+00
   278 Broy./Diag. 0.40E+00   24.8     1.30460226     -1077.4523520900 -3.40E-01
   279 Broy./Diag. 0.40E+00   24.7     1.17047985     -1076.9246111482  5.28E-01
   280 Broy./Diag. 0.40E+00   24.8     0.32832262     -1075.3427347969  1.58E+00
   281 Broy./Diag. 0.40E+00   24.5     0.28548756     -1076.2194712175 -8.77E-01
   282 Broy./Diag. 0.40E+00   24.5     1.30692251     -1075.8481957849  3.71E-01
   283 Broy./Diag. 0.40E+00   24.6     1.33778959     -1077.4601061658 -1.61E+00
   284 Broy./Diag. 0.40E+00   24.4     0.17608972     -1075.7617525172  1.70E+00
   285 Broy./Diag. 0.40E+00   24.4     0.10287542     -1075.6957455081  6.60E-02
   286 Broy./Diag. 0.40E+00   24.0     0.03121026     -1075.9080834023 -2.12E-01
   287 Broy./Diag. 0.40E+00   23.7     0.96167488     -1075.6945851163  2.13E-01
   288 Broy./Diag. 0.40E+00   24.5     1.34048359     -1077.5763712996 -1.88E+00
   289 Broy./Diag. 0.40E+00   24.0     1.38787197     -1077.2299955489  3.46E-01
   290 Broy./Diag. 0.40E+00   23.7     0.14428767     -1075.7763190838  1.45E+00
   291 Broy./Diag. 0.40E+00   24.5     0.10074244     -1076.0886767123 -3.12E-01
   292 Broy./Diag. 0.40E+00   24.4     1.31382344     -1075.8723052245  2.16E-01
   293 Broy./Diag. 0.40E+00   25.1     1.32524186     -1077.4733249011 -1.60E+00
   294 Broy./Diag. 0.40E+00   24.5     0.84397870     -1075.7808997316  1.69E+00
   295 Broy./Diag. 0.40E+00   23.8     0.87427226     -1077.4390778625 -1.66E+00
   296 Broy./Diag. 0.40E+00   23.3     0.10909646     -1075.8461122207  1.59E+00
   297 Broy./Diag. 0.40E+00   24.0     0.07083128     -1075.8245545811  2.16E-02
   298 Broy./Diag. 0.40E+00   23.9     1.08292702     -1075.8311853044 -6.63E-03
   299 Broy./Diag. 0.40E+00   24.3     1.09459512     -1077.3222091677 -1.49E+00
   300 Broy./Diag. 0.40E+00   23.8     0.07565519     -1075.8262394887  1.50E+00

  Leaving inner SCF loop after reaching   300 steps.


  Electronic density on regular grids:       -511.9999189145        0.0000810855
  Core density on regular grids:              512.0000297455        0.0000297455
  Total charge density on r-space grids:        0.0001108310
  Total charge density g-space grids:           0.0001108310

  Overlap energy of the core charge distribution:               0.00000000000000
  Self energy of the core charge distribution:              -2838.21791979120962
  Core Hamiltonian energy:                                    760.16218422660938
  Hartree energy:                                            1240.82629543652843
  Exchange-correlation energy:                               -238.59679936059064

  Total energy:                                             -1075.82623948866240

 *** WARNING in qs_scf.F:542 :: SCF run NOT converged ***


 ENERGY| Total FORCE_EVAL ( QS ) energy (a.u.):            -1075.985170529720790


 ATOMIC FORCES in [a.u.]

 # Atom   Kind   Element          X              Y              Z
      1      1      O          -0.04062741    -0.00638973     0.00280625
      2      2      H           0.06974357    -0.00125807     0.07521232
      3      2      H           0.00854051     0.03468971    -0.08190572
      4      1      O           0.05368212    -0.00847668     0.07519977
      5      2      H          -0.08455216    -0.00061010    -0.06170061
      6      2      H           0.05562077    -0.06270620    -0.07200130
      7      1      O           0.02420526     0.02666512     0.16456677
      8      2      H           0.02736245     0.05918380    -0.09184523
      9      2      H          -0.06113163    -0.04035965     0.01656641
     10      1      O           0.09898696    -0.05719757    -0.02198515
     11      2      H          -0.07530722     0.06533227    -0.02843508
     12      2      H          -0.00345457    -0.07809431    -0.07895337
     13      1      O           0.00703296    -0.00417455    -0.09618740
     14      2      H          -0.07786267    -0.01169596    -0.02678510
     15      2      H           0.05139608    -0.04272409     0.02713699
     16      1      O          -0.07803252    -0.00500645     0.12403913
     17      2      H           0.06448633     0.00872290    -0.01268093
     18      2      H          -0.02461686    -0.01302249    -0.06738333
     19      1      O           0.05693879    -0.04018972     0.15367150
     20      2      H           0.04373944    -0.00805908    -0.10253367
     21      2      H          -0.09002466     0.01827953    -0.02263606
     22      1      O           0.08423739     0.10686192    -0.11404357
     23      2      H          -0.03678322    -0.08880369    -0.06008301
     24      2      H          -0.06755742     0.02817776     0.00917356
     25      1      O          -0.09669419    -0.10072529    -0.05704636
     26      2      H           0.00431851     0.11514980     0.07623729
     27      2      H           0.07927713    -0.01895524    -0.10605693
     28      1      O           0.02998977     0.03175208     0.15747672
     29      2      H          -0.00176137     0.07264911    -0.04172954
     30      2      H          -0.07327348    -0.03916438    -0.05820369
     31      1      O          -0.02545702    -0.03907184     0.04438882
     32      2      H          -0.04874786     0.05875780     0.02604015
     33      2      H           0.05006270     0.06534183     0.00620881
     34      1      O           0.03945206     0.05481108    -0.14661470
     35      2      H          -0.00467848    -0.01599850     0.08219324
     36      2      H          -0.04508015     0.06936022     0.00746729
     37      1      O           0.03013312    -0.03937094    -0.12976168
     38      2      H           0.04788677     0.06821689    -0.03030294
     39      2      H          -0.05855888    -0.00966840    -0.04185827
     40      1      O          -0.06838166     0.01925235     0.01202816
     41      2      H           0.02912569     0.01564786     0.04655849
     42      2      H           0.02511232     0.03619619    -0.04492509
     43      1      O          -0.00754598    -0.02746869     0.07273160
     44      2      H          -0.03328541    -0.02519362    -0.08822582
     45      2      H           0.02371313     0.07678011    -0.00715207
     46      1      O           0.01214361    -0.06665509    -0.15583381
     47      2      H          -0.03498022     0.01862457     0.04626276
     48      2      H           0.03562670    -0.01586752     0.09073865
     49      1      O           0.05164693     0.03156212     0.04255905
     50      2      H           0.04133237    -0.05668746    -0.06121008
     51      2      H          -0.08173837     0.00305687     0.03772290
     52      1      O          -0.03628467    -0.11813761    -0.01939336
     53      2      H           0.06136195     0.04770649    -0.01259313
     54      2      H          -0.01643692     0.07456142     0.00873749
     55      1      O           0.01369462     0.08414744    -0.04051976
     56      2      H          -0.01584740     0.02104362    -0.02687700
     57      2      H          -0.05289550    -0.09171161     0.04748505
     58      1      O          -0.00305299     0.13312624     0.06830819
     59      2      H          -0.03161153    -0.04371486    -0.04885304
     60      2      H           0.08186292    -0.03676196     0.03759211
     61      1      O           0.03120228     0.03462197    -0.12752191
     62      2      H           0.02538400    -0.00025865     0.05770690
     63      2      H          -0.03542089    -0.05883481    -0.01710183
     64      1      O           0.06756827     0.04429585     0.11344092
     65      2      H          -0.07111236     0.01384577     0.01653853
     66      2      H           0.00823178     0.03634371    -0.10986337
     67      1      O           0.03910787    -0.00473269     0.00121479
     68      2      H          -0.06396999    -0.04116364     0.03336212
     69      2      H           0.01934926     0.03964667    -0.03639056
     70      1      O          -0.07786078     0.08758387     0.03574059
     71      2      H           0.07764030    -0.01333062     0.02513935
     72      2      H          -0.02183253     0.01516568    -0.10602351
     73      1      O           0.07487259    -0.03308403    -0.03865754
     74      2      H          -0.08157987     0.06918374    -0.01739319
     75      2      H          -0.01024257    -0.07634618     0.04685462
     76      1      O          -0.10452384     0.10378982    -0.08068116
     77      2      H           0.05782936    -0.00660856    -0.01531699
     78      2      H           0.03076364     0.03612902     0.04910480
     79      1      O           0.06376875     0.00431937     0.01846337
     80      2      H          -0.04095968     0.04743638     0.02513825
     81      2      H           0.00391593    -0.05543859     0.02415606
     82      1      O           0.02155751    -0.03682927     0.03234646
     83      2      H          -0.00045986     0.06067300     0.02011608
     84      2      H          -0.03591892    -0.01995435     0.05166679
     85      1      O           0.07593921     0.12467325    -0.08606970
     86      2      H          -0.01741524    -0.05052910     0.07459450
     87      2      H          -0.06287112    -0.02876830    -0.08794433
     88      1      O          -0.05823260    -0.04557466     0.04125331
     89      2      H           0.05938260     0.00732452     0.06672048
     90      2      H           0.01428299     0.03207627    -0.05177852
     91      1      O           0.05011617    -0.00920404     0.10455690
     92      2      H          -0.01839440    -0.04761182    -0.03966951
     93      2      H          -0.04965816     0.07574816    -0.01635273
     94      1      O           0.09980825    -0.06448043     0.02021094
     95      2      H          -0.07423962     0.02516907    -0.00976078
     96      2      H          -0.02041686    -0.01575479     0.05075638
     97      1      O          -0.01158137    -0.06678427    -0.06393921
     98      2      H          -0.03587998     0.04773932     0.03012087
     99      2      H           0.04702716     0.00458639    -0.00708497
    100      1      O          -0.03891808     0.02396771    -0.12088443
    101      2      H           0.00953026    -0.04487420     0.05583861
    102      2      H           0.03067873     0.06806710     0.05592520
    103      1      O           0.07878888     0.10713365    -0.09174744
    104      2      H          -0.06266805    -0.02399894    -0.05503008
    105      2      H          -0.02014926    -0.02005273     0.07340161
    106      1      O           0.05887200     0.03285920     0.04264712
    107      2      H           0.03065836    -0.06693697     0.02749537
    108      2      H          -0.08427419    -0.02448333     0.04051418
    109      1      O           0.10423070    -0.00495398     0.06795867
    110      2      H          -0.01045919     0.06598286    -0.10563747
    111      2      H          -0.04828544     0.00687618     0.01838925
    112      1      O           0.08928006     0.05812622     0.11792612
    113      2      H          -0.05215233    -0.07932162     0.02379013
    114      2      H          -0.05903600     0.05874527     0.00875793
    115      1      O          -0.01293651     0.00979820     0.00518510
    116      2      H          -0.00053567    -0.08782886    -0.01032238
    117      2      H          -0.01111033     0.04804729     0.03699388
    118      1      O           0.04515897     0.07612652     0.01226384
    119      2      H           0.02641156     0.04324740    -0.08659837
    120      2      H          -0.07683760    -0.06915193    -0.00062239
    121      1      O          -0.06362636     0.04667659     0.01575105
    122      2      H           0.04897237    -0.04242460     0.02443989
    123      2      H           0.04562802    -0.06847799    -0.02224489
    124      1      O          -0.08215827     0.06269992    -0.11240120
    125      2      H           0.02900376    -0.09267646    -0.03494332
    126      2      H           0.00594484     0.01988298     0.05359881
    127      1      O           0.06264409     0.06142721     0.03493157
    128      2      H          -0.02970183     0.07427780     0.05912688
    129      2      H          -0.01949544    -0.08458793     0.00019711
    130      1      O           0.00695579     0.00623123     0.03238523
    131      2      H          -0.00068177    -0.03544950    -0.04496880
    132      2      H           0.03571254    -0.02583356     0.05525547
    133      1      O           0.10161866    -0.08776216     0.12544791
    134      2      H          -0.00055729     0.07002262    -0.03954468
    135      2      H          -0.07886044     0.00179192     0.03788952
    136      1      O           0.05345207     0.04227571    -0.12948162
    137      2      H          -0.08257259    -0.03759617    -0.01024647
    138      2      H           0.02697623    -0.04390541     0.03838035
    139      1      O          -0.02718205     0.12997459     0.06215493
    140      2      H          -0.04342794    -0.06418600     0.03825640
    141      2      H           0.04634323    -0.03540028    -0.07093399
    142      1      O          -0.00127319     0.04182196     0.01984994
    143      2      H           0.02312028    -0.03629474     0.01607403
    144      2      H          -0.06934892     0.04650597     0.00095311
    145      1      O           0.04799453    -0.08824166     0.12794583
    146      2      H          -0.01900960     0.01619046    -0.09350092
    147      2      H          -0.06566910    -0.04355448     0.06941342
    148      1      O           0.06033391     0.00348278    -0.15477841
    149      2      H          -0.00397614    -0.05846355     0.06758385
    150      2      H          -0.06814832     0.05023180    -0.01761145
    151      1      O           0.05681426     0.08654777    -0.00041884
    152      2      H          -0.03987515     0.00304733     0.09984421
    153      2      H          -0.03251609    -0.05045963    -0.06684683
    154      1      O          -0.01067518    -0.02587120     0.02563522
    155      2      H          -0.05937814     0.02600899    -0.07808061
    156      2      H           0.03956055     0.08841983     0.00717292
    157      1      O           0.05259534    -0.10824814     0.07394985
    158      2      H          -0.06739437    -0.00303233     0.00704181
    159      2      H          -0.02008845     0.03068472    -0.09196957
    160      1      O           0.07103507     0.06789928     0.10934808
    161      2      H           0.02761523     0.01324895    -0.04890044
    162      2      H          -0.07580709    -0.02472020     0.02999157
    163      1      O           0.02996235     0.08975616     0.16080102
    164      2      H          -0.06659675     0.05143881    -0.07227392
    165      2      H           0.03388184    -0.09940287    -0.04185574
    166      1      O          -0.00070885    -0.04146329    -0.03537790
    167      2      H           0.06110165     0.06385517    -0.08558738
    168      2      H          -0.07063712     0.05528471    -0.01762559
    169      1      O           0.04693688     0.14980545    -0.02036546
    170      2      H          -0.07073434    -0.04621593     0.02131826
    171      2      H          -0.00515161    -0.08040724    -0.03657036
    172      1      O           0.10119544     0.09647866     0.08369040
    173      2      H          -0.04963521    -0.01375629     0.04553915
    174      2      H          -0.04895900     0.03007097    -0.07424295
    175      1      O           0.09909650    -0.10479902    -0.14103406
    176      2      H          -0.03264441     0.06716728     0.00434311
    177      2      H          -0.06066947    -0.05208661     0.05955823
    178      1      O           0.03639296     0.03925216     0.00423122
    179      2      H           0.00162522    -0.04056145     0.01643729
    180      2      H          -0.05777455     0.05148742     0.05291615
    181      1      O          -0.00937242    -0.10988157     0.15704437
    182      2      H          -0.03286163     0.06737872    -0.01546497
    183      2      H           0.03328074    -0.00437131    -0.08408446
    184      1      O           0.03341503    -0.03815679     0.03176646
    185      2      H          -0.07064954    -0.00238663     0.11951545
    186      2      H           0.01048077     0.08354162    -0.00587028
    187      1      O           0.04787607    -0.03332489    -0.02793734
    188      2      H           0.02399792     0.06194710     0.06492548
    189      2      H          -0.02798393    -0.06679871     0.00535477
    190      1      O           0.08577635     0.01901326     0.08902453
    191      2      H          -0.06033624    -0.04281083    -0.04707082
    192      2      H          -0.01191015     0.10992951    -0.00010088
 SUM OF ATOMIC FORCES          -0.25283375     0.83632178     0.07344102     0.87678539

 -------------------------------------------------------------------------------
 -                                                                             -
 -                                DBCSR STATISTICS                             -
 -                                                                             -
 -------------------------------------------------------------------------------
 COUNTER                                    TOTAL       BLAS       SMM       ACC
 flops     5 x     5 x   256           3402022400       0.0%    100.0%      0.0%
 flops    13 x     5 x   256           4036963840       0.0%    100.0%      0.0%
 flops     5 x    13 x   256           4167188480       0.0%    100.0%      0.0%
 flops    13 x    13 x   256           5990333440       0.0%    100.0%      0.0%
 flops inhomo. stacks                           0       0.0%      0.0%      0.0%
 flops total                        17.596508E+09       0.0%    100.0%      0.0%
 flops max/rank                     17.596508E+09       0.0%    100.0%      0.0%
 matmuls inhomo. stacks                         0       0.0%      0.0%      0.0%
 matmuls total                             581532       0.0%    100.0%      0.0%
 number of processed stacks                 42140       0.0%    100.0%      0.0%
 average stack size                                     0.0      13.8       0.0
 marketing flops                   333.927416E+09
 -------------------------------------------------------------------------------
 # multiplications                            301
 max memory usage/rank              30.516785E+09
 # max total images/rank                        1
 # max 3D layers                                1
 # MPI messages exchanged                       0
 MPI messages size (bytes):
  total size                         0.000000E+00
  min size                           0.000000E+00
  max size                           0.000000E+00
  average size                       0.000000E+00
 MPI breakdown and total messages size (bytes):
             size <=      128                   0                        0
       128 < size <=     8192                   0                        0
      8192 < size <=    32768                   0                        0
     32768 < size <=   131072                   0                        0
    131072 < size <=  4194304                   0                        0
   4194304 < size <= 16777216                   0                        0
  16777216 < size                               0                        0
 -------------------------------------------------------------------------------

 MEMORY| Estimated peak process memory [MiB]                               29100

 -------------------------------------------------------------------------------
 -                                                                             -
 -                           R E F E R E N C E S                               -
 -                                                                             -
 -------------------------------------------------------------------------------
 
 CP2K version 7.1, the CP2K developers group (2019).
 CP2K is freely available from https://www.cp2k.org/ .

 Schuett, Ole; Messmer, Peter; Hutter, Juerg; VandeVondele, Joost. 
 Electronic Structure Calculations on Graphics Processing Units, John
 Wiley & Sons, Ltd, 173-190 (2016). 
 GPU-Accelerated Sparse Matrix-Matrix Multiplication for
 Linear Scaling Density Functional Theory.
 https://dx.doi.org/10.1002/9781118670712.ch8

 Borstnik, U; VandeVondele, J; Weber, V; Hutter, J. 
 PARALLEL COMPUTING, 40 (5-6), 47-58 (2014). 
 Sparse matrix multiplication: The distributed block-compressed sparse
 row library.
 https://dx.doi.org/10.1016/j.parco.2014.03.012

 Hutter, J; Iannuzzi, M; Schiffmann, F; VandeVondele, J. 
 WIREs Comput Mol Sci., 4 (1), 15-25 (2014). 
 CP2K: atomistic simulations of condensed matter systems.
 https://dx.doi.org/10.1002/wcms.1159

 Krack, M. 
 THEORETICAL CHEMISTRY ACCOUNTS, 114 (1-3), 145-152 (2005). 
 Pseudopotentials for H to Kr optimized for gradient-corrected
 exchange-correlation functionals.
 https://dx.doi.org/10.1007/s00214-005-0655-y

 VandeVondele, J; Krack, M; Mohamed, F; Parrinello, M; Chassaing, T;
 Hutter, J. COMPUTER PHYSICS COMMUNICATIONS, 167 (2), 103-128 (2005). 
 QUICKSTEP: Fast and accurate density functional calculations using a
 mixed Gaussian and plane waves approach.
 https://dx.doi.org/10.1016/j.cpc.2004.12.014

 Frigo, M; Johnson, SG. 
 PROCEEDINGS OF THE IEEE, 93 (2), 216-231 (2005). 
 The design and implementation of FFTW3.
 https://dx.doi.org/10.1109/JPROC.2004.840301

 Hartwigsen, C; Goedecker, S; Hutter, J. 
 PHYSICAL REVIEW B, 58 (7), 3641-3662 (1998). 
 Relativistic separable dual-space Gaussian pseudopotentials from H to Rn.
 https://dx.doi.org/10.1103/PhysRevB.58.3641

 Lippert, G; Hutter, J; Parrinello, M. 
 MOLECULAR PHYSICS, 92 (3), 477-487 (1997). 
 A hybrid Gaussian and plane wave density functional scheme.
 https://dx.doi.org/10.1080/002689797170220

 Goedecker, S; Teter, M; Hutter, J. 
 PHYSICAL REVIEW B, 54 (3), 1703-1710 (1996). 
 Separable dual-space Gaussian pseudopotentials.
 https://dx.doi.org/10.1103/PhysRevB.54.1703


 -------------------------------------------------------------------------------
 -                                                                             -
 -                                T I M I N G                                  -
 -                                                                             -
 -------------------------------------------------------------------------------
 SUBROUTINE                       CALLS  ASD         SELF TIME        TOTAL TIME
                                MAXIMUM       AVERAGE  MAXIMUM  AVERAGE  MAXIMUM
 CP2K                                 1  1.0    1.053    1.053 7135.928 7135.928
 qs_forces                            1  2.0    0.000    0.000 7124.613 7124.613
 qs_energies                          1  3.0    0.000    0.000 7120.981 7120.981
 scf_env_do_scf                       1  4.0    0.001    0.001 7109.147 7109.147
 scf_env_do_scf_inner_loop          300  5.0    0.055    0.055 7109.146 7109.146
 gspace_mixing                      299  6.0   42.456   42.456 2988.196 2988.196
 broyden_mixing                     299  7.0 2701.413 2701.413 2701.416 2701.416
 qs_scf_new_mos                     300  6.0    0.008    0.008 1934.807 1934.807
 eigensolver                        300  7.0    0.034    0.034 1880.118 1880.118
 cp_fm_syevd                        300  8.0 1266.784 1266.784 1267.968 1267.968
 pw_transfer                       3912  9.9    0.389    0.389 1162.410 1162.410
 rebuild_ks_matrix                  301  7.0    0.001    0.001 1140.725 1140.725
 qs_ks_build_kohn_sham_matrix       301  8.0    0.098    0.098 1140.725 1140.725
 qs_ks_update_qs_env                300  6.0    0.004    0.004 1137.445 1137.445
 fft_wrap_pw1pw2                   3310 10.9    0.051    0.051 1132.692 1132.692
 qs_rho_update_rho                  301  6.0    0.003    0.003 1050.050 1050.050
 calculate_rho_elec                 301  7.0  510.464  510.464 1050.046 1050.046
 fft_wrap_pw1pw2_70                1504 11.2   89.420   89.420 1031.442 1031.442
 cp_fm_cholesky_restore             900  8.0  611.030  611.030  611.030  611.030
 fft3d_s                           3311 12.9  538.419  538.419  538.450  538.450
 density_rs2pw                      301  8.0    0.033    0.033  530.621  530.621
 pw_scatter_s                      1804 13.2  410.899  410.899  410.899  410.899
 pw_poisson_solve                   301  9.0  333.998  333.998  363.680  363.680
 sum_up_and_integrate               301  9.0   18.281   18.281  319.402  319.402
 integrate_v_rspace                 301 10.0    9.291    9.291  301.121  301.121
 potential_pw2rs                    301 11.0    2.523    2.523  277.252  277.252
 qs_vxc_create                      301  9.0    0.007    0.007  165.846  165.846
 xc_vxc_pw_create                   301 10.0   42.512   42.512  165.839  165.839
 -------------------------------------------------------------------------------

 The number of warnings for this run is : 1
 
 -------------------------------------------------------------------------------
  **** **** ******  **  PROGRAM ENDED AT                 2020-05-29 23:09:39.630
 ***** ** ***  *** **   PROGRAM RAN ON                                   gnode44
 **    ****   ******    PROGRAM RAN BY                               mayank.modi
 ***** **    ** ** **   PROGRAM PROCESS ID                                 39661
  **** **  *******  **  PROGRAM STOPPED IN /home/mayank.modi/ab-initio-thermodyn
                                           amics-of-water/mayank/cp2k_energy_cal
                                           culations
