 DBCSR| CPU Multiplication driver                                           XSMM
 DBCSR| Multrec recursion limit                                              512
 DBCSR| Multiplication stack size                                           1000
 DBCSR| Maximum elements for images                                    UNLIMITED
 DBCSR| Multiplicative factor virtual images                                   1
 DBCSR| Use multiplication densification                                       T
 DBCSR| Multiplication size stacks                                             3


  **** **** ******  **  PROGRAM STARTED AT               2020-05-27 05:54:11.198
 ***** ** ***  *** **   PROGRAM STARTED ON                               gnode44
 **    ****   ******    PROGRAM STARTED BY                           mayank.modi
 ***** **    ** ** **   PROGRAM PROCESS ID                                 32280
  **** **  *******  **  PROGRAM STARTED IN /home/mayank.modi/ab-initio-thermodyn
                                           amics-of-water/mayank/cp2k_energy_cal
                                           culations

 CP2K| version string:                                          CP2K version 7.1
 CP2K| source code revision number:                                  git:e635599
 CP2K| cp2kflags: omp libint fftw3 libxc xsmm spglib                            
 CP2K| is freely available from                            https://www.cp2k.org/
 CP2K| Program compiled at                          Mon Dec 23 19:23:12 CET 2019
 CP2K| Program compiled on                                                pc9404
 CP2K| Program compiled for                                Linux-x86-64-gfortran
 CP2K| Data directory path                                        /opt/cp2k/data
 CP2K| Input file name                                  input_training/input7.in

 GLOBAL| Force Environment number                                              1
 GLOBAL| Basis set file name                                           BASIS_SET
 GLOBAL| Potential file name                                      GTH_POTENTIALS
 GLOBAL| MM Potential file name                                     MM_POTENTIAL
 GLOBAL| Coordinate file name                                      __STD_INPUT__
 GLOBAL| Method name                                                        CP2K
 GLOBAL| Project name                                                   H2O_bulk
 GLOBAL| Preferred FFT library                                             FFTW3
 GLOBAL| Preferred diagonalization lib.                                       SL
 GLOBAL| Run type                                                   ENERGY_FORCE
 GLOBAL| All-to-all communication in single precision                          F
 GLOBAL| FFTs using library dependent lengths                                  F
 GLOBAL| Global print level                                                  LOW
 GLOBAL| MPI I/O enabled                                                       T
 GLOBAL| Total number of message passing processes                             1
 GLOBAL| Number of threads for this process                                   36
 GLOBAL| This output is from process                                           0
 GLOBAL| CPU model name                Intel(R) Xeon(R) CPU E5-2640 v4 @ 2.40GHz
 GLOBAL| CPUID                                                              1002
 GLOBAL| Compiled for CPUID                                                    0

 MEMORY| system memory details [Kb]
 MEMORY|                        rank 0           min           max       average
 MEMORY| MemTotal            131893056     131893056     131893056     131893056
 MEMORY| MemFree             123444160     123444160     123444160     123444160
 MEMORY| Buffers               2080588       2080588       2080588       2080588
 MEMORY| Cached                2768168       2768168       2768168       2768168
 MEMORY| Slab                  3284564       3284564       3284564       3284564
 MEMORY| SReclaimable          3096768       3096768       3096768       3096768
 MEMORY| MemLikelyFree       131389684     131389684     131389684     131389684


 GENERATE| WARNING:: No connections detected for Hydrogen - Atom Nr:        21 !
 GENERATE| WARNING:: No connections detected for Hydrogen - Atom Nr:        42 !
 GENERATE| WARNING:: No connections detected for Hydrogen - Atom Nr:        51 !
 GENERATE| WARNING:: No connections detected for Hydrogen - Atom Nr:        56 !
 GENERATE| WARNING:: No connections detected for Hydrogen - Atom Nr:        77 !
 GENERATE| WARNING:: No connections detected for Hydrogen - Atom Nr:       101 !
 GENERATE| WARNING:: No connections detected for Hydrogen - Atom Nr:       153 !
 GENERATE| WARNING:: No connections detected for Hydrogen - Atom Nr:       176 !
 GENERATE| WARNING:: No connections detected for Hydrogen - Atom Nr:       179 !
 GENERATE| WARNING:: No connections detected for Hydrogen - Atom Nr:       191 !
 GENERATE|  Preliminary Number of Bonds generated:                             0
 GENERATE|  Achieved consistency in connectivity generation.

 *******************************************************************************
 *******************************************************************************
 **                                                                           **
 **     #####                         ##              ##                      **
 **    ##   ##            ##          ##              ##                      **
 **   ##     ##                       ##            ######                    **
 **   ##     ##  ##   ##  ##   #####  ##  ##   ####   ##    #####    #####    **
 **   ##     ##  ##   ##  ##  ##      ## ##   ##      ##   ##   ##  ##   ##   **
 **   ##  ## ##  ##   ##  ##  ##      ####     ###    ##   ######   ######    **
 **    ##  ###   ##   ##  ##  ##      ## ##      ##   ##   ##       ##        **
 **     #######   #####   ##   #####  ##  ##  ####    ##    #####   ##        **
 **           ##                                                    ##        **
 **                                                                           **
 **                                                ... make the atoms dance   **
 **                                                                           **
 **            Copyright (C) by CP2K developers group (2000 - 2019)           **
 **                                                                           **
 *******************************************************************************


 TOTAL NUMBERS AND MAXIMUM NUMBERS

  Total number of            - Atomic kinds:                                   2
                             - Atoms:                                        192
                             - Shell sets:                                   384
                             - Shells:                                       704
                             - Primitive Cartesian functions:                960
                             - Cartesian basis functions:                   1536
                             - Spherical basis functions:                   1472

  Maximum angular momentum of- Orbital basis functions:                        2
                             - Local part of the GTH pseudopotential:          2
                             - Non-local part of the GTH pseudopotential:      0


 SCF PARAMETERS         Density guess:                                    ATOMIC
                        --------------------------------------------------------
                        max_scf:                                             300
                        max_scf_history:                                       0
                        max_diis:                                              4
                        --------------------------------------------------------
                        eps_scf:                                        1.00E-07
                        eps_scf_history:                                0.00E+00
                        eps_diis:                                       1.00E-01
                        eps_eigval:                                     1.00E-05
                        --------------------------------------------------------
                        level_shift [a.u.]:                                 0.00
                        --------------------------------------------------------
                        Mixing method:                            BROYDEN_MIXING
                                                charge density mixing in g-space
                        --------------------------------------------------------
                        No outer SCF

 Number of electrons:                                                        512
 Number of occupied orbitals:                                                256
 Number of molecular orbitals:                                               256

 Number of orbital functions:                                               1472
 Number of independent orbital functions:                                   1472

 Extrapolation method: initial_guess


 SCF WAVEFUNCTION OPTIMIZATION

  Step     Update method      Time    Convergence         Total energy    Change
  ------------------------------------------------------------------------------
     1 NoMix/Diag. 0.40E+00    9.8     0.68793960     -1063.1703734674 -1.06E+03
     2 Broy./Diag. 0.40E+00   15.6     1.96796152      -983.4410702855  7.97E+01
     3 Broy./Diag. 0.40E+00   17.1     1.91206579     -1298.0039847522 -3.15E+02
     4 Broy./Diag. 0.40E+00   17.1     1.86328404     -1163.6407665834  1.34E+02
     5 Broy./Diag. 0.40E+00   17.7     1.98590037     -1104.8927484829  5.87E+01
     6 Broy./Diag. 0.40E+00   19.2     2.01908909     -1082.8629191679  2.20E+01
     7 Broy./Diag. 0.40E+00   20.2     1.84376668     -1108.5029228677 -2.56E+01
     8 Broy./Diag. 0.40E+00   21.2     1.89123665     -1075.3198447799  3.32E+01
     9 Broy./Diag. 0.40E+00   20.5     1.86000552     -1096.7046367870 -2.14E+01
    10 Broy./Diag. 0.40E+00   22.4     1.84771887     -1072.5468245837  2.42E+01
    11 Broy./Diag. 0.40E+00   23.2     2.00704410     -1075.8233264437 -3.28E+00
    12 Broy./Diag. 0.40E+00   23.2     1.93177292     -1082.4922093872 -6.67E+00
    13 Broy./Diag. 0.40E+00   24.1     1.83349752     -1060.5310923183  2.20E+01
    14 Broy./Diag. 0.40E+00   22.7     1.83661266     -1089.3560922444 -2.88E+01
    15 Broy./Diag. 0.40E+00   22.6     1.87037701     -1075.6551861625  1.37E+01
    16 Broy./Diag. 0.40E+00   22.3     1.93306180     -1082.3463012158 -6.69E+00
    17 Broy./Diag. 0.40E+00   22.8     1.93306175     -1063.1388270548  1.92E+01
    18 Broy./Diag. 0.40E+00   23.5     1.92938036     -1070.9359056255 -7.80E+00
    19 Broy./Diag. 0.40E+00   23.1     1.90768985     -1084.3131989029 -1.34E+01
    20 Broy./Diag. 0.40E+00   24.2     1.87302882     -1082.1428858048  2.17E+00
    21 Broy./Diag. 0.40E+00   23.4     1.89479860     -1077.0532096323  5.09E+00
    22 Broy./Diag. 0.40E+00   23.2     1.92270548     -1083.0097284960 -5.96E+00
    23 Broy./Diag. 0.40E+00   22.2     1.94968576     -1063.2423052807  1.98E+01
    24 Broy./Diag. 0.40E+00   21.1     1.95559880     -1083.4197174950 -2.02E+01
    25 Broy./Diag. 0.40E+00   23.1     1.89344586     -1073.8654379695  9.55E+00
    26 Broy./Diag. 0.40E+00   24.3     1.93269746     -1072.5026850831  1.36E+00
    27 Broy./Diag. 0.40E+00   22.3     1.93269731     -1067.6249940923  4.88E+00
    28 Broy./Diag. 0.40E+00   21.5     1.96427898     -1080.4098865016 -1.28E+01
    29 Broy./Diag. 0.40E+00   22.3     1.94951709     -1068.5301602889  1.19E+01
    30 Broy./Diag. 0.40E+00   23.3     1.85106420     -1074.7602654977 -6.23E+00
    31 Broy./Diag. 0.40E+00   23.5     1.88489436     -1070.7326513774  4.03E+00
    32 Broy./Diag. 0.40E+00   23.6     1.90120223     -1062.1111437345  8.62E+00
    33 Broy./Diag. 0.40E+00   23.7     1.92516234     -1087.1129375183 -2.50E+01
    34 Broy./Diag. 0.40E+00   22.3     1.91281652     -1066.4752001541  2.06E+01
    35 Broy./Diag. 0.40E+00   23.9     1.94490358     -1081.2996759814 -1.48E+01
    36 Broy./Diag. 0.40E+00   23.0     1.87361613     -1068.5806161207  1.27E+01
    37 Broy./Diag. 0.40E+00   23.2     1.85350926     -1081.9150835036 -1.33E+01
    38 Broy./Diag. 0.40E+00   23.1     1.90433720     -1064.4924119617  1.74E+01
    39 Broy./Diag. 0.40E+00   23.4     1.89611077     -1083.4563902528 -1.90E+01
    40 Broy./Diag. 0.40E+00   23.7     1.89117501     -1067.0193226429  1.64E+01
    41 Broy./Diag. 0.40E+00   23.9     1.88369604     -1081.4392031631 -1.44E+01
    42 Broy./Diag. 0.40E+00   23.8     1.86189063     -1077.2787410917  4.16E+00
    43 Broy./Diag. 0.40E+00   24.4     1.91515921     -1084.0849500108 -6.81E+00
    44 Broy./Diag. 0.40E+00   25.1     1.90060205     -1061.8760717178  2.22E+01
    45 Broy./Diag. 0.40E+00   24.9     1.92031618     -1088.2875848678 -2.64E+01
    46 Broy./Diag. 0.40E+00   22.3     1.89520624     -1078.3567106619  9.93E+00
    47 Broy./Diag. 0.40E+00   22.5     1.87978668     -1068.7285384749  9.63E+00
    48 Broy./Diag. 0.40E+00   23.1     1.95196185     -1064.3271086647  4.40E+00
    49 Broy./Diag. 0.40E+00   24.2     1.94710519     -1083.3053981855 -1.90E+01
    50 Broy./Diag. 0.40E+00   23.1     1.87431510     -1066.2546755056  1.71E+01
    51 Broy./Diag. 0.40E+00   23.4     1.91662463     -1077.9085942538 -1.17E+01
    52 Broy./Diag. 0.40E+00   23.1     1.90308328     -1069.0058662594  8.90E+00
    53 Broy./Diag. 0.40E+00   24.6     1.87287602     -1075.5246677493 -6.52E+00
    54 Broy./Diag. 0.40E+00   23.4     1.91694836     -1069.8779358223  5.65E+00
    55 Broy./Diag. 0.40E+00   23.3     1.92204087     -1078.5172537172 -8.64E+00
    56 Broy./Diag. 0.40E+00   24.4     1.89098151     -1074.3162125522  4.20E+00
    57 Broy./Diag. 0.40E+00   22.7     1.89324391     -1069.8910837074  4.43E+00
    58 Broy./Diag. 0.40E+00   22.1     1.92712653     -1066.2102178407  3.68E+00
    59 Broy./Diag. 0.40E+00   22.0     1.92898715     -1083.0562111013 -1.68E+01
    60 Broy./Diag. 0.40E+00   24.7     1.90061293     -1083.1205094172 -6.43E-02
    61 Broy./Diag. 0.40E+00   23.9     1.87138605     -1063.2771712032  1.98E+01
    62 Broy./Diag. 0.40E+00   23.7     1.89970077     -1066.4611671341 -3.18E+00
    63 Broy./Diag. 0.40E+00   21.6     1.89151326     -1074.8130268633 -8.35E+00
    64 Broy./Diag. 0.40E+00   22.6     1.92994078     -1074.1199496237  6.93E-01
    65 Broy./Diag. 0.40E+00   24.1     1.89547911     -1069.3555114612  4.76E+00
    66 Broy./Diag. 0.40E+00   23.5     1.86772442     -1073.0843124835 -3.73E+00
    67 Broy./Diag. 0.40E+00   21.7     1.94516604     -1081.3351570958 -8.25E+00
    68 Broy./Diag. 0.40E+00   23.4     1.91315761     -1070.6057743053  1.07E+01
    69 Broy./Diag. 0.40E+00   23.0     1.90535243     -1071.7630467670 -1.16E+00
    70 Broy./Diag. 0.40E+00   21.7     1.94635658     -1074.1406123070 -2.38E+00
    71 Broy./Diag. 0.40E+00   22.9     1.89339962     -1069.5414691408  4.60E+00
    72 Broy./Diag. 0.40E+00   23.3     1.87530051     -1076.5241671920 -6.98E+00
    73 Broy./Diag. 0.40E+00   23.1     1.94873595     -1073.8843789067  2.64E+00
    74 Broy./Diag. 0.40E+00   23.4     1.86707700     -1075.3248743453 -1.44E+00
    75 Broy./Diag. 0.40E+00   24.4     1.86167974     -1067.1418723366  8.18E+00
    76 Broy./Diag. 0.40E+00   23.9     1.89748704     -1073.5045490600 -6.36E+00
    77 Broy./Diag. 0.40E+00   23.2     1.90494717     -1077.8623539322 -4.36E+00
    78 Broy./Diag. 0.40E+00   23.2     1.96908240     -1080.7120494853 -2.85E+00
    79 Broy./Diag. 0.40E+00   23.8     1.87882459     -1063.7540274994  1.70E+01
    80 Broy./Diag. 0.40E+00   23.0     1.91601993     -1067.7515097396 -4.00E+00
    81 Broy./Diag. 0.40E+00   23.3     1.91601940     -1075.0882914607 -7.34E+00
    82 Broy./Diag. 0.40E+00   23.4     1.93029593     -1076.1352212684 -1.05E+00
    83 Broy./Diag. 0.40E+00   22.5     1.94717223     -1081.5431765715 -5.41E+00
    84 Broy./Diag. 0.40E+00   21.5     1.92177185     -1078.6256196735  2.92E+00
    85 Broy./Diag. 0.40E+00   22.9     1.90048481     -1070.8890230495  7.74E+00
    86 Broy./Diag. 0.40E+00   22.6     1.82702301     -1070.8174531798  7.16E-02
    87 Broy./Diag. 0.40E+00   23.1     1.91817575     -1062.2306932208  8.59E+00
    88 Broy./Diag. 0.40E+00   23.4     1.92568489     -1087.5842197427 -2.54E+01
    89 Broy./Diag. 0.40E+00   23.4     1.90884021     -1068.9895829752  1.86E+01
    90 Broy./Diag. 0.40E+00   22.9     1.94256470     -1077.8025722757 -8.81E+00
    91 Broy./Diag. 0.40E+00   23.8     1.88252983     -1072.3841600563  5.42E+00
    92 Broy./Diag. 0.40E+00   21.5     1.87875474     -1071.5431962853  8.41E-01
    93 Broy./Diag. 0.40E+00   22.7     1.92928621     -1080.9457567648 -9.40E+00
    94 Broy./Diag. 0.40E+00   22.9     1.93710503     -1077.8278222770  3.12E+00
    95 Broy./Diag. 0.40E+00   23.0     1.89382444     -1065.6926603398  1.21E+01
    96 Broy./Diag. 0.40E+00   23.7     1.91820726     -1072.1874244416 -6.49E+00
    97 Broy./Diag. 0.40E+00   23.3     1.92258951     -1077.9840987658 -5.80E+00
    98 Broy./Diag. 0.40E+00   22.5     1.91400379     -1065.9077201951  1.21E+01
    99 Broy./Diag. 0.40E+00   21.0     1.92717137     -1081.9886489519 -1.61E+01
   100 Broy./Diag. 0.40E+00   23.2     1.92717147     -1070.8172947260  1.12E+01
   101 Broy./Diag. 0.40E+00   23.3     1.92592148     -1079.6672183170 -8.85E+00
   102 Broy./Diag. 0.40E+00   23.0     1.84720926     -1065.2897412774  1.44E+01
   103 Broy./Diag. 0.40E+00   23.6     1.93302135     -1082.3630713676 -1.71E+01
   104 Broy./Diag. 0.40E+00   22.9     1.97500040     -1068.5813246909  1.38E+01
   105 Broy./Diag. 0.40E+00   23.4     1.87927781     -1077.1535978470 -8.57E+00
   106 Broy./Diag. 0.40E+00   22.8     1.96044842     -1064.8149290110  1.23E+01
   107 Broy./Diag. 0.40E+00   22.7     1.88285130     -1069.2292348562 -4.41E+00
   108 Broy./Diag. 0.40E+00   23.4     1.94437373     -1081.5163365740 -1.23E+01
   109 Broy./Diag. 0.40E+00   24.0     1.94283169     -1084.0640724650 -2.55E+00
   110 Broy./Diag. 0.40E+00   22.7     1.92329214     -1063.3444966276  2.07E+01
   111 Broy./Diag. 0.40E+00   23.3     1.96005089     -1066.0112803133 -2.67E+00
   112 Broy./Diag. 0.40E+00   24.0     1.91828063     -1076.2746894135 -1.03E+01
   113 Broy./Diag. 0.40E+00   24.5     1.97097057     -1076.1389999602  1.36E-01
   114 Broy./Diag. 0.40E+00   21.8     1.89706383     -1076.2282302571 -8.92E-02
   115 Broy./Diag. 0.40E+00   22.6     1.99644504     -1071.1590766242  5.07E+00
   116 Broy./Diag. 0.40E+00   22.8     1.88263798     -1071.2525820192 -9.35E-02
   117 Broy./Diag. 0.40E+00   23.2     1.85648916     -1068.8678359086  2.38E+00
   118 Broy./Diag. 0.40E+00   23.5     1.87569948     -1062.9590660144  5.91E+00
   119 Broy./Diag. 0.40E+00   22.6     1.92458200     -1084.0495436557 -2.11E+01
   120 Broy./Diag. 0.40E+00   22.9     1.88930757     -1076.5262229162  7.52E+00
   121 Broy./Diag. 0.40E+00   24.4     1.92706725     -1065.2357242637  1.13E+01
   122 Broy./Diag. 0.40E+00   23.3     1.96706452     -1072.5435757229 -7.31E+00
   123 Broy./Diag. 0.40E+00   24.6     1.95779541     -1078.0699662630 -5.53E+00
   124 Broy./Diag. 0.40E+00   22.5     1.92253648     -1075.2513080783  2.82E+00
   125 Broy./Diag. 0.40E+00   22.4     1.94368471     -1073.6258829427  1.63E+00
   126 Broy./Diag. 0.40E+00   22.2     1.84803094     -1071.8940533475  1.73E+00
   127 Broy./Diag. 0.40E+00   22.7     1.92727683     -1072.0038096243 -1.10E-01
   128 Broy./Diag. 0.40E+00   22.6     1.87190413     -1070.2797146523  1.72E+00
   129 Broy./Diag. 0.40E+00   22.8     1.93237858     -1079.6193813707 -9.34E+00
   130 Broy./Diag. 0.40E+00   22.5     1.91937994     -1078.1020417447  1.52E+00
   131 Broy./Diag. 0.40E+00   20.9     1.93960175     -1069.0513669977  9.05E+00
   132 Broy./Diag. 0.40E+00   23.3     1.89887222     -1067.5696610587  1.48E+00
   133 Broy./Diag. 0.40E+00   24.2     1.90240136     -1071.0920512964 -3.52E+00
   134 Broy./Diag. 0.40E+00   22.7     1.96972462     -1078.3734283493 -7.28E+00
   135 Broy./Diag. 0.40E+00   20.6     1.87517524     -1082.0285689050 -3.66E+00
   136 Broy./Diag. 0.40E+00   24.0     1.95578297     -1073.6422090865  8.39E+00
   137 Broy./Diag. 0.40E+00   22.7     1.95915816     -1064.8501202328  8.79E+00
   138 Broy./Diag. 0.40E+00   21.1     1.82826993     -1071.5650867915 -6.71E+00
   139 Broy./Diag. 0.40E+00   22.4     1.96142120     -1067.9305731624  3.63E+00
   140 Broy./Diag. 0.40E+00   22.0     1.89358688     -1081.6442934395 -1.37E+01
   141 Broy./Diag. 0.40E+00   21.1     1.93578298     -1079.0063201317  2.64E+00
   142 Broy./Diag. 0.40E+00   20.9     1.91757377     -1069.4570471588  9.55E+00
   143 Broy./Diag. 0.40E+00   20.9     1.92907453     -1070.5413675028 -1.08E+00
   144 Broy./Diag. 0.40E+00   20.1     1.87607941     -1072.0467993598 -1.51E+00
   145 Broy./Diag. 0.40E+00   20.2     1.90422145     -1080.3130472472 -8.27E+00
   146 Broy./Diag. 0.40E+00   22.4     1.92024591     -1080.9026624027 -5.90E-01
   147 Broy./Diag. 0.40E+00   22.6     1.93644962     -1068.3153572718  1.26E+01
   148 Broy./Diag. 0.40E+00   21.0     1.82122500     -1064.0512286578  4.26E+00
   149 Broy./Diag. 0.40E+00   22.3     1.89378681     -1065.5625866318 -1.51E+00
   150 Broy./Diag. 0.40E+00   22.5     1.95202816     -1080.7732586729 -1.52E+01
   151 Broy./Diag. 0.40E+00   21.6     1.84069630     -1074.3511687638  6.42E+00
   152 Broy./Diag. 0.40E+00   21.2     1.94383066     -1072.4126031242  1.94E+00
   153 Broy./Diag. 0.40E+00   23.3     1.95064861     -1073.7913919495 -1.38E+00
   154 Broy./Diag. 0.40E+00   23.4     1.87945666     -1067.6533977577  6.14E+00
   155 Broy./Diag. 0.40E+00   22.7     1.89886807     -1076.1989167947 -8.55E+00
   156 Broy./Diag. 0.40E+00   23.4     1.95954798     -1077.2489938242 -1.05E+00
   157 Broy./Diag. 0.40E+00   23.1     1.83083228     -1073.6376558322  3.61E+00
   158 Broy./Diag. 0.40E+00   23.6     1.90805965     -1074.3175322649 -6.80E-01
   159 Broy./Diag. 0.40E+00   23.6     1.88701764     -1064.0630649768  1.03E+01
   160 Broy./Diag. 0.40E+00   24.1     1.96802475     -1084.8797755983 -2.08E+01
   161 Broy./Diag. 0.40E+00   21.5     1.95199832     -1069.2927021351  1.56E+01
   162 Broy./Diag. 0.40E+00   22.1     1.93678833     -1064.7256534985  4.57E+00
   163 Broy./Diag. 0.40E+00   20.7     1.87304555     -1077.8007828381 -1.31E+01
   164 Broy./Diag. 0.40E+00   23.0     1.95043988     -1086.6791592457 -8.88E+00
   165 Broy./Diag. 0.40E+00   22.9     1.89565119     -1070.9043522864  1.58E+01
   166 Broy./Diag. 0.40E+00   22.7     1.96573581     -1071.5590665903 -6.55E-01
   167 Broy./Diag. 0.40E+00   23.0     1.99878971     -1071.1955235768  3.64E-01
   168 Broy./Diag. 0.40E+00   22.8     1.90007346     -1060.9408540877  1.03E+01
   169 Broy./Diag. 0.40E+00   23.3     1.93804483     -1083.4388730778 -2.25E+01
   170 Broy./Diag. 0.40E+00   23.1     1.92755225     -1071.6652634200  1.18E+01
   171 Broy./Diag. 0.40E+00   23.4     1.89372087     -1067.4172523290  4.25E+00
   172 Broy./Diag. 0.40E+00   22.7     1.91597654     -1075.8079062903 -8.39E+00
   173 Broy./Diag. 0.40E+00   23.1     1.94560944     -1082.7997502291 -6.99E+00
   174 Broy./Diag. 0.40E+00   23.0     1.94560931     -1069.0310983338  1.38E+01
   175 Broy./Diag. 0.40E+00   23.7     1.93436679     -1075.1661302317 -6.14E+00
   176 Broy./Diag. 0.40E+00   23.1     1.86256943     -1077.8159945580 -2.65E+00
   177 Broy./Diag. 0.40E+00   21.8     1.82777267     -1070.2121157748  7.60E+00
   178 Broy./Diag. 0.40E+00   22.8     1.91093144     -1071.9673061479 -1.76E+00
   179 Broy./Diag. 0.40E+00   23.0     1.85589173     -1069.6585887436  2.31E+00
   180 Broy./Diag. 0.40E+00   23.2     1.88139906     -1065.1685904131  4.49E+00
   181 Broy./Diag. 0.40E+00   23.2     1.94752537     -1079.9693046200 -1.48E+01
   182 Broy./Diag. 0.40E+00   23.8     1.94752543     -1076.3917568662  3.58E+00
   183 Broy./Diag. 0.40E+00   23.9     1.97125269     -1079.3850600063 -2.99E+00
   184 Broy./Diag. 0.40E+00   23.1     1.84294495     -1066.6634700094  1.27E+01
   185 Broy./Diag. 0.40E+00   23.7     1.92044130     -1068.6326416744 -1.97E+00
   186 Broy./Diag. 0.40E+00   23.5     1.91542048     -1072.1298318786 -3.50E+00
   187 Broy./Diag. 0.40E+00   22.8     1.88585633     -1071.9299619328  2.00E-01
   188 Broy./Diag. 0.40E+00   23.9     1.91586691     -1072.1294341544 -1.99E-01
   189 Broy./Diag. 0.40E+00   23.4     1.91586612     -1072.5698201609 -4.40E-01
   190 Broy./Diag. 0.40E+00   23.4     1.90131258     -1084.9824756083 -1.24E+01
   191 Broy./Diag. 0.40E+00   22.1     1.94148439     -1070.4348504468  1.45E+01
   192 Broy./Diag. 0.40E+00   22.9     2.00611420     -1068.4223397719  2.01E+00
   193 Broy./Diag. 0.40E+00   23.1     1.87566386     -1081.0821341947 -1.27E+01
   194 Broy./Diag. 0.40E+00   22.9     1.89733000     -1074.0708338016  7.01E+00
   195 Broy./Diag. 0.40E+00   23.3     1.84478283     -1072.1444431887  1.93E+00
   196 Broy./Diag. 0.40E+00   23.4     1.88702568     -1065.5975479222  6.55E+00
   197 Broy./Diag. 0.40E+00   21.8     1.95747975     -1079.7808990369 -1.42E+01
   198 Broy./Diag. 0.40E+00   23.0     1.90493616     -1068.2559273096  1.15E+01
   199 Broy./Diag. 0.40E+00   23.0     1.91253137     -1082.7752623789 -1.45E+01
   200 Broy./Diag. 0.40E+00   22.9     1.92043982     -1064.7503225394  1.80E+01
   201 Broy./Diag. 0.40E+00   24.0     1.92619939     -1087.4604783425 -2.27E+01
   202 Broy./Diag. 0.40E+00   21.4     1.91448860     -1070.4821333880  1.70E+01
   203 Broy./Diag. 0.40E+00   23.0     1.96898069     -1069.8972642711  5.85E-01
   204 Broy./Diag. 0.40E+00   23.2     1.88918359     -1073.2385059747 -3.34E+00
   205 Broy./Diag. 0.40E+00   22.9     1.89463538     -1074.1420144343 -9.04E-01
   206 Broy./Diag. 0.40E+00   22.3     1.99326003     -1077.4867335906 -3.34E+00
   207 Broy./Diag. 0.40E+00   22.2     1.92410522     -1069.6567242613  7.83E+00
   208 Broy./Diag. 0.40E+00   23.8     1.86559760     -1071.4326075627 -1.78E+00
   209 Broy./Diag. 0.40E+00   24.3     1.87811119     -1070.3177972019  1.11E+00
   210 Broy./Diag. 0.40E+00   23.5     1.89711965     -1070.2830711093  3.47E-02
   211 Broy./Diag. 0.40E+00   22.8     1.92480016     -1079.9474399505 -9.66E+00
   212 Broy./Diag. 0.40E+00   23.1     1.95574764     -1073.9600598933  5.99E+00
   213 Broy./Diag. 0.40E+00   22.8     1.94234796     -1077.8295044837 -3.87E+00
   214 Broy./Diag. 0.40E+00   23.4     1.89119358     -1064.7439411815  1.31E+01
   215 Broy./Diag. 0.40E+00   24.1     1.91922188     -1080.6730807240 -1.59E+01
   216 Broy./Diag. 0.40E+00   24.1     1.92130177     -1071.9972674640  8.68E+00
   217 Broy./Diag. 0.40E+00   23.8     1.89296554     -1072.2825798931 -2.85E-01
   218 Broy./Diag. 0.40E+00   23.6     1.90570002     -1074.4444639800 -2.16E+00
   219 Broy./Diag. 0.40E+00   23.1     1.90555166     -1085.7410419133 -1.13E+01
   220 Broy./Diag. 0.40E+00   22.9     1.98545197     -1076.3358193208  9.41E+00
   221 Broy./Diag. 0.40E+00   23.4     1.82477304     -1060.4639004953  1.59E+01
   222 Broy./Diag. 0.40E+00   24.4     1.90975975     -1077.2149036326 -1.68E+01
   223 Broy./Diag. 0.40E+00   23.2     1.97078011     -1073.9797079018  3.24E+00
   224 Broy./Diag. 0.40E+00   22.9     1.91726354     -1072.1342815874  1.85E+00
   225 Broy./Diag. 0.40E+00   23.4     1.90050724     -1074.4212374416 -2.29E+00
   226 Broy./Diag. 0.40E+00   24.2     1.93464010     -1077.0251750683 -2.60E+00
   227 Broy./Diag. 0.40E+00   22.9     1.87538392     -1068.1752111471  8.85E+00
   228 Broy./Diag. 0.40E+00   23.0     1.89190138     -1076.8629871842 -8.69E+00
   229 Broy./Diag. 0.40E+00   23.3     1.89305766     -1069.8807328787  6.98E+00
   230 Broy./Diag. 0.40E+00   24.5     1.93844211     -1072.0215344022 -2.14E+00
   231 Broy./Diag. 0.40E+00   22.5     1.88537838     -1080.6482920583 -8.63E+00
   232 Broy./Diag. 0.40E+00   22.3     1.88403745     -1072.6184884633  8.03E+00
   233 Broy./Diag. 0.40E+00   22.4     1.96743602     -1066.8553029073  5.76E+00
   234 Broy./Diag. 0.40E+00   22.6     1.85373988     -1079.6815001441 -1.28E+01
   235 Broy./Diag. 0.40E+00   22.6     1.91069697     -1064.8715033702  1.48E+01
   236 Broy./Diag. 0.40E+00   23.3     1.92146003     -1085.2074548534 -2.03E+01
   237 Broy./Diag. 0.40E+00   22.2     1.96688580     -1076.5861777523  8.62E+00
   238 Broy./Diag. 0.40E+00   23.7     1.87332010     -1066.5878610661  1.00E+01
   239 Broy./Diag. 0.40E+00   24.2     1.90498596     -1070.7490673543 -4.16E+00
   240 Broy./Diag. 0.40E+00   23.4     1.93097962     -1079.7801498214 -9.03E+00
   241 Broy./Diag. 0.40E+00   22.8     1.93097993     -1069.5800681893  1.02E+01
   242 Broy./Diag. 0.40E+00   22.8     1.95183179     -1081.8510207183 -1.23E+01
   243 Broy./Diag. 0.40E+00   23.1     1.87755483     -1068.7774103334  1.31E+01
   244 Broy./Diag. 0.40E+00   23.7     1.91989667     -1071.8515368545 -3.07E+00
   245 Broy./Diag. 0.40E+00   23.6     1.90183561     -1071.5528656901  2.99E-01
   246 Broy./Diag. 0.40E+00   23.1     1.88045305     -1067.7182270377  3.83E+00
   247 Broy./Diag. 0.40E+00   23.8     1.90562902     -1071.0956260474 -3.38E+00
   248 Broy./Diag. 0.40E+00   24.3     1.90562899     -1078.0220202260 -6.93E+00
   249 Broy./Diag. 0.40E+00   21.2     1.95254484     -1087.6274104668 -9.61E+00
   250 Broy./Diag. 0.40E+00   22.7     1.89663202     -1065.3531755651  2.23E+01
   251 Broy./Diag. 0.40E+00   22.4     1.96347521     -1067.0104456359 -1.66E+00
   252 Broy./Diag. 0.40E+00   23.0     1.99966085     -1072.3187045199 -5.31E+00
   253 Broy./Diag. 0.40E+00   22.9     1.86620783     -1082.1759705382 -9.86E+00
   254 Broy./Diag. 0.40E+00   23.0     1.88725298     -1065.3845641848  1.68E+01
   255 Broy./Diag. 0.40E+00   24.3     1.88545926     -1073.3857980388 -8.00E+00
   256 Broy./Diag. 0.40E+00   21.5     1.92939368     -1088.5713424410 -1.52E+01
   257 Broy./Diag. 0.40E+00   21.8     1.95427247     -1075.8134504980  1.28E+01
   258 Broy./Diag. 0.40E+00   23.3     1.85070185     -1070.2738322032  5.54E+00
   259 Broy./Diag. 0.40E+00   24.0     1.91490100     -1071.8905722865 -1.62E+00
   260 Broy./Diag. 0.40E+00   22.3     1.91847581     -1067.8607975780  4.03E+00
   261 Broy./Diag. 0.40E+00   21.7     1.99161907     -1076.1342705126 -8.27E+00
   262 Broy./Diag. 0.40E+00   22.3     1.87725533     -1072.2195660583  3.91E+00
   263 Broy./Diag. 0.40E+00   22.6     1.93433027     -1074.8135162352 -2.59E+00
   264 Broy./Diag. 0.40E+00   22.3     1.95030192     -1076.6500289727 -1.84E+00
   265 Broy./Diag. 0.40E+00   20.8     1.95030199     -1077.7004821602 -1.05E+00
   266 Broy./Diag. 0.40E+00   22.1     1.96370390     -1070.9035617662  6.80E+00
   267 Broy./Diag. 0.40E+00   20.9     1.96321854     -1071.8859089054 -9.82E-01
   268 Broy./Diag. 0.40E+00   22.1     1.87379247     -1080.4022845259 -8.52E+00
   269 Broy./Diag. 0.40E+00   21.5     1.87946995     -1067.5925020182  1.28E+01
   270 Broy./Diag. 0.40E+00   21.9     1.95954949     -1078.8547697570 -1.13E+01
   271 Broy./Diag. 0.40E+00   22.2     1.92601949     -1071.9510075934  6.90E+00
   272 Broy./Diag. 0.40E+00   23.1     1.95133697     -1070.6373366957  1.31E+00
   273 Broy./Diag. 0.40E+00   23.3     1.90136659     -1069.6522495443  9.85E-01
   274 Broy./Diag. 0.40E+00   23.1     1.90810762     -1077.4618163446 -7.81E+00
   275 Broy./Diag. 0.40E+00   23.4     1.90565633     -1074.9995399355  2.46E+00
   276 Broy./Diag. 0.40E+00   24.2     1.86849913     -1073.2301360548  1.77E+00
   277 Broy./Diag. 0.40E+00   21.7     1.96024902     -1071.1468419890  2.08E+00
   278 Broy./Diag. 0.40E+00   21.2     1.98672223     -1077.5989526875 -6.45E+00
   279 Broy./Diag. 0.40E+00   23.0     1.93661988     -1068.7479358759  8.85E+00
   280 Broy./Diag. 0.40E+00   23.4     1.90715438     -1070.3829322493 -1.63E+00
   281 Broy./Diag. 0.40E+00   23.3     1.94300038     -1081.4140766036 -1.10E+01
   282 Broy./Diag. 0.40E+00   22.9     1.85214828     -1070.6704037189  1.07E+01
   283 Broy./Diag. 0.40E+00   23.2     1.87411794     -1071.1156149904 -4.45E-01
   284 Broy./Diag. 0.40E+00   23.3     1.96650371     -1083.4105946632 -1.23E+01
   285 Broy./Diag. 0.40E+00   24.1     1.91848321     -1071.0510058057  1.24E+01
   286 Broy./Diag. 0.40E+00   22.8     1.91582324     -1068.6103316236  2.44E+00
   287 Broy./Diag. 0.40E+00   21.6     1.94267087     -1068.1970116010  4.13E-01
   288 Broy./Diag. 0.40E+00   23.0     1.87040898     -1080.5701086846 -1.24E+01
   289 Broy./Diag. 0.40E+00   24.5     1.89121512     -1064.1013657597  1.65E+01
   290 Broy./Diag. 0.40E+00   21.7     1.89835285     -1082.7897597708 -1.87E+01
   291 Broy./Diag. 0.40E+00   22.4     1.84343116     -1079.6096965948  3.18E+00
   292 Broy./Diag. 0.40E+00   23.7     1.84290043     -1060.4474237395  1.92E+01
   293 Broy./Diag. 0.40E+00   21.6     1.95420179     -1074.0904576749 -1.36E+01
   294 Broy./Diag. 0.40E+00   21.5     1.96566309     -1082.0509455867 -7.96E+00
   295 Broy./Diag. 0.40E+00   22.8     1.88090163     -1060.1569779839  2.19E+01
   296 Broy./Diag. 0.40E+00   23.9     1.86344808     -1084.5457031206 -2.44E+01
   297 Broy./Diag. 0.40E+00   23.2     1.88861614     -1082.3265600947  2.22E+00
   298 Broy./Diag. 0.40E+00   23.5     1.94068791     -1065.8840800353  1.64E+01
   299 Broy./Diag. 0.40E+00   23.8     1.93924648     -1074.3465160736 -8.46E+00
   300 Broy./Diag. 0.40E+00   22.5     1.88185631     -1068.8189415599  5.53E+00

  Leaving inner SCF loop after reaching   300 steps.


  Electronic density on regular grids:       -511.9997738559        0.0002261441
  Core density on regular grids:              512.0006407848        0.0006407848
  Total charge density on r-space grids:        0.0008669289
  Total charge density g-space grids:           0.0008669289

  Overlap energy of the core charge distribution:               0.00000000000000
  Self energy of the core charge distribution:              -2838.21791979120962
  Core Hamiltonian energy:                                    767.45679193197316
  Hartree energy:                                            1239.58995656294201
  Exchange-correlation energy:                               -237.64777026358720

  Total energy:                                             -1068.81894155988198

 *** WARNING in qs_scf.F:542 :: SCF run NOT converged ***


 ENERGY| Total FORCE_EVAL ( QS ) energy (a.u.):            -1045.884636774567298


 ATOMIC FORCES in [a.u.]

 # Atom   Kind   Element          X              Y              Z
      1      1      O          -0.01048469     0.05774699    -0.11131480
      2      2      H          -0.01655549    -0.07095491     0.02115767
      3      2      H           0.06472486    -0.05684376     0.01567676
      4      1      O           0.00389265     0.05050331    -0.00123401
      5      2      H           0.01542903    -0.03240849    -0.10026997
      6      2      H           0.02123593     0.01897376     0.03353252
      7      1      O          -0.05754740     0.05396352     0.16205463
      8      2      H           0.02718307     0.08802997    -0.03436407
      9      2      H           0.01222121    -0.09047989     0.02783151
     10      1      O           0.01489100     0.04398219    -0.11054141
     11      2      H          -0.03880886    -0.03659827    -0.02873572
     12      2      H           0.06031383    -0.03427215    -0.00676668
     13      1      O          -0.07721563     0.03856966     0.13691711
     14      2      H           0.01116193    -0.02386973    -0.04548866
     15      2      H           0.02123786     0.00295549    -0.03774963
     16      1      O           0.03110078    -0.00806990    -0.07060406
     17      2      H           0.00035977    -0.00212047    -0.08626252
     18      2      H          -0.03918823     0.00047945     0.07329139
     19      1      O           0.04627178     0.09166099    -0.09543872
     20      2      H          -0.05382991    -0.03324056     0.01688848
     21      2      H          -0.01292641     0.01857767    -0.00087888
     22      1      O          -0.00606756     0.03047250    -0.10311777
     23      2      H           0.03310774    -0.04111295     0.00185449
     24      2      H          -0.03723666     0.05685464     0.05308207
     25      1      O          -0.00857470     0.06231974    -0.05172645
     26      2      H           0.07612050     0.04070232    -0.01163769
     27      2      H          -0.05311023    -0.01021790     0.02466619
     28      1      O           0.05024378    -0.09291777    -0.06585573
     29      2      H           0.00908535     0.02394825     0.07673488
     30      2      H          -0.02910233     0.02928455     0.03042246
     31      1      O           0.03798588    -0.01440461    -0.09771745
     32      2      H          -0.03810269     0.02161726     0.03932088
     33      2      H           0.00898429    -0.07377431     0.00931723
     34      1      O           0.01644626     0.09181280     0.07015368
     35      2      H           0.04082458    -0.08329452     0.01956354
     36      2      H          -0.06381889    -0.02856107    -0.04107851
     37      1      O           0.01669098     0.00407459    -0.00896153
     38      2      H           0.02440936     0.02023272     0.03058235
     39      2      H          -0.02444198     0.01823245     0.00462983
     40      1      O          -0.02925982     0.03471035     0.10898185
     41      2      H          -0.00807882     0.03122185     0.00147195
     42      2      H          -0.01509215    -0.00526832    -0.05931180
     43      1      O           0.00330368     0.07841864     0.08483783
     44      2      H           0.02052750    -0.02639918     0.00448153
     45      2      H           0.01384730    -0.02248987    -0.00621122
     46      1      O           0.06727115     0.00752521     0.06959469
     47      2      H          -0.05300892     0.03327777     0.09103684
     48      2      H          -0.00325913    -0.04624611    -0.07353060
     49      1      O          -0.22370991     0.04517111    -0.09327347
     50      2      H           0.24531057    -0.02025406     0.11029825
     51      2      H           0.00536366    -0.02499795     0.06137908
     52      1      O           0.01177380    -0.10314711    -0.03502596
     53      2      H           0.03957671     0.00272901     0.01722417
     54      2      H          -0.03854218     0.02671359    -0.01008395
     55      1      O          -0.04256472    -0.04201469    -0.29654382
     56      2      H           0.00975587    -0.00450535     0.03328550
     57      2      H           0.05090914     0.01336456     0.27809980
     58      1      O          -0.00267932    -0.06337323     0.11138222
     59      2      H          -0.02301266     0.04771578     0.04751242
     60      2      H           0.04330171    -0.00070131     0.00357253
     61      1      O          -0.01849393    -0.03191519     0.06983539
     62      2      H          -0.01750561     0.06291294    -0.07696124
     63      2      H           0.04950136     0.05195001     0.09072195
     64      1      O          -0.04818050     0.09997380     0.02341287
     65      2      H           0.03869241    -0.03881718    -0.00598429
     66      2      H          -0.01203622     0.01495305    -0.03627248
     67      1      O           0.01695004     0.08440892    -0.10742355
     68      2      H          -0.06049838     0.00423781    -0.02060535
     69      2      H           0.01840195    -0.06082455    -0.02128448
     70      1      O           0.01503705     0.07981210    -0.11855078
     71      2      H          -0.01660299     0.03330713     0.01842170
     72      2      H           0.00470318    -0.01293914    -0.02456196
     73      1      O          -0.02746511    -0.01374694    -0.02183099
     74      2      H          -0.03912401     0.02617835    -0.03065857
     75      2      H           0.05541856     0.00227489    -0.00886922
     76      1      O           0.14954168     0.27409901    -0.09379696
     77      2      H           0.00313805     0.02330672     0.03460495
     78      2      H          -0.13098069    -0.20322722     0.11451986
     79      1      O          -0.02838719     0.02629375     0.13571888
     80      2      H           0.01086046    -0.09165542    -0.03702349
     81      2      H           0.00879247     0.08919603    -0.05153447
     82      1      O           0.11707458     0.05736011     0.12579966
     83      2      H          -0.01434887     0.04225392    -0.13792611
     84      2      H          -0.10985367    -0.01333489    -0.01196408
     85      1      O           0.00504367     0.02888374    -0.07758756
     86      2      H           0.00366544    -0.00222492     0.00500839
     87      2      H           0.00299089    -0.01004989     0.00907821
     88      1      O           0.00525925     0.06386554    -0.03878998
     89      2      H           0.00006975    -0.05883251     0.03617033
     90      2      H          -0.02096697     0.03253154     0.06118176
     91      1      O           0.01735608    -0.05574489    -0.02930610
     92      2      H          -0.00950684     0.01741893    -0.01705599
     93      2      H          -0.03512009    -0.02168182     0.05919215
     94      1      O          -0.09063050    -0.14408401     0.10197642
     95      2      H           0.06877892    -0.05059386    -0.12052888
     96      2      H           0.05490083     0.17739246     0.10035779
     97      1      O          -0.04811298    -0.02797107     0.14908265
     98      2      H           0.04317486    -0.02282966    -0.01200682
     99      2      H          -0.01989303     0.04954430     0.01245642
    100      1      O           0.03132725     0.04899658     0.03091588
    101      2      H          -0.00476687     0.01878357     0.01114483
    102      2      H          -0.01529753     0.04026190    -0.04761707
    103      1      O           0.03990854    -0.08047645    -0.10800024
    104      2      H           0.00089990    -0.00584344    -0.02213708
    105      2      H          -0.03878401    -0.01689643     0.02524435
    106      1      O          -0.07562124     0.02520701     0.04474819
    107      2      H           0.10722105    -0.03785203    -0.05415734
    108      2      H          -0.00560381    -0.09735441     0.07055162
    109      1      O           0.01115187     0.03443345     0.08979439
    110      2      H           0.01469103    -0.01769436    -0.10682269
    111      2      H          -0.04399111     0.00705328     0.00589261
    112      1      O          -0.04021233     0.03928357     0.06402524
    113      2      H           0.03489195    -0.03219691     0.07099517
    114      2      H           0.04087376     0.03474670     0.02589291
    115      1      O          -0.07793280    -0.09907254    -0.09696070
    116      2      H           0.02399314    -0.00590960     0.04112042
    117      2      H           0.01603723     0.01717063     0.00683364
    118      1      O          -0.05067709     0.01782529    -0.13125695
    119      2      H           0.05006968     0.04453517    -0.00195955
    120      2      H          -0.01462719     0.02866776     0.05705890
    121      1      O           0.00981190    -0.05358850     0.03091849
    122      2      H          -0.04227987     0.05130064     0.00179442
    123      2      H           0.00599257     0.00609733     0.00581782
    124      1      O          -0.04144972    -0.10956804     0.04912445
    125      2      H           0.00917418     0.05481443     0.00092030
    126      2      H           0.00723859     0.01865497     0.03817928
    127      1      O          -0.02619480    -0.01667545     0.05294920
    128      2      H           0.00201246     0.06303230     0.05434593
    129      2      H          -0.00654744    -0.01830487    -0.05024061
    130      1      O          -0.08158406    -0.09329382    -0.02678233
    131      2      H           0.00035720     0.04953456     0.03368260
    132      2      H           0.07706282    -0.03534247    -0.01572896
    133      1      O           0.00068225     0.10203327     0.12377432
    134      2      H           0.00153501    -0.10769519     0.06774395
    135      2      H           0.03855408     0.04761904    -0.11616675
    136      1      O          -0.05709713    -0.05889507     0.00123710
    137      2      H          -0.03187596    -0.07424578    -0.02637604
    138      2      H           0.10951872     0.10930498    -0.03928673
    139      1      O           0.01055267     0.15615722    -0.10662676
    140      2      H          -0.05345399    -0.03965118    -0.00367070
    141      2      H           0.06764409    -0.03233932     0.02142976
    142      1      O           0.20874897     0.17728614     0.02423860
    143      2      H          -0.02202238     0.00684632     0.02726069
    144      2      H          -0.21102561    -0.14951619     0.00056254
    145      1      O           0.04749887     0.10424239     0.06301087
    146      2      H          -0.07936611    -0.03367883    -0.01117212
    147      2      H          -0.00014050    -0.00066445    -0.06888524
    148      1      O           0.04274623     0.08838089     0.11471144
    149      2      H          -0.00135024     0.01801402    -0.06449262
    150      2      H          -0.05510950    -0.02667868     0.01877234
    151      1      O          -0.00981780     0.02058800    -0.11901728
    152      2      H          -0.00078846    -0.00379019     0.00924162
    153      2      H          -0.00455709     0.01051612     0.02562195
    154      1      O           0.00233937     0.02829873     0.09170948
    155      2      H          -0.01994930    -0.01673236    -0.04031195
    156      2      H           0.00515571     0.00724190     0.00008741
    157      1      O           0.00464836     0.01061984     0.06845994
    158      2      H          -0.01529930     0.05852978     0.05275263
    159      2      H           0.03292291     0.04765145     0.01742405
    160      1      O           0.01590809     0.06558792    -0.02336753
    161      2      H           0.00540820     0.04541395    -0.09814943
    162      2      H          -0.03308248    -0.04965012     0.04621284
    163      1      O           0.02264489    -0.02214021     0.06646866
    164      2      H           0.00461538     0.06757368     0.03514140
    165      2      H          -0.05933132     0.00169406    -0.06186610
    166      1      O           0.00941054    -0.00025314     0.07288033
    167      2      H          -0.03991587    -0.03017197     0.03907614
    168      2      H           0.05227645     0.01793398     0.02215233
    169      1      O          -0.00710957     0.02414501    -0.15506324
    170      2      H          -0.07375512    -0.02489275    -0.01895987
    171      2      H           0.03079762    -0.00667094     0.03503469
    172      1      O          -0.01364323    -0.05588410     0.05280973
    173      2      H           0.02903336     0.05739880    -0.05479643
    174      2      H          -0.02667876    -0.02926686    -0.05977031
    175      1      O          -0.02164225    -0.06785827    -0.04055052
    176      2      H           0.01090132     0.00387331     0.01736600
    177      2      H           0.01574749    -0.01429692     0.03241532
    178      1      O          -0.03689424     0.09494881     0.11940730
    179      2      H          -0.00812778    -0.01229199    -0.02776823
    180      2      H           0.01620980    -0.01543608     0.01652145
    181      1      O          -0.04548724     0.02470488    -0.07179805
    182      2      H           0.07880911     0.01023924     0.02505790
    183      2      H          -0.01166732    -0.05858566     0.01209897
    184      1      O          -0.03819361    -0.00334165     0.08436194
    185      2      H           0.01919414     0.04292462    -0.05779887
    186      2      H           0.03953664    -0.08818838    -0.05627806
    187      1      O          -0.04549885    -0.04254947     0.05606491
    188      2      H           0.03446019     0.00658821     0.01365195
    189      2      H          -0.01871259     0.01230177    -0.01551602
    190      1      O           0.04922641     0.05314215     0.06976921
    191      2      H          -0.00221098     0.03690585    -0.01311501
    192      2      H          -0.03898382    -0.00651310    -0.02411368
 SUM OF ATOMIC FORCES          -0.06862818     0.94214355     0.55402655     1.09512087

 -------------------------------------------------------------------------------
 -                                                                             -
 -                                DBCSR STATISTICS                             -
 -                                                                             -
 -------------------------------------------------------------------------------
 COUNTER                                    TOTAL       BLAS       SMM       ACC
 flops     5 x     5 x   256           2315532800       0.0%    100.0%      0.0%
 flops     5 x    13 x   256           2524354560       0.0%    100.0%      0.0%
 flops    13 x     5 x   256           2544389120       0.0%    100.0%      0.0%
 flops    13 x    13 x   256           3802559488       0.0%    100.0%      0.0%
 flops inhomo. stacks                           0       0.0%      0.0%      0.0%
 flops total                        11.186836E+09       0.0%    100.0%      0.0%
 flops max/rank                     11.186836E+09       0.0%    100.0%      0.0%
 matmuls inhomo. stacks                         0       0.0%      0.0%      0.0%
 matmuls total                             377153       0.0%    100.0%      0.0%
 number of processed stacks                 42140       0.0%    100.0%      0.0%
 average stack size                                     0.0       8.9       0.0
 marketing flops                   333.927416E+09
 -------------------------------------------------------------------------------
 # multiplications                            301
 max memory usage/rank              30.542983E+09
 # max total images/rank                        1
 # max 3D layers                                1
 # MPI messages exchanged                       0
 MPI messages size (bytes):
  total size                         0.000000E+00
  min size                           0.000000E+00
  max size                           0.000000E+00
  average size                       0.000000E+00
 MPI breakdown and total messages size (bytes):
             size <=      128                   0                        0
       128 < size <=     8192                   0                        0
      8192 < size <=    32768                   0                        0
     32768 < size <=   131072                   0                        0
    131072 < size <=  4194304                   0                        0
   4194304 < size <= 16777216                   0                        0
  16777216 < size                               0                        0
 -------------------------------------------------------------------------------

 MEMORY| Estimated peak process memory [MiB]                               29132

 -------------------------------------------------------------------------------
 -                                                                             -
 -                           R E F E R E N C E S                               -
 -                                                                             -
 -------------------------------------------------------------------------------
 
 CP2K version 7.1, the CP2K developers group (2019).
 CP2K is freely available from https://www.cp2k.org/ .

 Schuett, Ole; Messmer, Peter; Hutter, Juerg; VandeVondele, Joost. 
 Electronic Structure Calculations on Graphics Processing Units, John
 Wiley & Sons, Ltd, 173-190 (2016). 
 GPU-Accelerated Sparse Matrix-Matrix Multiplication for
 Linear Scaling Density Functional Theory.
 https://dx.doi.org/10.1002/9781118670712.ch8

 Borstnik, U; VandeVondele, J; Weber, V; Hutter, J. 
 PARALLEL COMPUTING, 40 (5-6), 47-58 (2014). 
 Sparse matrix multiplication: The distributed block-compressed sparse
 row library.
 https://dx.doi.org/10.1016/j.parco.2014.03.012

 Hutter, J; Iannuzzi, M; Schiffmann, F; VandeVondele, J. 
 WIREs Comput Mol Sci., 4 (1), 15-25 (2014). 
 CP2K: atomistic simulations of condensed matter systems.
 https://dx.doi.org/10.1002/wcms.1159

 Krack, M. 
 THEORETICAL CHEMISTRY ACCOUNTS, 114 (1-3), 145-152 (2005). 
 Pseudopotentials for H to Kr optimized for gradient-corrected
 exchange-correlation functionals.
 https://dx.doi.org/10.1007/s00214-005-0655-y

 VandeVondele, J; Krack, M; Mohamed, F; Parrinello, M; Chassaing, T;
 Hutter, J. COMPUTER PHYSICS COMMUNICATIONS, 167 (2), 103-128 (2005). 
 QUICKSTEP: Fast and accurate density functional calculations using a
 mixed Gaussian and plane waves approach.
 https://dx.doi.org/10.1016/j.cpc.2004.12.014

 Frigo, M; Johnson, SG. 
 PROCEEDINGS OF THE IEEE, 93 (2), 216-231 (2005). 
 The design and implementation of FFTW3.
 https://dx.doi.org/10.1109/JPROC.2004.840301

 Hartwigsen, C; Goedecker, S; Hutter, J. 
 PHYSICAL REVIEW B, 58 (7), 3641-3662 (1998). 
 Relativistic separable dual-space Gaussian pseudopotentials from H to Rn.
 https://dx.doi.org/10.1103/PhysRevB.58.3641

 Lippert, G; Hutter, J; Parrinello, M. 
 MOLECULAR PHYSICS, 92 (3), 477-487 (1997). 
 A hybrid Gaussian and plane wave density functional scheme.
 https://dx.doi.org/10.1080/002689797170220

 Goedecker, S; Teter, M; Hutter, J. 
 PHYSICAL REVIEW B, 54 (3), 1703-1710 (1996). 
 Separable dual-space Gaussian pseudopotentials.
 https://dx.doi.org/10.1103/PhysRevB.54.1703


 -------------------------------------------------------------------------------
 -                                                                             -
 -                                T I M I N G                                  -
 -                                                                             -
 -------------------------------------------------------------------------------
 SUBROUTINE                       CALLS  ASD         SELF TIME        TOTAL TIME
                                MAXIMUM       AVERAGE  MAXIMUM  AVERAGE  MAXIMUM
 CP2K                                 1  1.0    1.022    1.022 6868.254 6868.254
 qs_forces                            1  2.0    0.000    0.000 6856.908 6856.908
 qs_energies                          1  3.0    0.000    0.000 6853.283 6853.283
 scf_env_do_scf                       1  4.0    0.001    0.001 6841.517 6841.517
 scf_env_do_scf_inner_loop          300  5.0    0.048    0.048 6841.516 6841.516
 gspace_mixing                      299  6.0   42.463   42.463 2921.937 2921.937
 broyden_mixing                     299  7.0 2639.780 2639.780 2639.784 2639.784
 qs_scf_new_mos                     300  6.0    0.008    0.008 1803.247 1803.247
 eigensolver                        300  7.0    0.032    0.032 1775.088 1775.088
 cp_fm_syevd                        300  8.0 1227.355 1227.355 1228.488 1228.488
 pw_transfer                       3912  9.9    0.377    0.377 1122.358 1122.358
 fft_wrap_pw1pw2                   3310 10.9    0.049    0.049 1097.202 1097.202
 rebuild_ks_matrix                  301  7.0    0.001    0.001 1093.828 1093.828
 qs_ks_build_kohn_sham_matrix       301  8.0    0.085    0.085 1093.827 1093.827
 qs_ks_update_qs_env                300  6.0    0.003    0.003 1090.422 1090.422
 qs_rho_update_rho                  301  6.0    0.003    0.003 1028.305 1028.305
 calculate_rho_elec                 301  7.0  511.894  511.894 1028.302 1028.302
 fft_wrap_pw1pw2_70                1504 11.2   87.225   87.225 1008.544 1008.544
 cp_fm_cholesky_restore             900  8.0  545.493  545.493  545.493  545.493
 fft3d_s                           3311 12.9  517.464  517.464  517.492  517.492
 density_rs2pw                      301  8.0    0.030    0.030  508.759  508.759
 pw_scatter_s                      1804 13.2  409.315  409.315  409.315  409.315
 pw_poisson_solve                   301  9.0  335.706  335.706  360.841  360.841
 sum_up_and_integrate               301  9.0   18.251   18.251  286.016  286.016
 integrate_v_rspace                 301 10.0    6.898    6.898  267.765  267.765
 potential_pw2rs                    301 11.0    2.501    2.501  259.440  259.440
 qs_vxc_create                      301  9.0    0.008    0.008  161.305  161.305
 xc_vxc_pw_create                   301 10.0   42.352   42.352  161.297  161.297
 -------------------------------------------------------------------------------

 The number of warnings for this run is : 1
 
 -------------------------------------------------------------------------------
  **** **** ******  **  PROGRAM ENDED AT                 2020-05-27 07:48:39.754
 ***** ** ***  *** **   PROGRAM RAN ON                                   gnode44
 **    ****   ******    PROGRAM RAN BY                               mayank.modi
 ***** **    ** ** **   PROGRAM PROCESS ID                                 32280
  **** **  *******  **  PROGRAM STOPPED IN /home/mayank.modi/ab-initio-thermodyn
                                           amics-of-water/mayank/cp2k_energy_cal
                                           culations
