 DBCSR| CPU Multiplication driver                                           XSMM
 DBCSR| Multrec recursion limit                                              512
 DBCSR| Multiplication stack size                                           1000
 DBCSR| Maximum elements for images                                    UNLIMITED
 DBCSR| Multiplicative factor virtual images                                   1
 DBCSR| Use multiplication densification                                       T
 DBCSR| Multiplication size stacks                                             3


  **** **** ******  **  PROGRAM STARTED AT               2020-05-27 09:45:11.331
 ***** ** ***  *** **   PROGRAM STARTED ON                               gnode44
 **    ****   ******    PROGRAM STARTED BY                           mayank.modi
 ***** **    ** ** **   PROGRAM PROCESS ID                                 36086
  **** **  *******  **  PROGRAM STARTED IN /home/mayank.modi/ab-initio-thermodyn
                                           amics-of-water/mayank/cp2k_energy_cal
                                           culations

 CP2K| version string:                                          CP2K version 7.1
 CP2K| source code revision number:                                  git:e635599
 CP2K| cp2kflags: omp libint fftw3 libxc xsmm spglib                            
 CP2K| is freely available from                            https://www.cp2k.org/
 CP2K| Program compiled at                          Mon Dec 23 19:23:12 CET 2019
 CP2K| Program compiled on                                                pc9404
 CP2K| Program compiled for                                Linux-x86-64-gfortran
 CP2K| Data directory path                                        /opt/cp2k/data
 CP2K| Input file name                                  input_training/input9.in

 GLOBAL| Force Environment number                                              1
 GLOBAL| Basis set file name                                           BASIS_SET
 GLOBAL| Potential file name                                      GTH_POTENTIALS
 GLOBAL| MM Potential file name                                     MM_POTENTIAL
 GLOBAL| Coordinate file name                                      __STD_INPUT__
 GLOBAL| Method name                                                        CP2K
 GLOBAL| Project name                                                   H2O_bulk
 GLOBAL| Preferred FFT library                                             FFTW3
 GLOBAL| Preferred diagonalization lib.                                       SL
 GLOBAL| Run type                                                   ENERGY_FORCE
 GLOBAL| All-to-all communication in single precision                          F
 GLOBAL| FFTs using library dependent lengths                                  F
 GLOBAL| Global print level                                                  LOW
 GLOBAL| MPI I/O enabled                                                       T
 GLOBAL| Total number of message passing processes                             1
 GLOBAL| Number of threads for this process                                   36
 GLOBAL| This output is from process                                           0
 GLOBAL| CPU model name                Intel(R) Xeon(R) CPU E5-2640 v4 @ 2.40GHz
 GLOBAL| CPUID                                                              1002
 GLOBAL| Compiled for CPUID                                                    0

 MEMORY| system memory details [Kb]
 MEMORY|                        rank 0           min           max       average
 MEMORY| MemTotal            131893056     131893056     131893056     131893056
 MEMORY| MemFree             119504476     119504476     119504476     119504476
 MEMORY| Buffers               2105796       2105796       2105796       2105796
 MEMORY| Cached                2795604       2795604       2795604       2795604
 MEMORY| Slab                  3304360       3304360       3304360       3304360
 MEMORY| SReclaimable          3096972       3096972       3096972       3096972
 MEMORY| MemLikelyFree       127502848     127502848     127502848     127502848


 GENERATE| WARNING:: No connections detected for Hydrogen - Atom Nr:        59 !
 GENERATE|  Preliminary Number of Bonds generated:                             0
 GENERATE|  Achieved consistency in connectivity generation.

 *******************************************************************************
 *******************************************************************************
 **                                                                           **
 **     #####                         ##              ##                      **
 **    ##   ##            ##          ##              ##                      **
 **   ##     ##                       ##            ######                    **
 **   ##     ##  ##   ##  ##   #####  ##  ##   ####   ##    #####    #####    **
 **   ##     ##  ##   ##  ##  ##      ## ##   ##      ##   ##   ##  ##   ##   **
 **   ##  ## ##  ##   ##  ##  ##      ####     ###    ##   ######   ######    **
 **    ##  ###   ##   ##  ##  ##      ## ##      ##   ##   ##       ##        **
 **     #######   #####   ##   #####  ##  ##  ####    ##    #####   ##        **
 **           ##                                                    ##        **
 **                                                                           **
 **                                                ... make the atoms dance   **
 **                                                                           **
 **            Copyright (C) by CP2K developers group (2000 - 2019)           **
 **                                                                           **
 *******************************************************************************


 TOTAL NUMBERS AND MAXIMUM NUMBERS

  Total number of            - Atomic kinds:                                   2
                             - Atoms:                                        192
                             - Shell sets:                                   384
                             - Shells:                                       704
                             - Primitive Cartesian functions:                960
                             - Cartesian basis functions:                   1536
                             - Spherical basis functions:                   1472

  Maximum angular momentum of- Orbital basis functions:                        2
                             - Local part of the GTH pseudopotential:          2
                             - Non-local part of the GTH pseudopotential:      0


 SCF PARAMETERS         Density guess:                                    ATOMIC
                        --------------------------------------------------------
                        max_scf:                                             300
                        max_scf_history:                                       0
                        max_diis:                                              4
                        --------------------------------------------------------
                        eps_scf:                                        1.00E-07
                        eps_scf_history:                                0.00E+00
                        eps_diis:                                       1.00E-01
                        eps_eigval:                                     1.00E-05
                        --------------------------------------------------------
                        level_shift [a.u.]:                                 0.00
                        --------------------------------------------------------
                        Mixing method:                            BROYDEN_MIXING
                                                charge density mixing in g-space
                        --------------------------------------------------------
                        No outer SCF

 Number of electrons:                                                        512
 Number of occupied orbitals:                                                256
 Number of molecular orbitals:                                               256

 Number of orbital functions:                                               1472
 Number of independent orbital functions:                                   1472

 Extrapolation method: initial_guess


 SCF WAVEFUNCTION OPTIMIZATION

  Step     Update method      Time    Convergence         Total energy    Change
  ------------------------------------------------------------------------------
     1 NoMix/Diag. 0.40E+00   11.2     0.68549758     -1063.7939324209 -1.06E+03
     2 Broy./Diag. 0.40E+00   16.0     1.91678832      -991.9603201683  7.18E+01
     3 Broy./Diag. 0.40E+00   16.9     1.92966472     -1277.3159674660 -2.85E+02
     4 Broy./Diag. 0.40E+00   16.1     1.60285864     -1131.1023079669  1.46E+02
     5 Broy./Diag. 0.40E+00   17.2     1.83092890     -1099.2548568356  3.18E+01
     6 Broy./Diag. 0.40E+00   19.0     1.91638410     -1102.2876365343 -3.03E+00
     7 Broy./Diag. 0.40E+00   20.1     1.74556596     -1096.8958132811  5.39E+00
     8 Broy./Diag. 0.40E+00   21.7     1.71699058     -1087.1745265687  9.72E+00
     9 Broy./Diag. 0.40E+00   22.5     1.66556088     -1078.1116840986  9.06E+00
    10 Broy./Diag. 0.40E+00   24.2     1.68318347     -1074.5260936457  3.59E+00
    11 Broy./Diag. 0.40E+00   24.9     1.67586956     -1078.5606716218 -4.03E+00
    12 Broy./Diag. 0.40E+00   24.6     1.15155105     -1075.8531527603  2.71E+00
    13 Broy./Diag. 0.40E+00   24.0     1.42029076     -1066.9750314422  8.88E+00
    14 Broy./Diag. 0.40E+00   24.3     1.74919510     -1089.2659549730 -2.23E+01
    15 Broy./Diag. 0.40E+00   24.8     1.82197398     -1080.3859051909  8.88E+00
    16 Broy./Diag. 0.40E+00   24.3     1.65591873     -1077.7779271597  2.61E+00
    17 Broy./Diag. 0.40E+00   24.4     1.75375049     -1072.2329217062  5.55E+00
    18 Broy./Diag. 0.40E+00   25.0     1.74331398     -1075.8941445195 -3.66E+00
    19 Broy./Diag. 0.40E+00   22.1     1.67209330     -1077.2655829697 -1.37E+00
    20 Broy./Diag. 0.40E+00   22.6     1.78520639     -1073.4995480344  3.77E+00
    21 Broy./Diag. 0.40E+00   21.6     1.73244454     -1073.7220041683 -2.22E-01
    22 Broy./Diag. 0.40E+00   23.5     1.45897936     -1071.4727934086  2.25E+00
    23 Broy./Diag. 0.40E+00   24.0     1.62116927     -1077.3508854893 -5.88E+00
    24 Broy./Diag. 0.40E+00   24.2     1.67521747     -1080.8868965702 -3.54E+00
    25 Broy./Diag. 0.40E+00   25.4     0.87740948     -1074.9427788919  5.94E+00
    26 Broy./Diag. 0.40E+00   25.1     1.28893707     -1073.5035559004  1.44E+00
    27 Broy./Diag. 0.40E+00   24.5     1.76272566     -1075.3642349590 -1.86E+00
    28 Broy./Diag. 0.40E+00   24.6     1.80833552     -1076.2463447693 -8.82E-01
    29 Broy./Diag. 0.40E+00   24.3     1.71560142     -1075.4217886308  8.25E-01
    30 Broy./Diag. 0.40E+00   24.7     1.80501286     -1074.2003739172  1.22E+00
    31 Broy./Diag. 0.40E+00   24.5     1.48410826     -1072.1437067382  2.06E+00
    32 Broy./Diag. 0.40E+00   24.5     1.53051750     -1077.5048428697 -5.36E+00
    33 Broy./Diag. 0.40E+00   24.7     1.36869820     -1076.0614195011  1.44E+00
    34 Broy./Diag. 0.40E+00   24.4     1.67255526     -1077.0294684748 -9.68E-01
    35 Broy./Diag. 0.40E+00   24.6     1.71007838     -1075.8167283175  1.21E+00
    36 Broy./Diag. 0.40E+00   24.1     1.59722230     -1075.9289002859 -1.12E-01
    37 Broy./Diag. 0.40E+00   23.2     1.27117036     -1074.0571313196  1.87E+00
    38 Broy./Diag. 0.40E+00   23.5     1.62298799     -1072.8081375489  1.25E+00
    39 Broy./Diag. 0.40E+00   24.4     1.72629589     -1078.5866489068 -5.78E+00
    40 Broy./Diag. 0.40E+00   24.3     1.75781651     -1077.4203329597  1.17E+00
    41 Broy./Diag. 0.40E+00   24.6     1.61274359     -1077.6620338290 -2.42E-01
    42 Broy./Diag. 0.40E+00   24.8     1.56062601     -1076.8525254052  8.10E-01
    43 Broy./Diag. 0.40E+00   24.2     1.50293617     -1073.0947630588  3.76E+00
    44 Broy./Diag. 0.40E+00   25.0     1.62296909     -1079.5772771526 -6.48E+00
    45 Broy./Diag. 0.40E+00   24.4     1.67474855     -1076.6869463851  2.89E+00
    46 Broy./Diag. 0.40E+00   24.4     1.47971698     -1077.0072383443 -3.20E-01
    47 Broy./Diag. 0.40E+00   24.4     1.54298390     -1076.9995606724  7.68E-03
    48 Broy./Diag. 0.40E+00   24.3     1.70791015     -1071.9221558955  5.08E+00
    49 Broy./Diag. 0.40E+00   24.4     1.66628652     -1080.1206293673 -8.20E+00
    50 Broy./Diag. 0.40E+00   24.7     1.77001803     -1079.6046145110  5.16E-01
    51 Broy./Diag. 0.40E+00   25.0     1.47753432     -1075.1746115870  4.43E+00
    52 Broy./Diag. 0.40E+00   24.2     1.57960511     -1074.5590802480  6.16E-01
    53 Broy./Diag. 0.40E+00   24.6     1.59014702     -1077.1570945368 -2.60E+00
    54 Broy./Diag. 0.40E+00   24.5     1.70568895     -1076.1518871120  1.01E+00
    55 Broy./Diag. 0.40E+00   22.9     1.77950961     -1077.9743021975 -1.82E+00
    56 Broy./Diag. 0.40E+00   24.7     1.66392906     -1074.6188673459  3.36E+00
    57 Broy./Diag. 0.40E+00   23.0     1.76923059     -1074.3847743078  2.34E-01
    58 Broy./Diag. 0.40E+00   23.3     1.63204666     -1078.3601250145 -3.98E+00
    59 Broy./Diag. 0.40E+00   24.2     1.71803780     -1074.7001205310  3.66E+00
    60 Broy./Diag. 0.40E+00   25.4     1.60344415     -1075.3615378575 -6.61E-01
    61 Broy./Diag. 0.40E+00   24.5     1.51075733     -1072.3448276138  3.02E+00
    62 Broy./Diag. 0.40E+00   24.3     1.60845749     -1079.4211254115 -7.08E+00
    63 Broy./Diag. 0.40E+00   24.7     1.67245216     -1077.5780985120  1.84E+00
    64 Broy./Diag. 0.40E+00   24.4     1.73481582     -1079.7018314502 -2.12E+00
    65 Broy./Diag. 0.40E+00   24.4     1.72912761     -1072.0781438393  7.62E+00
    66 Broy./Diag. 0.40E+00   24.5     1.74412891     -1080.0508341357 -7.97E+00
    67 Broy./Diag. 0.40E+00   24.5     1.69308877     -1078.9177389954  1.13E+00
    68 Broy./Diag. 0.40E+00   24.6     1.60460735     -1074.9815539288  3.94E+00
    69 Broy./Diag. 0.40E+00   24.6     1.68206916     -1078.6991626788 -3.72E+00
    70 Broy./Diag. 0.40E+00   24.6     1.62521461     -1076.2952775064  2.40E+00
    71 Broy./Diag. 0.40E+00   24.8     1.76419075     -1071.9383851612  4.36E+00
    72 Broy./Diag. 0.40E+00   25.1     1.78315488     -1077.2623484768 -5.32E+00
    73 Broy./Diag. 0.40E+00   24.4     1.34819633     -1074.6841007947  2.58E+00
    74 Broy./Diag. 0.40E+00   23.9     1.37694037     -1076.7325826951 -2.05E+00
    75 Broy./Diag. 0.40E+00   24.4     1.76011895     -1071.8195264870  4.91E+00
    76 Broy./Diag. 0.40E+00   22.9     1.76854875     -1080.7144475043 -8.89E+00
    77 Broy./Diag. 0.40E+00   25.1     1.58418386     -1076.8941167873  3.82E+00
    78 Broy./Diag. 0.40E+00   24.4     1.62149651     -1075.3035351645  1.59E+00
    79 Broy./Diag. 0.40E+00   23.5     1.70316643     -1075.6778722075 -3.74E-01
    80 Broy./Diag. 0.40E+00   24.3     1.51606704     -1072.4289853608  3.25E+00
    81 Broy./Diag. 0.40E+00   24.3     1.69635066     -1075.1838524648 -2.75E+00
    82 Broy./Diag. 0.40E+00   24.4     1.78419686     -1076.2582202235 -1.07E+00
    83 Broy./Diag. 0.40E+00   24.1     1.71619676     -1075.5317751351  7.26E-01
    84 Broy./Diag. 0.40E+00   24.4     1.75998282     -1077.5055826744 -1.97E+00
    85 Broy./Diag. 0.40E+00   24.6     0.93596389     -1074.3874973783  3.12E+00
    86 Broy./Diag. 0.40E+00   24.4     1.53965977     -1075.2422212105 -8.55E-01
    87 Broy./Diag. 0.40E+00   24.3     1.62525423     -1076.8764999342 -1.63E+00
    88 Broy./Diag. 0.40E+00   24.1     1.66513096     -1073.2176444802  3.66E+00
    89 Broy./Diag. 0.40E+00   24.1     1.72268675     -1077.8301539748 -4.61E+00
    90 Broy./Diag. 0.40E+00   23.9     1.67051294     -1076.9643029796  8.66E-01
    91 Broy./Diag. 0.40E+00   24.0     1.58992272     -1076.1108852397  8.53E-01
    92 Broy./Diag. 0.40E+00   24.3     1.54468619     -1074.7105477084  1.40E+00
    93 Broy./Diag. 0.40E+00   23.8     1.61049362     -1076.7489926048 -2.04E+00
    94 Broy./Diag. 0.40E+00   23.4     1.63174716     -1078.5623560401 -1.81E+00
    95 Broy./Diag. 0.40E+00   22.0     1.65039186     -1077.0336885024  1.53E+00
    96 Broy./Diag. 0.40E+00   23.0     1.11821085     -1074.1437370331  2.89E+00
    97 Broy./Diag. 0.40E+00   24.2     1.40984923     -1074.6171554988 -4.73E-01
    98 Broy./Diag. 0.40E+00   23.7     1.26315662     -1077.0784812628 -2.46E+00
    99 Broy./Diag. 0.40E+00   24.2     1.79299781     -1074.5015885110  2.58E+00
   100 Broy./Diag. 0.40E+00   24.0     1.74802201     -1079.4008486632 -4.90E+00
   101 Broy./Diag. 0.40E+00   23.7     1.60958420     -1078.5220160481  8.79E-01
   102 Broy./Diag. 0.40E+00   24.7     1.81664629     -1074.7969747013  3.73E+00
   103 Broy./Diag. 0.40E+00   23.5     1.77565586     -1078.3104855152 -3.51E+00
   104 Broy./Diag. 0.40E+00   21.9     1.64931825     -1072.0730840476  6.24E+00
   105 Broy./Diag. 0.40E+00   23.7     1.69454410     -1078.8664080848 -6.79E+00
   106 Broy./Diag. 0.40E+00   23.4     1.48677452     -1076.6486304709  2.22E+00
   107 Broy./Diag. 0.40E+00   22.7     1.57148066     -1074.8562567307  1.79E+00
   108 Broy./Diag. 0.40E+00   21.4     1.37632780     -1076.0675097509 -1.21E+00
   109 Broy./Diag. 0.40E+00   23.2     1.72633307     -1071.6026925137  4.46E+00
   110 Broy./Diag. 0.40E+00   24.0     1.75783974     -1079.3904529241 -7.79E+00
   111 Broy./Diag. 0.40E+00   22.9     0.52566942     -1074.1497244266  5.24E+00
   112 Broy./Diag. 0.40E+00   24.0     1.50154587     -1073.7283866888  4.21E-01
   113 Broy./Diag. 0.40E+00   23.5     1.58527723     -1078.5238361818 -4.80E+00
   114 Broy./Diag. 0.40E+00   24.1     1.24699878     -1075.0789382911  3.44E+00
   115 Broy./Diag. 0.40E+00   25.1     1.71692575     -1073.3918769742  1.69E+00
   116 Broy./Diag. 0.40E+00   23.5     1.76259848     -1078.0268007637 -4.63E+00
   117 Broy./Diag. 0.40E+00   22.9     1.54935526     -1075.9023818709  2.12E+00
   118 Broy./Diag. 0.40E+00   22.0     1.69859633     -1076.5107043118 -6.08E-01
   119 Broy./Diag. 0.40E+00   22.5     1.76495807     -1076.3575817886  1.53E-01
   120 Broy./Diag. 0.40E+00   21.9     1.67678136     -1076.0696015426  2.88E-01
   121 Broy./Diag. 0.40E+00   24.0     1.73573867     -1073.5097895565  2.56E+00
   122 Broy./Diag. 0.40E+00   23.6     1.66671582     -1079.4909643711 -5.98E+00
   123 Broy./Diag. 0.40E+00   23.2     1.58850647     -1075.6631968610  3.83E+00
   124 Broy./Diag. 0.40E+00   23.5     1.67304673     -1075.4847600953  1.78E-01
   125 Broy./Diag. 0.40E+00   23.5     1.55225370     -1075.6327863630 -1.48E-01
   126 Broy./Diag. 0.40E+00   23.7     1.73377215     -1075.6211018001  1.17E-02
   127 Broy./Diag. 0.40E+00   23.5     1.16854409     -1078.4654312793 -2.84E+00
   128 Broy./Diag. 0.40E+00   23.4     1.77743718     -1074.3345094261  4.13E+00
   129 Broy./Diag. 0.40E+00   24.0     1.80056007     -1076.5982325644 -2.26E+00
   130 Broy./Diag. 0.40E+00   24.5     1.75159805     -1076.2678584469  3.30E-01
   131 Broy./Diag. 0.40E+00   23.0     1.72843278     -1073.5620735519  2.71E+00
   132 Broy./Diag. 0.40E+00   24.8     1.77973310     -1071.8125177398  1.75E+00
   133 Broy./Diag. 0.40E+00   23.5     1.76703901     -1080.7143033512 -8.90E+00
   134 Broy./Diag. 0.40E+00   24.0     1.72799035     -1078.7703614153  1.94E+00
   135 Broy./Diag. 0.40E+00   23.7     1.62307610     -1078.4354741611  3.35E-01
   136 Broy./Diag. 0.40E+00   23.8     1.45429752     -1072.3715166985  6.06E+00
   137 Broy./Diag. 0.40E+00   24.9     1.54461818     -1076.0121538920 -3.64E+00
   138 Broy./Diag. 0.40E+00   24.5     1.71729810     -1073.4375404106  2.57E+00
   139 Broy./Diag. 0.40E+00   23.7     1.77276411     -1077.2312296277 -3.79E+00
   140 Broy./Diag. 0.40E+00   24.5     1.65979560     -1077.5197109382 -2.88E-01
   141 Broy./Diag. 0.40E+00   23.9     1.73019791     -1073.6859073139  3.83E+00
   142 Broy./Diag. 0.40E+00   23.9     1.76514892     -1076.2858484628 -2.60E+00
   143 Broy./Diag. 0.40E+00   24.3     1.59163964     -1075.4280321600  8.58E-01
   144 Broy./Diag. 0.40E+00   22.0     1.53891645     -1074.9228440557  5.05E-01
   145 Broy./Diag. 0.40E+00   22.7     1.62100570     -1075.6432443858 -7.20E-01
   146 Broy./Diag. 0.40E+00   21.2     1.53947493     -1074.8205016295  8.23E-01
   147 Broy./Diag. 0.40E+00   22.2     1.66534421     -1076.7731447147 -1.95E+00
   148 Broy./Diag. 0.40E+00   23.4     1.72671807     -1071.5008929904  5.27E+00
   149 Broy./Diag. 0.40E+00   24.0     1.74824601     -1079.0748822110 -7.57E+00
   150 Broy./Diag. 0.40E+00   24.2     1.39854220     -1076.3552913636  2.72E+00
   151 Broy./Diag. 0.40E+00   23.2     1.67615089     -1075.1524120323  1.20E+00
   152 Broy./Diag. 0.40E+00   23.4     1.75031172     -1075.7461943271 -5.94E-01
   153 Broy./Diag. 0.40E+00   23.9     1.67503447     -1073.2970184378  2.45E+00
   154 Broy./Diag. 0.40E+00   25.0     1.71809414     -1075.6652962276 -2.37E+00
   155 Broy./Diag. 0.40E+00   22.5     1.60566304     -1076.2416383930 -5.76E-01
   156 Broy./Diag. 0.40E+00   22.7     1.67919939     -1076.1242225819  1.17E-01
   157 Broy./Diag. 0.40E+00   22.8     1.56517982     -1075.2262777025  8.98E-01
   158 Broy./Diag. 0.40E+00   23.2     1.76875603     -1072.3366632888  2.89E+00
   159 Broy./Diag. 0.40E+00   22.3     1.60725791     -1081.0585865297 -8.72E+00
   160 Broy./Diag. 0.40E+00   22.4     1.79266054     -1078.2413483501  2.82E+00
   161 Broy./Diag. 0.40E+00   24.1     1.53537000     -1078.7690216139 -5.28E-01
   162 Broy./Diag. 0.40E+00   24.6     1.30105002     -1075.6930592252  3.08E+00
   163 Broy./Diag. 0.40E+00   23.0     1.01641737     -1073.0395998798  2.65E+00
   164 Broy./Diag. 0.40E+00   23.6     1.54732683     -1075.6204764697 -2.58E+00
   165 Broy./Diag. 0.40E+00   22.3     1.71681769     -1075.9180392431 -2.98E-01
   166 Broy./Diag. 0.40E+00   22.1     1.76171434     -1077.2888210143 -1.37E+00
   167 Broy./Diag. 0.40E+00   23.2     1.65477341     -1076.5252562735  7.64E-01
   168 Broy./Diag. 0.40E+00   23.7     1.64206928     -1071.7375168228  4.79E+00
   169 Broy./Diag. 0.40E+00   23.8     1.71845359     -1081.4887585429 -9.75E+00
   170 Broy./Diag. 0.40E+00   24.1     1.80420202     -1080.2421021575  1.25E+00
   171 Broy./Diag. 0.40E+00   22.9     1.20728195     -1076.7890855601  3.45E+00
   172 Broy./Diag. 0.40E+00   23.4     1.36107163     -1075.7730364541  1.02E+00
   173 Broy./Diag. 0.40E+00   24.9     1.74799279     -1072.6408119718  3.13E+00
   174 Broy./Diag. 0.40E+00   23.8     1.74273758     -1078.6346442127 -5.99E+00
   175 Broy./Diag. 0.40E+00   24.7     1.63429069     -1075.5738101554  3.06E+00
   176 Broy./Diag. 0.40E+00   24.5     1.65615763     -1075.1485337025  4.25E-01
   177 Broy./Diag. 0.40E+00   23.5     1.79149345     -1076.2846348861 -1.14E+00
   178 Broy./Diag. 0.40E+00   23.6     1.26878836     -1074.6805834286  1.60E+00
   179 Broy./Diag. 0.40E+00   23.7     1.51545035     -1072.4716577002  2.21E+00
   180 Broy./Diag. 0.40E+00   22.8     1.60116478     -1078.1806845784 -5.71E+00
   181 Broy./Diag. 0.40E+00   23.7     1.66650639     -1077.4531198790  7.28E-01
   182 Broy./Diag. 0.40E+00   23.5     1.67246652     -1076.4598692422  9.93E-01
   183 Broy./Diag. 0.40E+00   24.2     1.73611355     -1075.4956075661  9.64E-01
   184 Broy./Diag. 0.40E+00   24.5     1.74438495     -1076.6768816329 -1.18E+00
   185 Broy./Diag. 0.40E+00   24.1     1.63390597     -1075.5806909003  1.10E+00
   186 Broy./Diag. 0.40E+00   23.6     1.70045505     -1077.2211179883 -1.64E+00
   187 Broy./Diag. 0.40E+00   23.3     1.54713930     -1074.4434027437  2.78E+00
   188 Broy./Diag. 0.40E+00   23.2     1.30109505     -1074.7964757618 -3.53E-01
   189 Broy./Diag. 0.40E+00   24.2     1.42946300     -1073.6172315508  1.18E+00
   190 Broy./Diag. 0.40E+00   24.0     1.63213233     -1073.3762142293  2.41E-01
   191 Broy./Diag. 0.40E+00   23.5     1.67237722     -1078.3242068024 -4.95E+00
   192 Broy./Diag. 0.40E+00   22.8     1.62384594     -1076.0393064768  2.28E+00
   193 Broy./Diag. 0.40E+00   24.4     1.65685233     -1075.6097301669  4.30E-01
   194 Broy./Diag. 0.40E+00   24.7     1.54587921     -1075.3975527328  2.12E-01
   195 Broy./Diag. 0.40E+00   21.8     1.64727253     -1077.1074923878 -1.71E+00
   196 Broy./Diag. 0.40E+00   22.6     1.72633923     -1076.9757676528  1.32E-01
   197 Broy./Diag. 0.40E+00   23.6     1.71403943     -1074.0825362131  2.89E+00
   198 Broy./Diag. 0.40E+00   22.4     1.51723442     -1073.2279200238  8.55E-01
   199 Broy./Diag. 0.40E+00   21.8     1.59206107     -1075.5540224937 -2.33E+00
   200 Broy./Diag. 0.40E+00   23.6     1.62707909     -1077.8237480818 -2.27E+00
   201 Broy./Diag. 0.40E+00   24.1     1.71726776     -1075.9074713834  1.92E+00
   202 Broy./Diag. 0.40E+00   24.0     1.63267997     -1075.7804826478  1.27E-01
   203 Broy./Diag. 0.40E+00   24.2     1.64266562     -1074.1625815397  1.62E+00
   204 Broy./Diag. 0.40E+00   23.0     1.71171301     -1075.2938104296 -1.13E+00
   205 Broy./Diag. 0.40E+00   21.1     1.74367390     -1073.6396747355  1.65E+00
   206 Broy./Diag. 0.40E+00   22.9     1.77735733     -1081.6902480197 -8.05E+00
   207 Broy./Diag. 0.40E+00   23.4     1.59612725     -1078.0579400705  3.63E+00
   208 Broy./Diag. 0.40E+00   23.0     1.56078506     -1073.1368519480  4.92E+00
   209 Broy./Diag. 0.40E+00   21.2     1.60137327     -1080.1261103651 -6.99E+00
   210 Broy./Diag. 0.40E+00   24.0     1.62461388     -1077.8251659331  2.30E+00
   211 Broy./Diag. 0.40E+00   22.9     1.77228185     -1074.7681070990  3.06E+00
   212 Broy./Diag. 0.40E+00   22.1     1.80166311     -1075.6701180431 -9.02E-01
   213 Broy./Diag. 0.40E+00   21.3     1.74069197     -1075.6025530717  6.76E-02
   214 Broy./Diag. 0.40E+00   21.0     1.83293739     -1073.8822597320  1.72E+00
   215 Broy./Diag. 0.40E+00   22.3     1.73880921     -1072.1054528126  1.78E+00
   216 Broy./Diag. 0.40E+00   20.3     1.77400172     -1078.7960592016 -6.69E+00
   217 Broy./Diag. 0.40E+00   22.8     1.53953275     -1075.9731407423  2.82E+00
   218 Broy./Diag. 0.40E+00   22.1     1.67279500     -1076.3350683373 -3.62E-01
   219 Broy./Diag. 0.40E+00   23.7     1.74693508     -1074.3024881497  2.03E+00
   220 Broy./Diag. 0.40E+00   23.9     1.64724090     -1072.6307753431  1.67E+00
   221 Broy./Diag. 0.40E+00   24.2     1.64068371     -1078.9093811694 -6.28E+00
   222 Broy./Diag. 0.40E+00   24.3     1.61621695     -1075.9450570628  2.96E+00
   223 Broy./Diag. 0.40E+00   23.2     1.68252045     -1076.0955021756 -1.50E-01
   224 Broy./Diag. 0.40E+00   22.6     1.15508219     -1074.2381163366  1.86E+00
   225 Broy./Diag. 0.40E+00   23.7     1.46436044     -1075.7057781125 -1.47E+00
   226 Broy./Diag. 0.40E+00   23.8     1.48678112     -1074.5219613099  1.18E+00
   227 Broy./Diag. 0.40E+00   25.0     1.56071483     -1075.3370042087 -8.15E-01
   228 Broy./Diag. 0.40E+00   22.6     1.69789823     -1076.0451814990 -7.08E-01
   229 Broy./Diag. 0.40E+00   24.0     1.75354694     -1076.1939100875 -1.49E-01
   230 Broy./Diag. 0.40E+00   24.6     1.63694291     -1074.3544128852  1.84E+00
   231 Broy./Diag. 0.40E+00   23.7     1.68151465     -1077.2093600363 -2.85E+00
   232 Broy./Diag. 0.40E+00   24.0     1.75808282     -1072.2425737998  4.97E+00
   233 Broy./Diag. 0.40E+00   22.6     1.78653444     -1081.2058049703 -8.96E+00
   234 Broy./Diag. 0.40E+00   23.2     1.53721680     -1078.8670134723  2.34E+00
   235 Broy./Diag. 0.40E+00   23.1     1.63856588     -1075.4810684622  3.39E+00
   236 Broy./Diag. 0.40E+00   23.1     1.69154246     -1076.3319672548 -8.51E-01
   237 Broy./Diag. 0.40E+00   24.2     1.31101436     -1071.3911454856  4.94E+00
   238 Broy./Diag. 0.40E+00   25.0     1.36499695     -1077.1537677593 -5.76E+00
   239 Broy./Diag. 0.40E+00   24.2     1.78914137     -1076.4469777913  7.07E-01
   240 Broy./Diag. 0.40E+00   22.4     1.76422158     -1078.1719000933 -1.72E+00
   241 Broy./Diag. 0.40E+00   22.1     1.72276243     -1075.5789817248  2.59E+00
   242 Broy./Diag. 0.40E+00   24.2     1.75163166     -1074.5651689578  1.01E+00
   243 Broy./Diag. 0.40E+00   22.1     1.70746508     -1074.6071766074 -4.20E-02
   244 Broy./Diag. 0.40E+00   22.7     1.46207238     -1075.6311348223 -1.02E+00
   245 Broy./Diag. 0.40E+00   20.9     1.60455050     -1075.5141133465  1.17E-01
   246 Broy./Diag. 0.40E+00   23.2     1.59169131     -1075.7398278429 -2.26E-01
   247 Broy./Diag. 0.40E+00   23.0     1.73035336     -1073.5955878139  2.14E+00
   248 Broy./Diag. 0.40E+00   23.4     1.74693445     -1081.3902254283 -7.79E+00
   249 Broy./Diag. 0.40E+00   23.6     1.72757716     -1077.9669068053  3.42E+00
   250 Broy./Diag. 0.40E+00   23.7     1.63337043     -1075.5505456574  2.42E+00
   251 Broy./Diag. 0.40E+00   23.5     1.74192810     -1075.5956319628 -4.51E-02
   252 Broy./Diag. 0.40E+00   23.8     1.65525198     -1074.6287119294  9.67E-01
   253 Broy./Diag. 0.40E+00   24.5     1.62478458     -1073.6582335388  9.70E-01
   254 Broy./Diag. 0.40E+00   23.6     1.63267286     -1073.1636745151  4.95E-01
   255 Broy./Diag. 0.40E+00   23.8     1.78262046     -1076.2339116987 -3.07E+00
   256 Broy./Diag. 0.40E+00   25.1     1.81879440     -1075.5874497502  6.46E-01
   257 Broy./Diag. 0.40E+00   24.3     1.69880233     -1073.8334530203  1.75E+00
   258 Broy./Diag. 0.40E+00   24.3     1.65760500     -1074.6242815229 -7.91E-01
   259 Broy./Diag. 0.40E+00   23.5     1.53131878     -1076.7813518351 -2.16E+00
   260 Broy./Diag. 0.40E+00   23.3     1.64544561     -1075.3533911822  1.43E+00
   261 Broy./Diag. 0.40E+00   23.7     1.74047995     -1075.8647268705 -5.11E-01
   262 Broy./Diag. 0.40E+00   23.4     1.78276622     -1076.8842812086 -1.02E+00
   263 Broy./Diag. 0.40E+00   24.7     1.63538873     -1073.3813426523  3.50E+00
   264 Broy./Diag. 0.40E+00   24.4     1.50084881     -1072.8440651462  5.37E-01
   265 Broy./Diag. 0.40E+00   23.0     1.55318244     -1080.5783188688 -7.73E+00
   266 Broy./Diag. 0.40E+00   24.2     1.80056215     -1078.0148977829  2.56E+00
   267 Broy./Diag. 0.40E+00   24.4     1.06491781     -1075.6172698949  2.40E+00
   268 Broy./Diag. 0.40E+00   24.0     1.47154647     -1073.1072653796  2.51E+00
   269 Broy./Diag. 0.40E+00   23.8     1.51155384     -1077.9059767402 -4.80E+00
   270 Broy./Diag. 0.40E+00   22.4     1.74555420     -1075.4223934622  2.48E+00
   271 Broy./Diag. 0.40E+00   21.8     1.79912702     -1075.5737421887 -1.51E-01
   272 Broy./Diag. 0.40E+00   24.4     1.53574016     -1073.1399847308  2.43E+00
   273 Broy./Diag. 0.40E+00   22.2     1.59258771     -1075.2598155092 -2.12E+00
   274 Broy./Diag. 0.40E+00   22.9     1.64439094     -1074.3760799123  8.84E-01
   275 Broy./Diag. 0.40E+00   23.3     1.59355515     -1078.6321402282 -4.26E+00
   276 Broy./Diag. 0.40E+00   23.6     1.79615040     -1079.3597723905 -7.28E-01
   277 Broy./Diag. 0.40E+00   23.1     1.59602554     -1075.0168355183  4.34E+00
   278 Broy./Diag. 0.40E+00   23.6     1.70226757     -1074.7858637085  2.31E-01
   279 Broy./Diag. 0.40E+00   23.2     1.56031478     -1072.4149596110  2.37E+00
   280 Broy./Diag. 0.40E+00   23.2     1.56646978     -1079.8945407029 -7.48E+00
   281 Broy./Diag. 0.40E+00   22.7     1.58442412     -1076.3668152468  3.53E+00
   282 Broy./Diag. 0.40E+00   23.9     1.63174372     -1075.0358071825  1.33E+00
   283 Broy./Diag. 0.40E+00   24.6     1.78070028     -1076.6987046902 -1.66E+00
   284 Broy./Diag. 0.40E+00   23.9     1.78463899     -1077.7736849465 -1.07E+00
   285 Broy./Diag. 0.40E+00   24.9     1.67298595     -1074.7032623318  3.07E+00
   286 Broy./Diag. 0.40E+00   21.6     1.76824976     -1075.2627609929 -5.59E-01
   287 Broy./Diag. 0.40E+00   21.9     1.71622707     -1073.1896162483  2.07E+00
   288 Broy./Diag. 0.40E+00   21.9     1.77694490     -1078.0553867956 -4.87E+00
   289 Broy./Diag. 0.40E+00   21.4     1.51724067     -1073.4115957913  4.64E+00
   290 Broy./Diag. 0.40E+00   23.1     1.54173253     -1077.9459090310 -4.53E+00
   291 Broy./Diag. 0.40E+00   22.7     1.54045910     -1075.8952992913  2.05E+00
   292 Broy./Diag. 0.40E+00   22.2     1.57198954     -1077.7280798763 -1.83E+00
   293 Broy./Diag. 0.40E+00   23.7     1.60247515     -1073.0284861268  4.70E+00
   294 Broy./Diag. 0.40E+00   24.8     1.65161381     -1080.0367693205 -7.01E+00
   295 Broy./Diag. 0.40E+00   24.1     1.65831406     -1074.3661085702  5.67E+00
   296 Broy./Diag. 0.40E+00   25.6     1.66936838     -1075.2267641474 -8.61E-01
   297 Broy./Diag. 0.40E+00   22.4     1.74609087     -1077.7349822511 -2.51E+00
   298 Broy./Diag. 0.40E+00   22.5     1.48490450     -1079.1997273353 -1.46E+00
   299 Broy./Diag. 0.40E+00   23.5     1.77418908     -1076.7753395949  2.42E+00
   300 Broy./Diag. 0.40E+00   23.7     1.65105384     -1076.5184454957  2.57E-01

  Leaving inner SCF loop after reaching   300 steps.


  Electronic density on regular grids:       -511.9997077696        0.0002922304
  Core density on regular grids:              512.0001640635        0.0001640635
  Total charge density on r-space grids:        0.0004562939
  Total charge density g-space grids:           0.0004562939

  Overlap energy of the core charge distribution:               0.00000000000000
  Self energy of the core charge distribution:              -2838.21791979120962
  Core Hamiltonian energy:                                    758.64960419085207
  Hartree energy:                                            1241.22120542876996
  Exchange-correlation energy:                               -238.17133532407854

  Total energy:                                             -1076.51844549566613

 *** WARNING in qs_scf.F:542 :: SCF run NOT converged ***


 ENERGY| Total FORCE_EVAL ( QS ) energy (a.u.):            -1069.352187263841415


 ATOMIC FORCES in [a.u.]

 # Atom   Kind   Element          X              Y              Z
      1      1      O          -0.20270529    -0.01820220     0.14030621
      2      2      H           0.06330063     0.05903165    -0.11804421
      3      2      H           0.14412382    -0.06025642    -0.00310301
      4      1      O          -0.05279793    -0.12312131     0.12696047
      5      2      H           0.02906957    -0.03087481    -0.10978888
      6      2      H           0.03184123     0.04824801     0.06095311
      7      1      O           0.00062215    -0.00121994     0.01869701
      8      2      H          -0.01473733     0.03157701    -0.00833951
      9      2      H          -0.03007174     0.07790005    -0.00879722
     10      1      O          -0.05698527    -0.00916783    -0.15230172
     11      2      H           0.08546914    -0.02705667     0.02541160
     12      2      H          -0.01063699     0.04812817     0.00595117
     13      1      O           0.07977131     0.03059990     0.03289153
     14      2      H          -0.06839558     0.03243120    -0.01200496
     15      2      H          -0.00525322     0.01002749     0.06709240
     16      1      O           0.03092670    -0.00745926     0.04301563
     17      2      H           0.00119850    -0.04282907    -0.05103983
     18      2      H          -0.02400410     0.03814472    -0.03097088
     19      1      O          -0.00273718     0.16048566    -0.04325367
     20      2      H          -0.09351963    -0.09823951     0.05020705
     21      2      H           0.07901153    -0.03661731     0.03649626
     22      1      O          -0.03567622     0.13197311     0.11392420
     23      2      H          -0.05365966    -0.11744867     0.01695045
     24      2      H           0.08625454    -0.00868835    -0.04102378
     25      1      O           0.05573180    -0.07002051     0.09867152
     26      2      H          -0.00403389    -0.02349861    -0.02984235
     27      2      H          -0.03884208     0.04993754    -0.07280238
     28      1      O          -0.05739488    -0.13568990    -0.12829952
     29      2      H          -0.03038665     0.09462598    -0.04983662
     30      2      H           0.06790646    -0.01570529     0.01038438
     31      1      O           0.07713090    -0.09118492    -0.14970342
     32      2      H           0.01403639     0.04367811     0.02862295
     33      2      H          -0.05201026    -0.02610377    -0.03326648
     34      1      O           0.01999224    -0.00848626    -0.18828676
     35      2      H          -0.02827786     0.00923548     0.12570192
     36      2      H          -0.00326582     0.03057035     0.01644101
     37      1      O          -0.01423737    -0.00131731     0.10071839
     38      2      H           0.04615001     0.06392219    -0.00272987
     39      2      H          -0.05462800    -0.01439628     0.07852063
     40      1      O           0.09293134     0.07415291    -0.11400788
     41      2      H          -0.10796324    -0.00439874    -0.02589186
     42      2      H          -0.02283175     0.00570203     0.12948402
     43      1      O          -0.03442877    -0.00382403    -0.13686515
     44      2      H           0.04864178    -0.01812221     0.04246756
     45      2      H          -0.02591237     0.08467977     0.05073644
     46      1      O          -0.07299391    -0.09902548    -0.07799639
     47      2      H          -0.04062283     0.05984668     0.15502324
     48      2      H           0.09029209    -0.06848410    -0.04297146
     49      1      O          -0.03893488    -0.08729340    -0.07930987
     50      2      H           0.07335708     0.03444315    -0.08121490
     51      2      H           0.00818750     0.02112961     0.05911394
     52      1      O          -0.09005905    -0.01729905    -0.01858418
     53      2      H           0.04184431     0.01139213    -0.05755729
     54      2      H           0.05271124    -0.01782512     0.03719884
     55      1      O          -0.10094465    -0.15285629    -0.05449773
     56      2      H           0.06874500     0.00929134    -0.01761247
     57      2      H           0.02760725     0.07605341     0.02504347
     58      1      O          -0.11988387    -0.20899863    -0.08825339
     59      2      H           0.07170670    -0.04845657     0.04358563
     60      2      H           0.04124855     0.26990418     0.09531665
     61      1      O          -0.10505327    -0.12429262    -0.01498305
     62      2      H           0.00329264     0.04078800    -0.11126197
     63      2      H           0.06914600     0.02293480     0.03693605
     64      1      O          -0.04305448     0.03579836    -0.11418085
     65      2      H           0.01735405     0.05191406     0.01985861
     66      2      H          -0.01561095    -0.04756259     0.04833802
     67      1      O          -0.09817868    -0.00243968     0.14998986
     68      2      H           0.10706258     0.04620157     0.06325170
     69      2      H           0.02398608    -0.05394068    -0.10119011
     70      1      O          -0.03206139    -0.11111136    -0.10318262
     71      2      H          -0.00208575    -0.01692836     0.10412804
     72      2      H           0.03047047     0.08516222    -0.01539414
     73      1      O           0.04005891     0.05260891    -0.12283983
     74      2      H          -0.05309611     0.02974657     0.03615299
     75      2      H           0.00834250    -0.06480125     0.07372831
     76      1      O           0.03647594    -0.03328828     0.02579148
     77      2      H           0.11594275     0.11530231     0.05292723
     78      2      H          -0.15860062    -0.09349145    -0.13044261
     79      1      O          -0.02031231    -0.08159907    -0.09207267
     80      2      H          -0.01682704    -0.01599820     0.00167149
     81      2      H          -0.00683909    -0.00978023     0.03498240
     82      1      O          -0.03570110     0.00116827     0.10245017
     83      2      H           0.08711065    -0.03529064     0.02838350
     84      2      H          -0.02582396     0.04448656    -0.07588765
     85      1      O          -0.01533355    -0.09147970     0.03838455
     86      2      H           0.00846380     0.05322514    -0.03276858
     87      2      H          -0.00167220     0.03281838     0.03523282
     88      1      O          -0.04369786     0.11967702    -0.08121690
     89      2      H          -0.04410804    -0.03200070     0.02985257
     90      2      H           0.08277486    -0.04686824    -0.00907876
     91      1      O           0.04945756     0.11862959    -0.07064465
     92      2      H          -0.06674338     0.01455932     0.00327070
     93      2      H          -0.01590740    -0.08835620    -0.08757446
     94      1      O          -0.05507584    -0.03933475     0.06448722
     95      2      H          -0.01866209     0.04457318    -0.04075958
     96      2      H           0.02071741     0.02379929     0.07438258
     97      1      O          -0.01593043    -0.02557087     0.07777883
     98      2      H           0.01951754     0.02604318    -0.04956869
     99      2      H           0.00621036    -0.00612215     0.04180632
    100      1      O          -0.00618327    -0.09050071     0.07473096
    101      2      H           0.05759978    -0.03716009    -0.04911451
    102      2      H          -0.04466156     0.03223912    -0.03879378
    103      1      O           0.05333174    -0.09575173    -0.01794995
    104      2      H          -0.05983108    -0.02752222     0.05649798
    105      2      H           0.04506343     0.02560969     0.11006562
    106      1      O          -0.03119405     0.05213947    -0.02946551
    107      2      H           0.00485823    -0.03387378    -0.02168460
    108      2      H           0.02323077    -0.01265078     0.01754575
    109      1      O          -0.07152734    -0.09324840    -0.05464127
    110      2      H          -0.02335674     0.03470567     0.04576286
    111      2      H           0.06934018    -0.00924015    -0.00598479
    112      1      O          -0.03106684     0.00034438     0.00466114
    113      2      H           0.03651487    -0.09339768    -0.00723798
    114      2      H           0.01795989     0.07076901     0.02499275
    115      1      O           0.01617227     0.04137794    -0.01389946
    116      2      H           0.07762959    -0.03681878    -0.09918891
    117      2      H          -0.06740785     0.02350085     0.03014661
    118      1      O          -0.06672225    -0.03000217    -0.09522669
    119      2      H           0.05216386     0.00445647     0.04335115
    120      2      H          -0.02422877    -0.06601011     0.01848652
    121      1      O           0.04540877     0.07716990    -0.00328972
    122      2      H           0.00758338    -0.00505971    -0.02531393
    123      2      H          -0.00220213     0.01247310    -0.03569624
    124      1      O           0.04609712    -0.06904934     0.02147227
    125      2      H          -0.01199469    -0.05341587     0.07214720
    126      2      H          -0.02793254     0.03081155    -0.04567518
    127      1      O          -0.06135717    -0.11250914     0.12493187
    128      2      H          -0.06061529     0.01290960    -0.01152746
    129      2      H           0.09759801     0.04468575    -0.03608785
    130      1      O           0.08037808     0.07189778    -0.07662060
    131      2      H          -0.02374734     0.03065346    -0.00566543
    132      2      H          -0.07399723    -0.05865082    -0.03381818
    133      1      O          -0.00614265    -0.05971554     0.13783087
    134      2      H          -0.02321460    -0.02442554    -0.06624018
    135      2      H          -0.00976532     0.08229209     0.00188328
    136      1      O           0.01099500    -0.08323434    -0.09322977
    137      2      H           0.02660832    -0.03124684     0.02268868
    138      2      H          -0.03503764     0.03668215     0.04125042
    139      1      O          -0.07771148    -0.01337987     0.16385627
    140      2      H           0.06126302     0.02362246    -0.05460929
    141      2      H           0.05420677    -0.04434888    -0.01613099
    142      1      O           0.02725207     0.04241867     0.02435527
    143      2      H           0.01317958    -0.00642802     0.07014812
    144      2      H          -0.03424213    -0.00744359    -0.04460796
    145      1      O          -0.04172082     0.00135704     0.13367854
    146      2      H           0.05925170     0.01953031    -0.07317616
    147      2      H          -0.02654086     0.05751169     0.00080821
    148      1      O           0.03530254    -0.09228690     0.03772397
    149      2      H          -0.07589172     0.00920322    -0.03456332
    150      2      H           0.01718285     0.06181454    -0.00479874
    151      1      O          -0.02864156     0.07445492    -0.05074336
    152      2      H          -0.00109996    -0.02992691     0.00987957
    153      2      H           0.04919857    -0.01835519    -0.03661198
    154      1      O          -0.02171757    -0.11085328    -0.01098004
    155      2      H          -0.05899086    -0.01068700     0.11347336
    156      2      H           0.04050519     0.10251273    -0.00559180
    157      1      O           0.02829040    -0.01977515    -0.11886796
    158      2      H           0.01021527     0.07013507    -0.07098048
    159      2      H          -0.05238194    -0.01341300     0.05739948
    160      1      O           0.03823823    -0.00100686     0.08383233
    161      2      H          -0.01659310     0.03620605    -0.01671046
    162      2      H          -0.03229033    -0.02049624     0.06602838
    163      1      O           0.03893164    -0.01197026     0.03372795
    164      2      H          -0.06235893     0.03848578    -0.07459300
    165      2      H           0.02317717     0.04980708     0.05744357
    166      1      O          -0.01932895    -0.08804868    -0.09837672
    167      2      H          -0.01396238     0.08017146     0.07023288
    168      2      H           0.06471703     0.02484727    -0.03742433
    169      1      O           0.01826072    -0.05158926    -0.09316273
    170      2      H          -0.06046467    -0.00018750     0.02318435
    171      2      H           0.00925583     0.04232605     0.01217189
    172      1      O          -0.01006730    -0.00153074    -0.13390574
    173      2      H           0.00287780    -0.08180539     0.02030930
    174      2      H           0.03460389     0.06809400     0.01374011
    175      1      O           0.03917940    -0.06336439     0.00090919
    176      2      H          -0.00046102     0.05162752     0.00295827
    177      2      H          -0.05780343     0.01586152     0.02819713
    178      1      O          -0.09837174     0.04781222    -0.00297103
    179      2      H           0.01385951    -0.00422375     0.10775760
    180      2      H           0.05295690     0.03347881    -0.08952332
    181      1      O          -0.00803172    -0.08429007    -0.03289670
    182      2      H           0.00219533     0.00721346     0.05933422
    183      2      H           0.01147357     0.03282794     0.03006380
    184      1      O           0.02694189    -0.03244629     0.17913942
    185      2      H          -0.04551207     0.00262425    -0.09732313
    186      2      H           0.00224254     0.07816605    -0.00747721
    187      1      O          -0.00479990    -0.05578384    -0.01517977
    188      2      H           0.05053077     0.04853534    -0.00891447
    189      2      H          -0.02197543    -0.00350856    -0.01072560
    190      1      O          -0.00248625    -0.09914880    -0.09783236
    191      2      H          -0.03391203     0.05949457     0.01125471
    192      2      H           0.03797635     0.04331909    -0.02924988
 SUM OF ATOMIC FORCES          -0.26075857    -0.32948148    -0.27579840     0.50261101

 -------------------------------------------------------------------------------
 -                                                                             -
 -                                DBCSR STATISTICS                             -
 -                                                                             -
 -------------------------------------------------------------------------------
 COUNTER                                    TOTAL       BLAS       SMM       ACC
 flops     5 x     5 x   256           3613926400       0.0%    100.0%      0.0%
 flops    13 x     5 x   256           4277378560       0.0%    100.0%      0.0%
 flops     5 x    13 x   256           4537827840       0.0%    100.0%      0.0%
 flops    13 x    13 x   256           6485187072       0.0%    100.0%      0.0%
 flops inhomo. stacks                           0       0.0%      0.0%      0.0%
 flops total                        18.914320E+09       0.0%    100.0%      0.0%
 flops max/rank                     18.914320E+09       0.0%    100.0%      0.0%
 matmuls inhomo. stacks                         0       0.0%      0.0%      0.0%
 matmuls total                             622167       0.0%    100.0%      0.0%
 number of processed stacks                 42140       0.0%    100.0%      0.0%
 average stack size                                     0.0      14.8       0.0
 marketing flops                   333.927416E+09
 -------------------------------------------------------------------------------
 # multiplications                            301
 max memory usage/rank              30.544155E+09
 # max total images/rank                        1
 # max 3D layers                                1
 # MPI messages exchanged                       0
 MPI messages size (bytes):
  total size                         0.000000E+00
  min size                           0.000000E+00
  max size                           0.000000E+00
  average size                       0.000000E+00
 MPI breakdown and total messages size (bytes):
             size <=      128                   0                        0
       128 < size <=     8192                   0                        0
      8192 < size <=    32768                   0                        0
     32768 < size <=   131072                   0                        0
    131072 < size <=  4194304                   0                        0
   4194304 < size <= 16777216                   0                        0
  16777216 < size                               0                        0
 -------------------------------------------------------------------------------

 MEMORY| Estimated peak process memory [MiB]                               29136

 -------------------------------------------------------------------------------
 -                                                                             -
 -                           R E F E R E N C E S                               -
 -                                                                             -
 -------------------------------------------------------------------------------
 
 CP2K version 7.1, the CP2K developers group (2019).
 CP2K is freely available from https://www.cp2k.org/ .

 Schuett, Ole; Messmer, Peter; Hutter, Juerg; VandeVondele, Joost. 
 Electronic Structure Calculations on Graphics Processing Units, John
 Wiley & Sons, Ltd, 173-190 (2016). 
 GPU-Accelerated Sparse Matrix-Matrix Multiplication for
 Linear Scaling Density Functional Theory.
 https://dx.doi.org/10.1002/9781118670712.ch8

 Borstnik, U; VandeVondele, J; Weber, V; Hutter, J. 
 PARALLEL COMPUTING, 40 (5-6), 47-58 (2014). 
 Sparse matrix multiplication: The distributed block-compressed sparse
 row library.
 https://dx.doi.org/10.1016/j.parco.2014.03.012

 Hutter, J; Iannuzzi, M; Schiffmann, F; VandeVondele, J. 
 WIREs Comput Mol Sci., 4 (1), 15-25 (2014). 
 CP2K: atomistic simulations of condensed matter systems.
 https://dx.doi.org/10.1002/wcms.1159

 Krack, M. 
 THEORETICAL CHEMISTRY ACCOUNTS, 114 (1-3), 145-152 (2005). 
 Pseudopotentials for H to Kr optimized for gradient-corrected
 exchange-correlation functionals.
 https://dx.doi.org/10.1007/s00214-005-0655-y

 VandeVondele, J; Krack, M; Mohamed, F; Parrinello, M; Chassaing, T;
 Hutter, J. COMPUTER PHYSICS COMMUNICATIONS, 167 (2), 103-128 (2005). 
 QUICKSTEP: Fast and accurate density functional calculations using a
 mixed Gaussian and plane waves approach.
 https://dx.doi.org/10.1016/j.cpc.2004.12.014

 Frigo, M; Johnson, SG. 
 PROCEEDINGS OF THE IEEE, 93 (2), 216-231 (2005). 
 The design and implementation of FFTW3.
 https://dx.doi.org/10.1109/JPROC.2004.840301

 Hartwigsen, C; Goedecker, S; Hutter, J. 
 PHYSICAL REVIEW B, 58 (7), 3641-3662 (1998). 
 Relativistic separable dual-space Gaussian pseudopotentials from H to Rn.
 https://dx.doi.org/10.1103/PhysRevB.58.3641

 Lippert, G; Hutter, J; Parrinello, M. 
 MOLECULAR PHYSICS, 92 (3), 477-487 (1997). 
 A hybrid Gaussian and plane wave density functional scheme.
 https://dx.doi.org/10.1080/002689797170220

 Goedecker, S; Teter, M; Hutter, J. 
 PHYSICAL REVIEW B, 54 (3), 1703-1710 (1996). 
 Separable dual-space Gaussian pseudopotentials.
 https://dx.doi.org/10.1103/PhysRevB.54.1703


 -------------------------------------------------------------------------------
 -                                                                             -
 -                                T I M I N G                                  -
 -                                                                             -
 -------------------------------------------------------------------------------
 SUBROUTINE                       CALLS  ASD         SELF TIME        TOTAL TIME
                                MAXIMUM       AVERAGE  MAXIMUM  AVERAGE  MAXIMUM
 CP2K                                 1  1.0    1.049    1.049 7072.478 7072.478
 qs_forces                            1  2.0    0.000    0.000 7061.123 7061.123
 qs_energies                          1  3.0    0.000    0.000 7057.784 7057.784
 scf_env_do_scf                       1  4.0    0.001    0.001 7045.548 7045.548
 scf_env_do_scf_inner_loop          300  5.0    0.049    0.049 7045.547 7045.547
 gspace_mixing                      299  6.0   42.258   42.258 2939.487 2939.487
 broyden_mixing                     299  7.0 2653.835 2653.835 2653.838 2653.838
 qs_scf_new_mos                     300  6.0    0.008    0.008 1949.830 1949.830
 eigensolver                        300  7.0    0.036    0.036 1909.615 1909.615
 cp_fm_syevd                        300  8.0 1269.197 1269.197 1270.385 1270.385
 pw_transfer                       3912  9.9    0.373    0.373 1144.747 1144.747
 fft_wrap_pw1pw2                   3310 10.9    0.048    0.048 1116.072 1116.072
 rebuild_ks_matrix                  301  7.0    0.001    0.001 1111.365 1111.365
 qs_ks_build_kohn_sham_matrix       301  8.0    0.081    0.081 1111.364 1111.364
 qs_ks_update_qs_env                300  6.0    0.004    0.004 1108.388 1108.388
 qs_rho_update_rho                  301  6.0    0.002    0.002 1049.760 1049.760
 calculate_rho_elec                 301  7.0  518.876  518.876 1049.758 1049.758
 fft_wrap_pw1pw2_70                1504 11.2   88.797   88.797 1022.341 1022.341
 cp_fm_cholesky_restore             900  8.0  638.125  638.125  638.125  638.125
 fft3d_s                           3311 12.9  528.915  528.915  528.978  528.978
 density_rs2pw                      301  8.0    0.028    0.028  522.456  522.456
 pw_scatter_s                      1804 13.2  410.400  410.400  410.400  410.400
 pw_poisson_solve                   301  9.0  334.756  334.756  363.418  363.418
 sum_up_and_integrate               301  9.0   18.501   18.501  298.905  298.905
 integrate_v_rspace                 301 10.0    8.336    8.336  280.403  280.403
 potential_pw2rs                    301 11.0    2.526    2.526  265.242  265.242
 qs_vxc_create                      301  9.0    0.007    0.007  160.467  160.467
 xc_vxc_pw_create                   301 10.0   42.296   42.296  160.460  160.460
 -------------------------------------------------------------------------------

 The number of warnings for this run is : 1
 
 -------------------------------------------------------------------------------
  **** **** ******  **  PROGRAM ENDED AT                 2020-05-27 11:43:04.236
 ***** ** ***  *** **   PROGRAM RAN ON                                   gnode44
 **    ****   ******    PROGRAM RAN BY                               mayank.modi
 ***** **    ** ** **   PROGRAM PROCESS ID                                 36086
  **** **  *******  **  PROGRAM STOPPED IN /home/mayank.modi/ab-initio-thermodyn
                                           amics-of-water/mayank/cp2k_energy_cal
                                           culations
