 DBCSR| CPU Multiplication driver                                           XSMM
 DBCSR| Multrec recursion limit                                              512
 DBCSR| Multiplication stack size                                           1000
 DBCSR| Maximum elements for images                                    UNLIMITED
 DBCSR| Multiplicative factor virtual images                                   1
 DBCSR| Use multiplication densification                                       T
 DBCSR| Multiplication size stacks                                             3


  **** **** ******  **  PROGRAM STARTED AT               2020-05-27 11:43:04.315
 ***** ** ***  *** **   PROGRAM STARTED ON                               gnode44
 **    ****   ******    PROGRAM STARTED BY                           mayank.modi
 ***** **    ** ** **   PROGRAM PROCESS ID                                 37511
  **** **  *******  **  PROGRAM STARTED IN /home/mayank.modi/ab-initio-thermodyn
                                           amics-of-water/mayank/cp2k_energy_cal
                                           culations

 CP2K| version string:                                          CP2K version 7.1
 CP2K| source code revision number:                                  git:e635599
 CP2K| cp2kflags: omp libint fftw3 libxc xsmm spglib                            
 CP2K| is freely available from                            https://www.cp2k.org/
 CP2K| Program compiled at                          Mon Dec 23 19:23:12 CET 2019
 CP2K| Program compiled on                                                pc9404
 CP2K| Program compiled for                                Linux-x86-64-gfortran
 CP2K| Data directory path                                        /opt/cp2k/data
 CP2K| Input file name                                 input_training/input10.in

 GLOBAL| Force Environment number                                              1
 GLOBAL| Basis set file name                                           BASIS_SET
 GLOBAL| Potential file name                                      GTH_POTENTIALS
 GLOBAL| MM Potential file name                                     MM_POTENTIAL
 GLOBAL| Coordinate file name                                      __STD_INPUT__
 GLOBAL| Method name                                                        CP2K
 GLOBAL| Project name                                                   H2O_bulk
 GLOBAL| Preferred FFT library                                             FFTW3
 GLOBAL| Preferred diagonalization lib.                                       SL
 GLOBAL| Run type                                                   ENERGY_FORCE
 GLOBAL| All-to-all communication in single precision                          F
 GLOBAL| FFTs using library dependent lengths                                  F
 GLOBAL| Global print level                                                  LOW
 GLOBAL| MPI I/O enabled                                                       T
 GLOBAL| Total number of message passing processes                             1
 GLOBAL| Number of threads for this process                                   36
 GLOBAL| This output is from process                                           0
 GLOBAL| CPU model name                Intel(R) Xeon(R) CPU E5-2640 v4 @ 2.40GHz
 GLOBAL| CPUID                                                              1002
 GLOBAL| Compiled for CPUID                                                    0

 MEMORY| system memory details [Kb]
 MEMORY|                        rank 0           min           max       average
 MEMORY| MemTotal            131893056     131893056     131893056     131893056
 MEMORY| MemFree             119526380     119526380     119526380     119526380
 MEMORY| Buffers               2106600       2106600       2106600       2106600
 MEMORY| Cached                2795692       2795692       2795692       2795692
 MEMORY| Slab                  3302848       3302848       3302848       3302848
 MEMORY| SReclaimable          3097228       3097228       3097228       3097228
 MEMORY| MemLikelyFree       127525900     127525900     127525900     127525900


 GENERATE| WARNING:: No connections detected for Hydrogen - Atom Nr:        59 !
 GENERATE| WARNING:: No connections detected for Hydrogen - Atom Nr:       120 !
 GENERATE| WARNING:: No connections detected for Hydrogen - Atom Nr:       123 !
 GENERATE| WARNING:: No connections detected for Hydrogen - Atom Nr:       165 !
 GENERATE|  Preliminary Number of Bonds generated:                             0
 GENERATE|  Achieved consistency in connectivity generation.

 *******************************************************************************
 *******************************************************************************
 **                                                                           **
 **     #####                         ##              ##                      **
 **    ##   ##            ##          ##              ##                      **
 **   ##     ##                       ##            ######                    **
 **   ##     ##  ##   ##  ##   #####  ##  ##   ####   ##    #####    #####    **
 **   ##     ##  ##   ##  ##  ##      ## ##   ##      ##   ##   ##  ##   ##   **
 **   ##  ## ##  ##   ##  ##  ##      ####     ###    ##   ######   ######    **
 **    ##  ###   ##   ##  ##  ##      ## ##      ##   ##   ##       ##        **
 **     #######   #####   ##   #####  ##  ##  ####    ##    #####   ##        **
 **           ##                                                    ##        **
 **                                                                           **
 **                                                ... make the atoms dance   **
 **                                                                           **
 **            Copyright (C) by CP2K developers group (2000 - 2019)           **
 **                                                                           **
 *******************************************************************************


 TOTAL NUMBERS AND MAXIMUM NUMBERS

  Total number of            - Atomic kinds:                                   2
                             - Atoms:                                        192
                             - Shell sets:                                   384
                             - Shells:                                       704
                             - Primitive Cartesian functions:                960
                             - Cartesian basis functions:                   1536
                             - Spherical basis functions:                   1472

  Maximum angular momentum of- Orbital basis functions:                        2
                             - Local part of the GTH pseudopotential:          2
                             - Non-local part of the GTH pseudopotential:      0


 SCF PARAMETERS         Density guess:                                    ATOMIC
                        --------------------------------------------------------
                        max_scf:                                             300
                        max_scf_history:                                       0
                        max_diis:                                              4
                        --------------------------------------------------------
                        eps_scf:                                        1.00E-07
                        eps_scf_history:                                0.00E+00
                        eps_diis:                                       1.00E-01
                        eps_eigval:                                     1.00E-05
                        --------------------------------------------------------
                        level_shift [a.u.]:                                 0.00
                        --------------------------------------------------------
                        Mixing method:                            BROYDEN_MIXING
                                                charge density mixing in g-space
                        --------------------------------------------------------
                        No outer SCF

 Number of electrons:                                                        512
 Number of occupied orbitals:                                                256
 Number of molecular orbitals:                                               256

 Number of orbital functions:                                               1472
 Number of independent orbital functions:                                   1472

 Extrapolation method: initial_guess


 SCF WAVEFUNCTION OPTIMIZATION

  Step     Update method      Time    Convergence         Total energy    Change
  ------------------------------------------------------------------------------
     1 NoMix/Diag. 0.40E+00   10.1     0.68778245     -1063.7580819535 -1.06E+03
     2 Broy./Diag. 0.40E+00   16.3     1.93427784      -990.1733492700  7.36E+01
     3 Broy./Diag. 0.40E+00   16.2     1.92100065     -1281.8615558045 -2.92E+02
     4 Broy./Diag. 0.40E+00   16.3     1.61296460     -1135.6626724548  1.46E+02
     5 Broy./Diag. 0.40E+00   17.5     1.78768078     -1093.5980487308  4.21E+01
     6 Broy./Diag. 0.40E+00   18.7     1.89645492     -1107.8726781807 -1.43E+01
     7 Broy./Diag. 0.40E+00   19.8     1.77386664     -1108.7521992813 -8.80E-01
     8 Broy./Diag. 0.40E+00   20.2     2.03954404     -1085.0300356468  2.37E+01
     9 Broy./Diag. 0.40E+00   21.9     1.64210512     -1077.8762282456  7.15E+00
    10 Broy./Diag. 0.40E+00   22.7     1.77036566     -1081.6282901593 -3.75E+00
    11 Broy./Diag. 0.40E+00   22.8     1.65996228     -1071.6398390503  9.99E+00
    12 Broy./Diag. 0.40E+00   23.8     1.83773148     -1073.3757113940 -1.74E+00
    13 Broy./Diag. 0.40E+00   23.1     1.54338608     -1067.4000255414  5.98E+00
    14 Broy./Diag. 0.40E+00   24.4     1.77159932     -1081.5117592086 -1.41E+01
    15 Broy./Diag. 0.40E+00   24.1     1.83205871     -1085.8930108906 -4.38E+00
    16 Broy./Diag. 0.40E+00   21.9     1.74564605     -1079.2961746054  6.60E+00
    17 Broy./Diag. 0.40E+00   23.0     1.76594920     -1070.6683156992  8.63E+00
    18 Broy./Diag. 0.40E+00   22.4     1.81803027     -1075.3896176534 -4.72E+00
    19 Broy./Diag. 0.40E+00   22.0     1.82951954     -1078.5733281952 -3.18E+00
    20 Broy./Diag. 0.40E+00   24.5     1.82121866     -1078.6483628604 -7.50E-02
    21 Broy./Diag. 0.40E+00   23.8     1.78286067     -1076.7408795338  1.91E+00
    22 Broy./Diag. 0.40E+00   23.6     1.83655539     -1072.9219098557  3.82E+00
    23 Broy./Diag. 0.40E+00   23.1     1.76513683     -1080.1959941260 -7.27E+00
    24 Broy./Diag. 0.40E+00   23.9     1.84603626     -1074.0657019059  6.13E+00
    25 Broy./Diag. 0.40E+00   24.4     1.70041081     -1074.3184566312 -2.53E-01
    26 Broy./Diag. 0.40E+00   23.4     1.79678992     -1076.0350304617 -1.72E+00
    27 Broy./Diag. 0.40E+00   23.5     1.78786446     -1074.2341524231  1.80E+00
    28 Broy./Diag. 0.40E+00   23.2     1.82504660     -1077.4800892507 -3.25E+00
    29 Broy./Diag. 0.40E+00   23.0     1.75516577     -1070.2599991347  7.22E+00
    30 Broy./Diag. 0.40E+00   23.5     1.82134994     -1076.9299646504 -6.67E+00
    31 Broy./Diag. 0.40E+00   23.8     1.78800908     -1072.6775927701  4.25E+00
    32 Broy./Diag. 0.40E+00   24.7     1.75664968     -1076.6908170202 -4.01E+00
    33 Broy./Diag. 0.40E+00   22.7     1.79132561     -1074.1793181939  2.51E+00
    34 Broy./Diag. 0.40E+00   21.5     1.82904203     -1077.2343554403 -3.06E+00
    35 Broy./Diag. 0.40E+00   22.3     1.84054057     -1073.3447916734  3.89E+00
    36 Broy./Diag. 0.40E+00   21.7     1.79408316     -1077.5499730340 -4.21E+00
    37 Broy./Diag. 0.40E+00   23.8     1.68694274     -1074.2895836859  3.26E+00
    38 Broy./Diag. 0.40E+00   22.1     1.78054132     -1075.6942474033 -1.40E+00
    39 Broy./Diag. 0.40E+00   23.7     1.85633279     -1074.7791899104  9.15E-01
    40 Broy./Diag. 0.40E+00   23.5     1.69151266     -1074.3146925218  4.64E-01
    41 Broy./Diag. 0.40E+00   22.3     1.77327984     -1078.9158651079 -4.60E+00
    42 Broy./Diag. 0.40E+00   23.2     1.76554080     -1073.3964487392  5.52E+00
    43 Broy./Diag. 0.40E+00   23.3     1.74422637     -1069.4529771879  3.94E+00
    44 Broy./Diag. 0.40E+00   23.9     1.79831283     -1081.2198880161 -1.18E+01
    45 Broy./Diag. 0.40E+00   24.4     1.78769684     -1076.2293304517  4.99E+00
    46 Broy./Diag. 0.40E+00   24.6     1.82332718     -1077.3191753053 -1.09E+00
    47 Broy./Diag. 0.40E+00   23.7     1.42754118     -1072.3180252525  5.00E+00
    48 Broy./Diag. 0.40E+00   24.1     1.75181256     -1071.4592200966  8.59E-01
    49 Broy./Diag. 0.40E+00   22.6     1.83982972     -1079.3179123914 -7.86E+00
    50 Broy./Diag. 0.40E+00   23.6     1.73510058     -1076.2995269111  3.02E+00
    51 Broy./Diag. 0.40E+00   22.9     1.78958481     -1077.5638225237 -1.26E+00
    52 Broy./Diag. 0.40E+00   22.4     1.83456533     -1073.9718694499  3.59E+00
    53 Broy./Diag. 0.40E+00   23.4     1.82659373     -1077.6544205938 -3.68E+00
    54 Broy./Diag. 0.40E+00   24.5     1.82664450     -1070.2099432522  7.44E+00
    55 Broy./Diag. 0.40E+00   25.0     1.88067775     -1080.2555927025 -1.00E+01
    56 Broy./Diag. 0.40E+00   21.0     1.86558865     -1077.4845651887  2.77E+00
    57 Broy./Diag. 0.40E+00   22.0     1.57396407     -1075.0779507756  2.41E+00
    58 Broy./Diag. 0.40E+00   23.1     1.71021302     -1070.6041548445  4.47E+00
    59 Broy./Diag. 0.40E+00   24.5     1.72071512     -1073.0739888802 -2.47E+00
    60 Broy./Diag. 0.40E+00   24.7     1.74724667     -1072.7535455051  3.20E-01
    61 Broy./Diag. 0.40E+00   21.0     1.72406174     -1080.5827484076 -7.83E+00
    62 Broy./Diag. 0.40E+00   22.1     1.74292190     -1077.3995628321  3.18E+00
    63 Broy./Diag. 0.40E+00   21.1     1.79065492     -1070.2956910892  7.10E+00
    64 Broy./Diag. 0.40E+00   24.0     1.79012035     -1081.7665536886 -1.15E+01
    65 Broy./Diag. 0.40E+00   24.0     1.84668097     -1083.4340468341 -1.67E+00
    66 Broy./Diag. 0.40E+00   23.1     1.65944114     -1073.3224304574  1.01E+01
    67 Broy./Diag. 0.40E+00   22.1     1.16614495     -1070.7122825044  2.61E+00
    68 Broy./Diag. 0.40E+00   24.2     1.70239849     -1070.2183779475  4.94E-01
    69 Broy./Diag. 0.40E+00   24.1     1.77256206     -1075.9979588856 -5.78E+00
    70 Broy./Diag. 0.40E+00   22.4     1.79791942     -1076.4622944775 -4.64E-01
    71 Broy./Diag. 0.40E+00   23.2     1.80308013     -1076.3226488879  1.40E-01
    72 Broy./Diag. 0.40E+00   22.7     1.48358735     -1077.0468391752 -7.24E-01
    73 Broy./Diag. 0.40E+00   22.9     1.77766368     -1070.7457197109  6.30E+00
    74 Broy./Diag. 0.40E+00   23.8     1.82443367     -1079.0740526936 -8.33E+00
    75 Broy./Diag. 0.40E+00   24.1     1.87727977     -1075.7391223096  3.33E+00
    76 Broy./Diag. 0.40E+00   22.7     1.43136793     -1071.0683849491  4.67E+00
    77 Broy./Diag. 0.40E+00   21.0     1.77366128     -1077.3647226798 -6.30E+00
    78 Broy./Diag. 0.40E+00   22.2     1.90447011     -1074.6312218053  2.73E+00
    79 Broy./Diag. 0.40E+00   20.6     1.77391624     -1077.6274778392 -3.00E+00
    80 Broy./Diag. 0.40E+00   23.0     1.79840962     -1075.5904967384  2.04E+00
    81 Broy./Diag. 0.40E+00   23.6     1.77235140     -1074.9115606581  6.79E-01
    82 Broy./Diag. 0.40E+00   23.7     1.77067316     -1067.5514773967  7.36E+00
    83 Broy./Diag. 0.40E+00   22.9     1.77489096     -1084.6775359634 -1.71E+01
    84 Broy./Diag. 0.40E+00   21.7     1.80749059     -1078.0984882561  6.58E+00
    85 Broy./Diag. 0.40E+00   22.8     1.84191228     -1072.4904392034  5.61E+00
    86 Broy./Diag. 0.40E+00   22.9     1.72784055     -1078.3439606913 -5.85E+00
    87 Broy./Diag. 0.40E+00   23.0     1.74960456     -1076.2940083161  2.05E+00
    88 Broy./Diag. 0.40E+00   24.7     1.75948147     -1072.7777994832  3.52E+00
    89 Broy./Diag. 0.40E+00   22.8     1.81860076     -1076.3039425592 -3.53E+00
    90 Broy./Diag. 0.40E+00   24.0     1.71739083     -1070.5885361902  5.72E+00
    91 Broy./Diag. 0.40E+00   23.3     1.79735461     -1076.2204840391 -5.63E+00
    92 Broy./Diag. 0.40E+00   22.7     1.83413097     -1074.8714872933  1.35E+00
    93 Broy./Diag. 0.40E+00   22.7     1.71760539     -1070.2227107205  4.65E+00
    94 Broy./Diag. 0.40E+00   23.5     1.77726900     -1077.9135567320 -7.69E+00
    95 Broy./Diag. 0.40E+00   23.2     1.79579063     -1080.3123937654 -2.40E+00
    96 Broy./Diag. 0.40E+00   24.3     1.62712362     -1069.8420645533  1.05E+01
    97 Broy./Diag. 0.40E+00   22.1     1.78870603     -1083.6005128689 -1.38E+01
    98 Broy./Diag. 0.40E+00   22.9     1.82738868     -1073.7604540913  9.84E+00
    99 Broy./Diag. 0.40E+00   23.7     1.78757120     -1082.5249847631 -8.76E+00
   100 Broy./Diag. 0.40E+00   23.7     1.76708071     -1074.3555404214  8.17E+00
   101 Broy./Diag. 0.40E+00   23.6     1.78186674     -1078.4463956852 -4.09E+00
   102 Broy./Diag. 0.40E+00   23.9     1.73350127     -1074.3598252650  4.09E+00
   103 Broy./Diag. 0.40E+00   23.1     1.77914820     -1076.6031552377 -2.24E+00
   104 Broy./Diag. 0.40E+00   24.1     1.80633195     -1080.9118802622 -4.31E+00
   105 Broy./Diag. 0.40E+00   22.2     1.82215449     -1073.1596077219  7.75E+00
   106 Broy./Diag. 0.40E+00   22.6     1.81020746     -1080.6413756151 -7.48E+00
   107 Broy./Diag. 0.40E+00   22.0     1.84072456     -1077.4950658134  3.15E+00
   108 Broy./Diag. 0.40E+00   21.3     1.82767764     -1070.2401963086  7.25E+00
   109 Broy./Diag. 0.40E+00   22.5     1.46857718     -1067.5984914395  2.64E+00
   110 Broy./Diag. 0.40E+00   23.6     1.78813915     -1078.7614024922 -1.12E+01
   111 Broy./Diag. 0.40E+00   24.4     1.86860160     -1076.5214822645  2.24E+00
   112 Broy./Diag. 0.40E+00   24.8     1.58098209     -1073.9344554387  2.59E+00
   113 Broy./Diag. 0.40E+00   21.9     1.76376820     -1075.9492775124 -2.01E+00
   114 Broy./Diag. 0.40E+00   22.1     1.82514023     -1076.2806087272 -3.31E-01
   115 Broy./Diag. 0.40E+00   21.6     1.73693244     -1075.8758716376  4.05E-01
   116 Broy./Diag. 0.40E+00   22.5     1.79788397     -1072.5034988348  3.37E+00
   117 Broy./Diag. 0.40E+00   23.5     1.83218063     -1078.0937662352 -5.59E+00
   118 Broy./Diag. 0.40E+00   24.1     1.75168867     -1073.3692334808  4.72E+00
   119 Broy./Diag. 0.40E+00   24.2     1.83724985     -1074.4676950897 -1.10E+00
   120 Broy./Diag. 0.40E+00   24.9     1.78332536     -1075.5846503857 -1.12E+00
   121 Broy./Diag. 0.40E+00   24.5     1.74532776     -1075.4801903876  1.04E-01
   122 Broy./Diag. 0.40E+00   23.5     1.50906654     -1076.5649739100 -1.08E+00
   123 Broy./Diag. 0.40E+00   24.0     1.80138795     -1069.9446600672  6.62E+00
   124 Broy./Diag. 0.40E+00   24.1     1.84916357     -1078.4034472702 -8.46E+00
   125 Broy./Diag. 0.40E+00   24.3     1.86709628     -1075.9971320660  2.41E+00
   126 Broy./Diag. 0.40E+00   24.2     1.84199382     -1074.2923135756  1.70E+00
   127 Broy./Diag. 0.40E+00   24.2     1.84411921     -1075.5054451326 -1.21E+00
   128 Broy./Diag. 0.40E+00   23.3     1.59594606     -1071.0294466879  4.48E+00
   129 Broy./Diag. 0.40E+00   23.8     1.60640732     -1073.3900822120 -2.36E+00
   130 Broy./Diag. 0.40E+00   23.8     1.48280447     -1074.8641663818 -1.47E+00
   131 Broy./Diag. 0.40E+00   24.7     1.83673994     -1075.0911075982 -2.27E-01
   132 Broy./Diag. 0.40E+00   24.5     1.86339593     -1073.3053804072  1.79E+00
   133 Broy./Diag. 0.40E+00   24.3     1.76026896     -1078.0832175358 -4.78E+00
   134 Broy./Diag. 0.40E+00   24.3     1.82292174     -1077.0528968951  1.03E+00
   135 Broy./Diag. 0.40E+00   22.9     1.81966202     -1076.8923495474  1.61E-01
   136 Broy./Diag. 0.40E+00   24.8     1.79835394     -1069.4789241484  7.41E+00
   137 Broy./Diag. 0.40E+00   22.6     1.85436389     -1083.1951535038 -1.37E+01
   138 Broy./Diag. 0.40E+00   22.6     1.77936234     -1070.7069539435  1.25E+01
   139 Broy./Diag. 0.40E+00   23.7     1.84759790     -1079.2716309506 -8.56E+00
   140 Broy./Diag. 0.40E+00   24.1     1.76351716     -1075.4979393984  3.77E+00
   141 Broy./Diag. 0.40E+00   24.8     1.73888992     -1072.7464091774  2.75E+00
   142 Broy./Diag. 0.40E+00   24.6     1.82238097     -1069.9362943695  2.81E+00
   143 Broy./Diag. 0.40E+00   24.4     1.83116268     -1079.8761647707 -9.94E+00
   144 Broy./Diag. 0.40E+00   22.8     1.78072018     -1076.0367526128  3.84E+00
   145 Broy./Diag. 0.40E+00   24.2     1.83339781     -1078.1263801082 -2.09E+00
   146 Broy./Diag. 0.40E+00   22.9     1.77752562     -1074.1143251234  4.01E+00
   147 Broy./Diag. 0.40E+00   24.1     1.82926854     -1076.7979663286 -2.68E+00
   148 Broy./Diag. 0.40E+00   24.0     1.72281796     -1070.5836073252  6.21E+00
   149 Broy./Diag. 0.40E+00   23.5     1.79770232     -1075.4322867328 -4.85E+00
   150 Broy./Diag. 0.40E+00   24.4     1.76318326     -1074.2415920982  1.19E+00
   151 Broy./Diag. 0.40E+00   24.8     1.78085444     -1070.2006273588  4.04E+00
   152 Broy./Diag. 0.40E+00   24.2     1.82246150     -1082.5343397021 -1.23E+01
   153 Broy./Diag. 0.40E+00   25.1     1.81455089     -1080.9480254409  1.59E+00
   154 Broy./Diag. 0.40E+00   24.6     1.78170792     -1075.4708345651  5.48E+00
   155 Broy./Diag. 0.40E+00   24.6     1.69125109     -1071.0804198725  4.39E+00
   156 Broy./Diag. 0.40E+00   24.2     1.78008588     -1073.0306743914 -1.95E+00
   157 Broy./Diag. 0.40E+00   25.9     1.82511113     -1075.3769078097 -2.35E+00
   158 Broy./Diag. 0.40E+00   24.6     1.74318009     -1075.3466198513  3.03E-02
   159 Broy./Diag. 0.40E+00   23.7     1.87391018     -1073.5137198138  1.83E+00
   160 Broy./Diag. 0.40E+00   23.8     1.76770342     -1076.4429864334 -2.93E+00
   161 Broy./Diag. 0.40E+00   24.8     1.76774643     -1072.7375853976  3.71E+00
   162 Broy./Diag. 0.40E+00   23.6     1.84812804     -1077.8110358694 -5.07E+00
   163 Broy./Diag. 0.40E+00   22.8     1.68624294     -1076.0009352630  1.81E+00
   164 Broy./Diag. 0.40E+00   24.1     1.74644053     -1076.6130953527 -6.12E-01
   165 Broy./Diag. 0.40E+00   24.2     1.76103102     -1071.1319056106  5.48E+00
   166 Broy./Diag. 0.40E+00   23.0     1.81294499     -1087.0581597139 -1.59E+01
   167 Broy./Diag. 0.40E+00   23.7     1.74185560     -1081.0653457237  5.99E+00
   168 Broy./Diag. 0.40E+00   24.1     1.52302746     -1067.7065437572  1.34E+01
   169 Broy./Diag. 0.40E+00   24.2     1.73920318     -1082.7288833852 -1.50E+01
   170 Broy./Diag. 0.40E+00   24.2     1.80356004     -1079.7814066955  2.95E+00
   171 Broy./Diag. 0.40E+00   24.7     1.82209403     -1077.8322873158  1.95E+00
   172 Broy./Diag. 0.40E+00   24.7     1.46009264     -1074.7588551260  3.07E+00
   173 Broy./Diag. 0.40E+00   24.5     1.70294937     -1072.4735353209  2.29E+00
   174 Broy./Diag. 0.40E+00   24.4     1.79538475     -1073.7855230562 -1.31E+00
   175 Broy./Diag. 0.40E+00   24.9     1.74929046     -1071.7149890437  2.07E+00
   176 Broy./Diag. 0.40E+00   24.8     1.78128060     -1077.4677505564 -5.75E+00
   177 Broy./Diag. 0.40E+00   25.3     1.84213322     -1079.2282801100 -1.76E+00
   178 Broy./Diag. 0.40E+00   24.2     1.83105541     -1075.9703034635  3.26E+00
   179 Broy./Diag. 0.40E+00   24.5     1.73602528     -1076.8828847029 -9.13E-01
   180 Broy./Diag. 0.40E+00   24.3     1.39762509     -1072.1382253926  4.74E+00
   181 Broy./Diag. 0.40E+00   24.4     1.66786048     -1076.8429067784 -4.70E+00
   182 Broy./Diag. 0.40E+00   25.1     1.76538666     -1071.2927921108  5.55E+00
   183 Broy./Diag. 0.40E+00   23.1     1.71279177     -1077.4913895111 -6.20E+00
   184 Broy./Diag. 0.40E+00   22.9     1.78453452     -1073.7531583748  3.74E+00
   185 Broy./Diag. 0.40E+00   24.1     1.84603771     -1077.5969215990 -3.84E+00
   186 Broy./Diag. 0.40E+00   23.9     1.66777754     -1075.8282927873  1.77E+00
   187 Broy./Diag. 0.40E+00   23.6     1.74080233     -1070.9268709787  4.90E+00
   188 Broy./Diag. 0.40E+00   23.4     1.78412720     -1081.4100323606 -1.05E+01
   189 Broy./Diag. 0.40E+00   23.8     1.74737390     -1071.8246997556  9.59E+00
   190 Broy./Diag. 0.40E+00   22.7     1.65415316     -1070.7242047027  1.10E+00
   191 Broy./Diag. 0.40E+00   25.2     1.76504976     -1072.9351911358 -2.21E+00
   192 Broy./Diag. 0.40E+00   24.5     1.77198663     -1080.9226164441 -7.99E+00
   193 Broy./Diag. 0.40E+00   25.6     1.80136778     -1077.9314916644  2.99E+00
   194 Broy./Diag. 0.40E+00   24.8     1.80127044     -1073.2525560631  4.68E+00
   195 Broy./Diag. 0.40E+00   24.5     1.84838780     -1078.1563601431 -4.90E+00
   196 Broy./Diag. 0.40E+00   24.9     1.79537003     -1074.3559962576  3.80E+00
   197 Broy./Diag. 0.40E+00   24.6     1.84116782     -1073.8620947854  4.94E-01
   198 Broy./Diag. 0.40E+00   24.2     1.85454733     -1075.5409579021 -1.68E+00
   199 Broy./Diag. 0.40E+00   24.2     1.80556388     -1070.2310683909  5.31E+00
   200 Broy./Diag. 0.40E+00   23.6     1.77851626     -1077.4975798598 -7.27E+00
   201 Broy./Diag. 0.40E+00   23.3     1.76696590     -1073.7620050035  3.74E+00
   202 Broy./Diag. 0.40E+00   24.2     1.48067448     -1080.2272159471 -6.47E+00
   203 Broy./Diag. 0.40E+00   24.2     1.76236068     -1068.8866931602  1.13E+01
   204 Broy./Diag. 0.40E+00   24.8     1.80268315     -1090.8953229898 -2.20E+01
   205 Broy./Diag. 0.40E+00   24.5     1.80077296     -1084.3097112966  6.59E+00
   206 Broy./Diag. 0.40E+00   24.0     1.73660216     -1076.6026933625  7.71E+00
   207 Broy./Diag. 0.40E+00   24.4     1.67769672     -1074.9804692641  1.62E+00
   208 Broy./Diag. 0.40E+00   24.5     1.77839685     -1073.2623112663  1.72E+00
   209 Broy./Diag. 0.40E+00   24.7     1.83855746     -1078.5232864474 -5.26E+00
   210 Broy./Diag. 0.40E+00   24.4     1.86106143     -1073.0966543662  5.43E+00
   211 Broy./Diag. 0.40E+00   25.1     1.79519184     -1077.2562946696 -4.16E+00
   212 Broy./Diag. 0.40E+00   24.6     1.27956791     -1076.8231386786  4.33E-01
   213 Broy./Diag. 0.40E+00   25.0     1.61765465     -1070.5554866631  6.27E+00
   214 Broy./Diag. 0.40E+00   24.7     1.78409050     -1083.0769850969 -1.25E+01
   215 Broy./Diag. 0.40E+00   24.2     1.69216699     -1075.9355838813  7.14E+00
   216 Broy./Diag. 0.40E+00   24.1     1.70693212     -1070.6014983427  5.33E+00
   217 Broy./Diag. 0.40E+00   24.1     1.81555319     -1072.9807149864 -2.38E+00
   218 Broy./Diag. 0.40E+00   24.8     1.77116723     -1076.8571108478 -3.88E+00
   219 Broy./Diag. 0.40E+00   24.4     1.80856496     -1081.1717754148 -4.31E+00
   220 Broy./Diag. 0.40E+00   23.2     1.86890239     -1074.9268892548  6.24E+00
   221 Broy./Diag. 0.40E+00   23.8     1.83381048     -1075.8194495292 -8.93E-01
   222 Broy./Diag. 0.40E+00   24.3     1.85788611     -1074.2704692960  1.55E+00
   223 Broy./Diag. 0.40E+00   24.6     1.64232417     -1071.0938867872  3.18E+00
   224 Broy./Diag. 0.40E+00   24.0     1.76159005     -1077.5350729788 -6.44E+00
   225 Broy./Diag. 0.40E+00   23.8     1.75847062     -1073.7690414001  3.77E+00
   226 Broy./Diag. 0.40E+00   25.0     1.79486317     -1071.1125884723  2.66E+00
   227 Broy./Diag. 0.40E+00   22.6     1.84493774     -1074.4610387683 -3.35E+00
   228 Broy./Diag. 0.40E+00   24.4     1.69047800     -1077.1846574192 -2.72E+00
   229 Broy./Diag. 0.40E+00   23.9     1.70816266     -1077.4792429984 -2.95E-01
   230 Broy./Diag. 0.40E+00   22.8     1.61297111     -1073.6498151593  3.83E+00
   231 Broy./Diag. 0.40E+00   22.4     1.78846259     -1077.0419825395 -3.39E+00
   232 Broy./Diag. 0.40E+00   23.7     1.83598500     -1077.6546689130 -6.13E-01
   233 Broy./Diag. 0.40E+00   23.5     1.73673134     -1072.6950186994  4.96E+00
   234 Broy./Diag. 0.40E+00   23.9     1.76027685     -1073.1438482249 -4.49E-01
   235 Broy./Diag. 0.40E+00   24.5     1.76570298     -1077.3622838328 -4.22E+00
   236 Broy./Diag. 0.40E+00   24.4     1.78490896     -1076.7626864232  6.00E-01
   237 Broy./Diag. 0.40E+00   23.7     1.85395814     -1070.8126510454  5.95E+00
   238 Broy./Diag. 0.40E+00   24.2     1.74489903     -1074.6631661082 -3.85E+00
   239 Broy./Diag. 0.40E+00   24.5     1.79375088     -1073.9279470861  7.35E-01
   240 Broy./Diag. 0.40E+00   24.2     1.75148103     -1073.4344568000  4.93E-01
   241 Broy./Diag. 0.40E+00   23.8     1.80079362     -1074.2579933387 -8.24E-01
   242 Broy./Diag. 0.40E+00   24.6     1.82410140     -1081.4163237270 -7.16E+00
   243 Broy./Diag. 0.40E+00   24.2     1.83585138     -1076.1050658058  5.31E+00
   244 Broy./Diag. 0.40E+00   25.0     1.76556315     -1074.6740874248  1.43E+00
   245 Broy./Diag. 0.40E+00   24.0     1.78035998     -1070.3642359860  4.31E+00
   246 Broy./Diag. 0.40E+00   24.5     1.85200925     -1076.4355564091 -6.07E+00
   247 Broy./Diag. 0.40E+00   24.6     1.78757964     -1075.0555001841  1.38E+00
   248 Broy./Diag. 0.40E+00   24.7     1.78894137     -1076.8316435471 -1.78E+00
   249 Broy./Diag. 0.40E+00   24.4     1.56500442     -1074.2644722832  2.57E+00
   250 Broy./Diag. 0.40E+00   24.4     1.77986160     -1071.4902920193  2.77E+00
   251 Broy./Diag. 0.40E+00   24.3     1.81274893     -1076.7480769172 -5.26E+00
   252 Broy./Diag. 0.40E+00   24.1     1.85914444     -1077.9609117902 -1.21E+00
   253 Broy./Diag. 0.40E+00   24.1     1.73168535     -1074.1956540560  3.77E+00
   254 Broy./Diag. 0.40E+00   24.1     1.74700118     -1077.1577641399 -2.96E+00
   255 Broy./Diag. 0.40E+00   23.9     1.76333100     -1073.8705552539  3.29E+00
   256 Broy./Diag. 0.40E+00   24.3     1.78540809     -1071.5771361468  2.29E+00
   257 Broy./Diag. 0.40E+00   24.3     1.77163846     -1077.1019627917 -5.52E+00
   258 Broy./Diag. 0.40E+00   24.4     1.79801454     -1071.4572851223  5.64E+00
   259 Broy./Diag. 0.40E+00   24.2     1.84375542     -1079.8783255259 -8.42E+00
   260 Broy./Diag. 0.40E+00   24.2     1.83712606     -1076.0332739723  3.85E+00
   261 Broy./Diag. 0.40E+00   24.2     1.80351012     -1066.7033590843  9.33E+00
   262 Broy./Diag. 0.40E+00   23.7     1.83044762     -1083.3973946536 -1.67E+01
   263 Broy./Diag. 0.40E+00   24.2     1.65329955     -1073.0049573632  1.04E+01
   264 Broy./Diag. 0.40E+00   24.7     1.59119291     -1078.7412683975 -5.74E+00
   265 Broy./Diag. 0.40E+00   24.5     1.77636762     -1071.6988211584  7.04E+00
   266 Broy./Diag. 0.40E+00   22.7     1.81232069     -1073.8604405434 -2.16E+00
   267 Broy./Diag. 0.40E+00   25.8     1.74154517     -1077.3624836494 -3.50E+00
   268 Broy./Diag. 0.40E+00   24.9     1.33111407     -1071.1858505445  6.18E+00
   269 Broy./Diag. 0.40E+00   25.1     1.80154860     -1071.6950819489 -5.09E-01
   270 Broy./Diag. 0.40E+00   24.9     1.81258864     -1077.8021134676 -6.11E+00
   271 Broy./Diag. 0.40E+00   25.1     1.79644581     -1074.4057159547  3.40E+00
   272 Broy./Diag. 0.40E+00   24.6     1.84456710     -1078.8254824013 -4.42E+00
   273 Broy./Diag. 0.40E+00   24.7     1.76808129     -1074.6940728257  4.13E+00
   274 Broy./Diag. 0.40E+00   24.9     1.60685738     -1079.4790337111 -4.78E+00
   275 Broy./Diag. 0.40E+00   24.8     1.66866220     -1070.6629740605  8.82E+00
   276 Broy./Diag. 0.40E+00   24.8     1.85626354     -1076.2513205681 -5.59E+00
   277 Broy./Diag. 0.40E+00   24.9     1.79582676     -1077.0623614921 -8.11E-01
   278 Broy./Diag. 0.40E+00   24.7     1.79575349     -1077.1194490278 -5.71E-02
   279 Broy./Diag. 0.40E+00   25.2     1.87058491     -1070.2577115918  6.86E+00
   280 Broy./Diag. 0.40E+00   24.7     1.73312383     -1075.3361463260 -5.08E+00
   281 Broy./Diag. 0.40E+00   24.5     1.76129432     -1074.6630686532  6.73E-01
   282 Broy./Diag. 0.40E+00   24.5     1.73456222     -1077.6992584776 -3.04E+00
   283 Broy./Diag. 0.40E+00   24.8     1.76822057     -1081.6428067991 -3.94E+00
   284 Broy./Diag. 0.40E+00   25.0     1.59982621     -1077.1864221559  4.46E+00
   285 Broy./Diag. 0.40E+00   24.3     1.75241213     -1070.4224030248  6.76E+00
   286 Broy./Diag. 0.40E+00   23.1     1.82950239     -1077.1083648735 -6.69E+00
   287 Broy./Diag. 0.40E+00   25.2     1.79282149     -1073.8423002722  3.27E+00
   288 Broy./Diag. 0.40E+00   25.2     1.82116612     -1082.9774420855 -9.14E+00
   289 Broy./Diag. 0.40E+00   23.0     1.84355232     -1072.3713601589  1.06E+01
   290 Broy./Diag. 0.40E+00   23.3     1.74115790     -1073.6082218020 -1.24E+00
   291 Broy./Diag. 0.40E+00   22.4     1.77571851     -1076.0738128962 -2.47E+00
   292 Broy./Diag. 0.40E+00   22.8     1.77483515     -1071.0653927126  5.01E+00
   293 Broy./Diag. 0.40E+00   24.2     1.83485621     -1082.5784974076 -1.15E+01
   294 Broy./Diag. 0.40E+00   24.1     1.52160447     -1078.5134726852  4.07E+00
   295 Broy./Diag. 0.40E+00   24.3     1.68694420     -1072.8245850261  5.69E+00
   296 Broy./Diag. 0.40E+00   25.4     1.77407468     -1077.3542016401 -4.53E+00
   297 Broy./Diag. 0.40E+00   22.5     1.79263566     -1071.7164133501  5.64E+00
   298 Broy./Diag. 0.40E+00   23.8     1.84883197     -1075.7129093729 -4.00E+00
   299 Broy./Diag. 0.40E+00   24.3     1.83859916     -1072.9520976507  2.76E+00
   300 Broy./Diag. 0.40E+00   24.3     1.78257446     -1080.3699450122 -7.42E+00

  Leaving inner SCF loop after reaching   300 steps.


  Electronic density on regular grids:       -512.0006621246       -0.0006621246
  Core density on regular grids:              512.0001397370        0.0001397370
  Total charge density on r-space grids:       -0.0005223876
  Total charge density g-space grids:          -0.0005223876

  Overlap energy of the core charge distribution:               0.00000000000000
  Self energy of the core charge distribution:              -2838.21791979120962
  Core Hamiltonian energy:                                    755.23531249070015
  Hartree energy:                                            1240.65077151311289
  Exchange-correlation energy:                               -238.03810922480847

  Total energy:                                             -1080.36994501220533

 *** WARNING in qs_scf.F:542 :: SCF run NOT converged ***


 ENERGY| Total FORCE_EVAL ( QS ) energy (a.u.):            -1066.930324293221020


 ATOMIC FORCES in [a.u.]

 # Atom   Kind   Element          X              Y              Z
      1      1      O          -0.02570482    -0.09983825     0.09612166
      2      2      H           0.04259582    -0.00093847    -0.00484319
      3      2      H           0.02180582     0.04058152    -0.02414405
      4      1      O          -0.03247892    -0.00908268    -0.06489821
      5      2      H           0.03906771    -0.00478705     0.01334573
      6      2      H          -0.03089504     0.08772295    -0.01435525
      7      1      O          -0.00600252    -0.00659719     0.15519430
      8      2      H           0.13613303     0.01764409    -0.10036508
      9      2      H          -0.11078182     0.02523097    -0.11563862
     10      1      O          -0.01205978    -0.11456893     0.08988243
     11      2      H           0.01973856     0.00426826     0.00967088
     12      2      H          -0.04211317     0.06166879    -0.06628998
     13      1      O           0.00218097    -0.08250341    -0.02612330
     14      2      H          -0.00360581     0.03051930     0.03916566
     15      2      H          -0.00614733     0.03328995     0.03232864
     16      1      O           0.05585483    -0.11631340     0.06270836
     17      2      H          -0.00584509     0.03351431     0.08770097
     18      2      H          -0.06951646    -0.00755545    -0.01569450
     19      1      O          -0.13298600     0.01234446     0.08802644
     20      2      H           0.00306288    -0.00745168    -0.05515027
     21      2      H           0.11598820     0.01909229     0.01513088
     22      1      O           0.00932598    -0.11326457     0.13344717
     23      2      H          -0.03049161     0.06820066     0.01579132
     24      2      H           0.04286277     0.01939994    -0.06883982
     25      1      O           0.09405193     0.03681423     0.13778799
     26      2      H          -0.04188499     0.07058955    -0.08731077
     27      2      H          -0.05240095    -0.06418578     0.05483484
     28      1      O          -0.05913134     0.01277845    -0.04876070
     29      2      H          -0.01985068    -0.04451245     0.10534987
     30      2      H           0.06444174     0.02111798    -0.02459668
     31      1      O          -0.14726537    -0.12538270    -0.09216558
     32      2      H          -0.04528048     0.15108439     0.02196290
     33      2      H           0.19618967    -0.00351100     0.04549770
     34      1      O          -0.10847040    -0.01248718    -0.07011993
     35      2      H           0.07258308    -0.02127772     0.06608621
     36      2      H           0.03665680     0.06938777    -0.03896667
     37      1      O           0.01031631    -0.10319331    -0.13615438
     38      2      H           0.05982783     0.08645254     0.05471820
     39      2      H          -0.07178424     0.00302145     0.09597059
     40      1      O           0.09634284     0.10255431    -0.05862191
     41      2      H          -0.05144986     0.00230258     0.09390775
     42      2      H          -0.04284762    -0.06250751    -0.07043187
     43      1      O          -0.01528986     0.10802470    -0.11490972
     44      2      H          -0.02290408    -0.05469685    -0.00627153
     45      2      H           0.04936774     0.00052724     0.03251277
     46      1      O           0.08779922    -0.09523163    -0.06382030
     47      2      H          -0.02087985     0.10870973    -0.05809855
     48      2      H          -0.12097591    -0.01752727    -0.07239768
     49      1      O           0.06325553     0.04562059     0.10879973
     50      2      H          -0.02663809    -0.00328280     0.01386662
     51      2      H          -0.06263016     0.00023540    -0.01087420
     52      1      O          -0.02717099    -0.00301470     0.03136573
     53      2      H           0.07721591    -0.01688327    -0.00475141
     54      2      H          -0.02619659     0.02586363     0.05539951
     55      1      O           0.03620458     0.09541290    -0.01887145
     56      2      H          -0.04271606    -0.06104718     0.02271452
     57      2      H           0.04198168     0.03819994     0.02887556
     58      1      O          -0.03070682     0.08573627     0.03801710
     59      2      H           0.01284578     0.00521398    -0.03998035
     60      2      H          -0.00866586    -0.07138369     0.00841144
     61      1      O          -0.08301482     0.03603963     0.03127490
     62      2      H          -0.00659389    -0.08331861     0.02528505
     63      2      H           0.07000350     0.01958649     0.02069414
     64      1      O           0.00541390    -0.08131798     0.16941519
     65      2      H          -0.02996074     0.05541490    -0.02426211
     66      2      H           0.05982236     0.01101111    -0.02721418
     67      1      O           0.00115968    -0.04502915    -0.05873962
     68      2      H          -0.02194569     0.01520133     0.00959948
     69      2      H          -0.02529701    -0.00156346     0.09023453
     70      1      O          -0.10754657    -0.14008310     0.00800688
     71      2      H          -0.02412864    -0.00141863     0.14682672
     72      2      H           0.10567566     0.08751026    -0.04439703
     73      1      O          -0.01029676    -0.03282980    -0.00259847
     74      2      H           0.05396087     0.05321503    -0.01896439
     75      2      H          -0.02372972    -0.03223423     0.02719070
     76      1      O          -0.01287187    -0.02894604    -0.09460495
     77      2      H           0.08081855     0.04489583     0.09569380
     78      2      H          -0.04224504     0.07566826    -0.06078531
     79      1      O          -0.06933905     0.04161606    -0.15547315
     80      2      H          -0.03841101    -0.05477417     0.04399978
     81      2      H           0.08649468     0.00233077     0.05063832
     82      1      O           0.00732984    -0.11770600     0.01920595
     83      2      H          -0.02855480     0.10643331     0.01103740
     84      2      H           0.01012663     0.01374621     0.00093063
     85      1      O          -0.06430858    -0.00816897    -0.02343215
     86      2      H           0.03433230     0.03430879    -0.02425549
     87      2      H          -0.00980510    -0.00133827     0.06495840
     88      1      O           0.02503655    -0.00026529    -0.09771939
     89      2      H          -0.02056371    -0.01357947     0.07142137
     90      2      H           0.01118930     0.02249069    -0.01402669
     91      1      O           0.11105390     0.04004534     0.04751852
     92      2      H          -0.07169950    -0.06871740     0.02639098
     93      2      H           0.00589197     0.05403958     0.00960510
     94      1      O           0.01028879     0.07070865    -0.15840920
     95      2      H          -0.05548348    -0.05281621     0.02889697
     96      2      H           0.07412584    -0.05557749    -0.02168921
     97      1      O          -0.01667475     0.07332749     0.02164325
     98      2      H           0.01600968     0.02164494     0.00054593
     99      2      H           0.00478854    -0.03729920     0.03934892
    100      1      O          -0.09821772    -0.09754609    -0.01958164
    101      2      H           0.00479889     0.01721831     0.11445913
    102      2      H           0.09773239    -0.00537425    -0.01351888
    103      1      O           0.01715255    -0.13549453    -0.10586566
    104      2      H          -0.04766387     0.04354599     0.00026700
    105      2      H           0.02531138     0.03754891     0.07416580
    106      1      O           0.01835648    -0.09428975     0.07805216
    107      2      H           0.02937123    -0.03181343    -0.05635813
    108      2      H          -0.07715273     0.02615736    -0.04513375
    109      1      O          -0.06389858    -0.06922487    -0.14376830
    110      2      H           0.00428006     0.05840532    -0.02679541
    111      2      H           0.03020608    -0.05227973     0.03676058
    112      1      O          -0.02818630     0.01801013    -0.15972345
    113      2      H          -0.03079385     0.04556978    -0.01593000
    114      2      H           0.05345769     0.00596248     0.00933086
    115      1      O          -0.03727094    -0.08129210    -0.13544907
    116      2      H           0.07715634    -0.05421853    -0.00587455
    117      2      H          -0.02600017     0.05231976     0.03908144
    118      1      O           0.00978765    -0.06576585    -0.11916546
    119      2      H          -0.00078609     0.02052214     0.04820366
    120      2      H          -0.00497409     0.01043322    -0.02269331
    121      1      O          -0.01520804    -0.07625901    -0.07311055
    122      2      H           0.02112657     0.00965209     0.03607967
    123      2      H          -0.02364146     0.00487733     0.03415502
    124      1      O           0.04681202    -0.15017296     0.04278531
    125      2      H          -0.05423568     0.08527468    -0.04814253
    126      2      H           0.02618175     0.05248135     0.01994920
    127      1      O           0.12967630     0.04975244    -0.15371515
    128      2      H          -0.11559135     0.08165996    -0.01087322
    129      2      H          -0.00097705    -0.14495255     0.04062782
    130      1      O           0.09713326    -0.04995847     0.15325914
    131      2      H          -0.01516409     0.03857511    -0.09548546
    132      2      H          -0.08213743     0.03469411     0.05403900
    133      1      O           0.00102102    -0.13329314     0.04695463
    134      2      H          -0.00080175     0.03146136     0.09537425
    135      2      H          -0.02886646     0.05524043    -0.00258530
    136      1      O           0.04505908     0.30245046     0.01697194
    137      2      H          -0.00968114    -0.14420163    -0.06450972
    138      2      H          -0.05175755    -0.30510346    -0.02894680
    139      1      O           0.08522279     0.02268655    -0.15579781
    140      2      H           0.04865754    -0.07399680     0.09651970
    141      2      H          -0.11449106    -0.00434243    -0.06677061
    142      1      O           0.11008905     0.02310937    -0.02298559
    143      2      H          -0.00744487    -0.12063850     0.02482883
    144      2      H          -0.08395644     0.06069840     0.04723051
    145      1      O           0.02955659     0.00288533     0.10259738
    146      2      H           0.01650315    -0.08094145    -0.03295059
    147      2      H          -0.05660201     0.02226813    -0.00071743
    148      1      O           0.02120929    -0.08152733     0.10413569
    149      2      H          -0.01978604     0.02678416     0.05977325
    150      2      H           0.01578985     0.03587033    -0.09780270
    151      1      O          -0.04125496     0.09833963    -0.08581668
    152      2      H          -0.04170860    -0.02063043     0.03409039
    153      2      H           0.08506565     0.03930758     0.08259190
    154      1      O           0.01688674    -0.05015407     0.09207153
    155      2      H          -0.02815115    -0.02360655    -0.03287688
    156      2      H           0.01467381     0.06123940    -0.00632417
    157      1      O           0.02778307    -0.08758882     0.01506366
    158      2      H          -0.06222973     0.06370082    -0.04322854
    159      2      H           0.02072888     0.03770332     0.08463435
    160      1      O          -0.08809628    -0.10802740    -0.07538225
    161      2      H           0.05164626     0.03289451     0.07242500
    162      2      H           0.01506774     0.05018980    -0.02264208
    163      1      O           0.00636898     0.12502643     0.11656143
    164      2      H           0.00192611    -0.02636724    -0.05835045
    165      2      H          -0.01499736    -0.02077971     0.00752101
    166      1      O           0.01182339     0.05863251    -0.14457809
    167      2      H          -0.01697482    -0.01999988     0.00496204
    168      2      H           0.04274080    -0.06268670     0.05860834
    169      1      O           0.02439312    -0.11901252     0.05053983
    170      2      H          -0.06526744     0.03486200    -0.07509237
    171      2      H           0.01076324     0.06755489     0.06042014
    172      1      O          -0.03905080     0.05415844     0.00284540
    173      2      H           0.00613353    -0.02348640    -0.01040037
    174      2      H           0.04650260     0.03008505     0.05185294
    175      1      O           0.05407250     0.01251444    -0.13796176
    176      2      H          -0.01222755     0.03020724     0.01376521
    177      2      H          -0.05799133    -0.05021858     0.02893742
    178      1      O           0.04586868     0.02851408    -0.00063033
    179      2      H           0.00284650    -0.02430328     0.04632442
    180      2      H          -0.04968039     0.10666374     0.03214859
    181      1      O          -0.05550321    -0.07955825     0.09011355
    182      2      H           0.01974009     0.09296836     0.04044806
    183      2      H           0.00032046    -0.01895403    -0.10609336
    184      1      O           0.02968493    -0.14784984    -0.11075949
    185      2      H           0.04820209     0.03019402    -0.00251878
    186      2      H          -0.07062171     0.02143723    -0.00561547
    187      1      O          -0.05990889     0.14893628    -0.08265011
    188      2      H           0.09961814     0.01675199     0.00749799
    189      2      H          -0.03235977     0.00694540     0.07720401
    190      1      O           0.10079310     0.04107945    -0.03328346
    191      2      H          -0.01414218     0.06653068    -0.05972742
    192      2      H          -0.07226187    -0.05260485     0.01898668
 SUM OF ATOMIC FORCES          -0.12743488    -0.13361295     0.16197184     0.24561545

 -------------------------------------------------------------------------------
 -                                                                             -
 -                                DBCSR STATISTICS                             -
 -                                                                             -
 -------------------------------------------------------------------------------
 COUNTER                                    TOTAL       BLAS       SMM       ACC
 flops     5 x     5 x   256           3629337600       0.0%    100.0%      0.0%
 flops     5 x    13 x   256           4357516800       0.0%    100.0%      0.0%
 flops    13 x     5 x   256           4397585920       0.0%    100.0%      0.0%
 flops    13 x    13 x   256           6407052288       0.0%    100.0%      0.0%
 flops inhomo. stacks                           0       0.0%      0.0%      0.0%
 flops total                        18.791493E+09       0.0%    100.0%      0.0%
 flops max/rank                     18.791493E+09       0.0%    100.0%      0.0%
 matmuls inhomo. stacks                         0       0.0%      0.0%      0.0%
 matmuls total                             620662       0.0%    100.0%      0.0%
 number of processed stacks                 42140       0.0%    100.0%      0.0%
 average stack size                                     0.0      14.7       0.0
 marketing flops                   333.927416E+09
 -------------------------------------------------------------------------------
 # multiplications                            301
 max memory usage/rank              30.554116E+09
 # max total images/rank                        1
 # max 3D layers                                1
 # MPI messages exchanged                       0
 MPI messages size (bytes):
  total size                         0.000000E+00
  min size                           0.000000E+00
  max size                           0.000000E+00
  average size                       0.000000E+00
 MPI breakdown and total messages size (bytes):
             size <=      128                   0                        0
       128 < size <=     8192                   0                        0
      8192 < size <=    32768                   0                        0
     32768 < size <=   131072                   0                        0
    131072 < size <=  4194304                   0                        0
   4194304 < size <= 16777216                   0                        0
  16777216 < size                               0                        0
 -------------------------------------------------------------------------------

 MEMORY| Estimated peak process memory [MiB]                               29142

 -------------------------------------------------------------------------------
 -                                                                             -
 -                           R E F E R E N C E S                               -
 -                                                                             -
 -------------------------------------------------------------------------------
 
 CP2K version 7.1, the CP2K developers group (2019).
 CP2K is freely available from https://www.cp2k.org/ .

 Schuett, Ole; Messmer, Peter; Hutter, Juerg; VandeVondele, Joost. 
 Electronic Structure Calculations on Graphics Processing Units, John
 Wiley & Sons, Ltd, 173-190 (2016). 
 GPU-Accelerated Sparse Matrix-Matrix Multiplication for
 Linear Scaling Density Functional Theory.
 https://dx.doi.org/10.1002/9781118670712.ch8

 Borstnik, U; VandeVondele, J; Weber, V; Hutter, J. 
 PARALLEL COMPUTING, 40 (5-6), 47-58 (2014). 
 Sparse matrix multiplication: The distributed block-compressed sparse
 row library.
 https://dx.doi.org/10.1016/j.parco.2014.03.012

 Hutter, J; Iannuzzi, M; Schiffmann, F; VandeVondele, J. 
 WIREs Comput Mol Sci., 4 (1), 15-25 (2014). 
 CP2K: atomistic simulations of condensed matter systems.
 https://dx.doi.org/10.1002/wcms.1159

 Krack, M. 
 THEORETICAL CHEMISTRY ACCOUNTS, 114 (1-3), 145-152 (2005). 
 Pseudopotentials for H to Kr optimized for gradient-corrected
 exchange-correlation functionals.
 https://dx.doi.org/10.1007/s00214-005-0655-y

 VandeVondele, J; Krack, M; Mohamed, F; Parrinello, M; Chassaing, T;
 Hutter, J. COMPUTER PHYSICS COMMUNICATIONS, 167 (2), 103-128 (2005). 
 QUICKSTEP: Fast and accurate density functional calculations using a
 mixed Gaussian and plane waves approach.
 https://dx.doi.org/10.1016/j.cpc.2004.12.014

 Frigo, M; Johnson, SG. 
 PROCEEDINGS OF THE IEEE, 93 (2), 216-231 (2005). 
 The design and implementation of FFTW3.
 https://dx.doi.org/10.1109/JPROC.2004.840301

 Hartwigsen, C; Goedecker, S; Hutter, J. 
 PHYSICAL REVIEW B, 58 (7), 3641-3662 (1998). 
 Relativistic separable dual-space Gaussian pseudopotentials from H to Rn.
 https://dx.doi.org/10.1103/PhysRevB.58.3641

 Lippert, G; Hutter, J; Parrinello, M. 
 MOLECULAR PHYSICS, 92 (3), 477-487 (1997). 
 A hybrid Gaussian and plane wave density functional scheme.
 https://dx.doi.org/10.1080/002689797170220

 Goedecker, S; Teter, M; Hutter, J. 
 PHYSICAL REVIEW B, 54 (3), 1703-1710 (1996). 
 Separable dual-space Gaussian pseudopotentials.
 https://dx.doi.org/10.1103/PhysRevB.54.1703


 -------------------------------------------------------------------------------
 -                                                                             -
 -                                T I M I N G                                  -
 -                                                                             -
 -------------------------------------------------------------------------------
 SUBROUTINE                       CALLS  ASD         SELF TIME        TOTAL TIME
                                MAXIMUM       AVERAGE  MAXIMUM  AVERAGE  MAXIMUM
 CP2K                                 1  1.0    0.974    0.974 7115.152 7115.152
 qs_forces                            1  2.0    0.000    0.000 7104.084 7104.084
 qs_energies                          1  3.0    0.000    0.000 7100.510 7100.510
 scf_env_do_scf                       1  4.0    0.001    0.001 7088.909 7088.909
 scf_env_do_scf_inner_loop          300  5.0    0.051    0.051 7088.908 7088.908
 gspace_mixing                      299  6.0   42.294   42.294 2965.609 2965.609
 broyden_mixing                     299  7.0 2680.138 2680.138 2680.142 2680.142
 qs_scf_new_mos                     300  6.0    0.010    0.010 1961.065 1961.065
 eigensolver                        300  7.0    0.034    0.034 1906.832 1906.832
 cp_fm_syevd                        300  8.0 1265.354 1265.354 1266.493 1266.493
 pw_transfer                       3912  9.9    0.387    0.387 1156.504 1156.504
 rebuild_ks_matrix                  301  7.0    0.001    0.001 1135.283 1135.283
 qs_ks_build_kohn_sham_matrix       301  8.0    0.093    0.093 1135.282 1135.282
 qs_ks_update_qs_env                300  6.0    0.004    0.004 1132.238 1132.238
 fft_wrap_pw1pw2                   3310 10.9    0.052    0.052 1127.365 1127.365
 qs_rho_update_rho                  301  6.0    0.003    0.003 1031.341 1031.341
 calculate_rho_elec                 301  7.0  499.560  499.560 1031.338 1031.338
 fft_wrap_pw1pw2_70                1504 11.2   88.614   88.614 1027.963 1027.963
 cp_fm_cholesky_restore             900  8.0  639.210  639.210  639.210  639.210
 fft3d_s                           3311 12.9  538.368  538.368  538.406  538.406
 density_rs2pw                      301  8.0    0.032    0.032  523.340  523.340
 pw_scatter_s                      1804 13.2  409.375  409.375  409.375  409.375
 pw_poisson_solve                   301  9.0  333.063  333.063  362.177  362.177
 sum_up_and_integrate               301  9.0   18.112   18.112  319.772  319.772
 integrate_v_rspace                 301 10.0    9.699    9.699  301.659  301.659
 potential_pw2rs                    301 11.0    2.534    2.534  275.094  275.094
 qs_vxc_create                      301  9.0    0.007    0.007  163.156  163.156
 xc_vxc_pw_create                   301 10.0   42.426   42.426  163.149  163.149
 -------------------------------------------------------------------------------

 The number of warnings for this run is : 1
 
 -------------------------------------------------------------------------------
  **** **** ******  **  PROGRAM ENDED AT                 2020-05-27 13:41:39.871
 ***** ** ***  *** **   PROGRAM RAN ON                                   gnode44
 **    ****   ******    PROGRAM RAN BY                               mayank.modi
 ***** **    ** ** **   PROGRAM PROCESS ID                                 37511
  **** **  *******  **  PROGRAM STOPPED IN /home/mayank.modi/ab-initio-thermodyn
                                           amics-of-water/mayank/cp2k_energy_cal
                                           culations
