 DBCSR| CPU Multiplication driver                                           XSMM
 DBCSR| Multrec recursion limit                                              512
 DBCSR| Multiplication stack size                                           1000
 DBCSR| Maximum elements for images                                    UNLIMITED
 DBCSR| Multiplicative factor virtual images                                   1
 DBCSR| Use multiplication densification                                       T
 DBCSR| Multiplication size stacks                                             3


  **** **** ******  **  PROGRAM STARTED AT               2020-05-28 17:15:41.566
 ***** ** ***  *** **   PROGRAM STARTED ON                               gnode44
 **    ****   ******    PROGRAM STARTED BY                           mayank.modi
 ***** **    ** ** **   PROGRAM PROCESS ID                                 18163
  **** **  *******  **  PROGRAM STARTED IN /home/mayank.modi/ab-initio-thermodyn
                                           amics-of-water/mayank/cp2k_energy_cal
                                           culations

 CP2K| version string:                                          CP2K version 7.1
 CP2K| source code revision number:                                  git:e635599
 CP2K| cp2kflags: omp libint fftw3 libxc xsmm spglib                            
 CP2K| is freely available from                            https://www.cp2k.org/
 CP2K| Program compiled at                          Mon Dec 23 19:23:12 CET 2019
 CP2K| Program compiled on                                                pc9404
 CP2K| Program compiled for                                Linux-x86-64-gfortran
 CP2K| Data directory path                                        /opt/cp2k/data
 CP2K| Input file name                                 input_training/input25.in

 GLOBAL| Force Environment number                                              1
 GLOBAL| Basis set file name                                           BASIS_SET
 GLOBAL| Potential file name                                      GTH_POTENTIALS
 GLOBAL| MM Potential file name                                     MM_POTENTIAL
 GLOBAL| Coordinate file name                                      __STD_INPUT__
 GLOBAL| Method name                                                        CP2K
 GLOBAL| Project name                                                   H2O_bulk
 GLOBAL| Preferred FFT library                                             FFTW3
 GLOBAL| Preferred diagonalization lib.                                       SL
 GLOBAL| Run type                                                   ENERGY_FORCE
 GLOBAL| All-to-all communication in single precision                          F
 GLOBAL| FFTs using library dependent lengths                                  F
 GLOBAL| Global print level                                                  LOW
 GLOBAL| MPI I/O enabled                                                       T
 GLOBAL| Total number of message passing processes                             1
 GLOBAL| Number of threads for this process                                   36
 GLOBAL| This output is from process                                           0
 GLOBAL| CPU model name                Intel(R) Xeon(R) CPU E5-2640 v4 @ 2.40GHz
 GLOBAL| CPUID                                                              1002
 GLOBAL| Compiled for CPUID                                                    0

 MEMORY| system memory details [Kb]
 MEMORY|                        rank 0           min           max       average
 MEMORY| MemTotal            131893056     131893056     131893056     131893056
 MEMORY| MemFree             121133104     121133104     121133104     121133104
 MEMORY| Buffers               2118284       2118284       2118284       2118284
 MEMORY| Cached                3080088       3080088       3080088       3080088
 MEMORY| Slab                  3301220       3301220       3301220       3301220
 MEMORY| SReclaimable          3100656       3100656       3100656       3100656
 MEMORY| MemLikelyFree       129432132     129432132     129432132     129432132


 GENERATE|  Preliminary Number of Bonds generated:                             0
 GENERATE|  Achieved consistency in connectivity generation.

 *******************************************************************************
 *******************************************************************************
 **                                                                           **
 **     #####                         ##              ##                      **
 **    ##   ##            ##          ##              ##                      **
 **   ##     ##                       ##            ######                    **
 **   ##     ##  ##   ##  ##   #####  ##  ##   ####   ##    #####    #####    **
 **   ##     ##  ##   ##  ##  ##      ## ##   ##      ##   ##   ##  ##   ##   **
 **   ##  ## ##  ##   ##  ##  ##      ####     ###    ##   ######   ######    **
 **    ##  ###   ##   ##  ##  ##      ## ##      ##   ##   ##       ##        **
 **     #######   #####   ##   #####  ##  ##  ####    ##    #####   ##        **
 **           ##                                                    ##        **
 **                                                                           **
 **                                                ... make the atoms dance   **
 **                                                                           **
 **            Copyright (C) by CP2K developers group (2000 - 2019)           **
 **                                                                           **
 *******************************************************************************


 TOTAL NUMBERS AND MAXIMUM NUMBERS

  Total number of            - Atomic kinds:                                   2
                             - Atoms:                                        192
                             - Shell sets:                                   384
                             - Shells:                                       704
                             - Primitive Cartesian functions:                960
                             - Cartesian basis functions:                   1536
                             - Spherical basis functions:                   1472

  Maximum angular momentum of- Orbital basis functions:                        2
                             - Local part of the GTH pseudopotential:          2
                             - Non-local part of the GTH pseudopotential:      0


 SCF PARAMETERS         Density guess:                                    ATOMIC
                        --------------------------------------------------------
                        max_scf:                                             300
                        max_scf_history:                                       0
                        max_diis:                                              4
                        --------------------------------------------------------
                        eps_scf:                                        1.00E-07
                        eps_scf_history:                                0.00E+00
                        eps_diis:                                       1.00E-01
                        eps_eigval:                                     1.00E-05
                        --------------------------------------------------------
                        level_shift [a.u.]:                                 0.00
                        --------------------------------------------------------
                        Mixing method:                            BROYDEN_MIXING
                                                charge density mixing in g-space
                        --------------------------------------------------------
                        No outer SCF

 Number of electrons:                                                        512
 Number of occupied orbitals:                                                256
 Number of molecular orbitals:                                               256

 Number of orbital functions:                                               1472
 Number of independent orbital functions:                                   1472

 Extrapolation method: initial_guess


 SCF WAVEFUNCTION OPTIMIZATION

  Step     Update method      Time    Convergence         Total energy    Change
  ------------------------------------------------------------------------------
     1 NoMix/Diag. 0.40E+00   10.2     0.67494102     -1063.9408405356 -1.06E+03
     2 Broy./Diag. 0.40E+00   15.3     1.89502322      -993.0099962245  7.09E+01
     3 Broy./Diag. 0.40E+00   17.1     1.92578331     -1273.9309382211 -2.81E+02
     4 Broy./Diag. 0.40E+00   18.3     1.80911095     -1131.1180633281  1.43E+02
     5 Broy./Diag. 0.40E+00   17.6     1.76664607     -1096.3233241480  3.48E+01
     6 Broy./Diag. 0.40E+00   18.4     1.87897414     -1105.0400536240 -8.72E+00
     7 Broy./Diag. 0.40E+00   19.5     1.79931901     -1107.3431868313 -2.30E+00
     8 Broy./Diag. 0.40E+00   19.7     1.68759864     -1083.4728075156  2.39E+01
     9 Broy./Diag. 0.40E+00   21.6     1.73281883     -1076.2714955892  7.20E+00
    10 Broy./Diag. 0.40E+00   23.0     1.88856337     -1072.2547822102  4.02E+00
    11 Broy./Diag. 0.40E+00   23.8     0.70488986     -1070.3220887126  1.93E+00
    12 Broy./Diag. 0.40E+00   23.8     0.33532260     -1071.2325105454 -9.10E-01
    13 Broy./Diag. 0.40E+00   23.9     1.72348224     -1067.9597265755  3.27E+00
    14 Broy./Diag. 0.40E+00   23.9     1.73885297     -1086.0933753428 -1.81E+01
    15 Broy./Diag. 0.40E+00   24.0     1.76357273     -1084.2028713974  1.89E+00
    16 Broy./Diag. 0.40E+00   23.9     1.84038518     -1084.6759988858 -4.73E-01
    17 Broy./Diag. 0.40E+00   24.2     1.66871498     -1088.2259165921 -3.55E+00
    18 Broy./Diag. 0.40E+00   24.2     1.50800300     -1075.4938936795  1.27E+01
    19 Broy./Diag. 0.40E+00   23.8     1.76501028     -1073.2604718729  2.23E+00
    20 Broy./Diag. 0.40E+00   23.6     1.87196410     -1073.9819719800 -7.22E-01
    21 Broy./Diag. 0.40E+00   24.0     1.71742786     -1073.2196127972  7.62E-01
    22 Broy./Diag. 0.40E+00   24.4     1.74454809     -1073.8129711385 -5.93E-01
    23 Broy./Diag. 0.40E+00   22.3     1.44041795     -1074.2784463700 -4.65E-01
    24 Broy./Diag. 0.40E+00   24.1     1.54811510     -1073.0115182153  1.27E+00
    25 Broy./Diag. 0.40E+00   24.5     1.79814500     -1080.9250850830 -7.91E+00
    26 Broy./Diag. 0.40E+00   24.3     1.83012782     -1080.8721004161  5.30E-02
    27 Broy./Diag. 0.40E+00   24.3     0.36090436     -1071.7301858811  9.14E+00
    28 Broy./Diag. 0.40E+00   23.2     0.16595433     -1078.1749789914 -6.44E+00
    29 Broy./Diag. 0.40E+00   24.1     0.18955696     -1075.5399145148  2.64E+00
    30 Broy./Diag. 0.40E+00   24.0     1.31525402     -1076.5723991168 -1.03E+00
    31 Broy./Diag. 0.40E+00   23.9     1.38491336     -1078.3221805429 -1.75E+00
    32 Broy./Diag. 0.40E+00   24.1     1.25621588     -1076.1187624377  2.20E+00
    33 Broy./Diag. 0.40E+00   24.4     1.32557531     -1077.6394255286 -1.52E+00
    34 Broy./Diag. 0.40E+00   24.4     0.90858694     -1076.9963442847  6.43E-01
    35 Broy./Diag. 0.40E+00   23.6     1.78764007     -1075.4206637900  1.58E+00
    36 Broy./Diag. 0.40E+00   24.0     1.78041215     -1080.7210869381 -5.30E+00
    37 Broy./Diag. 0.40E+00   24.8     1.41205271     -1076.5664035556  4.15E+00
    38 Broy./Diag. 0.40E+00   25.1     1.23156092     -1074.4160528859  2.15E+00
    39 Broy./Diag. 0.40E+00   23.4     1.59977389     -1074.1370923208  2.79E-01
    40 Broy./Diag. 0.40E+00   23.3     1.68595600     -1079.6491577519 -5.51E+00
    41 Broy./Diag. 0.40E+00   23.7     1.43688429     -1077.2850691925  2.36E+00
    42 Broy./Diag. 0.40E+00   24.3     1.25097949     -1074.9503199231  2.33E+00
    43 Broy./Diag. 0.40E+00   22.0     1.36030715     -1076.8699459165 -1.92E+00
    44 Broy./Diag. 0.40E+00   22.7     1.04304703     -1076.6121475220  2.58E-01
    45 Broy./Diag. 0.40E+00   24.8     1.15698443     -1076.4600263635  1.52E-01
    46 Broy./Diag. 0.40E+00   23.6     0.50657610     -1074.4764864444  1.98E+00
    47 Broy./Diag. 0.40E+00   23.6     0.76286219     -1074.9495223056 -4.73E-01
    48 Broy./Diag. 0.40E+00   22.9     0.91549813     -1076.7243368276 -1.77E+00
    49 Broy./Diag. 0.40E+00   23.5     1.59998462     -1075.1777467070  1.55E+00
    50 Broy./Diag. 0.40E+00   24.4     1.68285998     -1078.3817646397 -3.20E+00
    51 Broy./Diag. 0.40E+00   23.5     1.76705441     -1075.6703189719  2.71E+00
    52 Broy./Diag. 0.40E+00   24.7     1.83901046     -1076.0518636554 -3.82E-01
    53 Broy./Diag. 0.40E+00   23.4     1.51109843     -1076.3116945009 -2.60E-01
    54 Broy./Diag. 0.40E+00   23.2     1.65032411     -1077.0141423609 -7.02E-01
    55 Broy./Diag. 0.40E+00   21.2     1.24465627     -1076.4262592534  5.88E-01
    56 Broy./Diag. 0.40E+00   23.1     1.11805462     -1072.7482143448  3.68E+00
    57 Broy./Diag. 0.40E+00   23.3     0.88204661     -1078.8894055700 -6.14E+00
    58 Broy./Diag. 0.40E+00   23.7     0.23089296     -1076.3608915433  2.53E+00
    59 Broy./Diag. 0.40E+00   23.7     1.59285484     -1074.2376284221  2.12E+00
    60 Broy./Diag. 0.40E+00   23.6     1.61903478     -1079.0044885001 -4.77E+00
    61 Broy./Diag. 0.40E+00   23.5     0.89087884     -1076.9161531024  2.09E+00
    62 Broy./Diag. 0.40E+00   24.1     1.34445738     -1075.1310033995  1.79E+00
    63 Broy./Diag. 0.40E+00   24.1     1.59769234     -1078.4452062922 -3.31E+00
    64 Broy./Diag. 0.40E+00   21.7     1.65921450     -1076.8628583084  1.58E+00
    65 Broy./Diag. 0.40E+00   23.0     1.24971844     -1079.1887292867 -2.33E+00
    66 Broy./Diag. 0.40E+00   23.2     1.75914538     -1076.2948328597  2.89E+00
    67 Broy./Diag. 0.40E+00   23.4     1.79151788     -1079.5993119823 -3.30E+00
    68 Broy./Diag. 0.40E+00   23.1     1.37150304     -1077.0810320101  2.52E+00
    69 Broy./Diag. 0.40E+00   23.7     1.63953393     -1075.0558975117  2.03E+00
    70 Broy./Diag. 0.40E+00   23.9     1.67000262     -1074.5585496524  4.97E-01
    71 Broy./Diag. 0.40E+00   23.9     1.27856299     -1074.6795274671 -1.21E-01
    72 Broy./Diag. 0.40E+00   23.9     1.05771260     -1073.9319464551  7.48E-01
    73 Broy./Diag. 0.40E+00   23.7     1.65392384     -1074.4268571629 -4.95E-01
    74 Broy./Diag. 0.40E+00   23.6     1.65979034     -1076.9876945418 -2.56E+00
    75 Broy./Diag. 0.40E+00   23.0     0.35455618     -1075.0802036876  1.91E+00
    76 Broy./Diag. 0.40E+00   23.3     1.80364440     -1076.0471285256 -9.67E-01
    77 Broy./Diag. 0.40E+00   23.5     1.81036554     -1076.8793990475 -8.32E-01
    78 Broy./Diag. 0.40E+00   22.7     1.39448997     -1076.4689145293  4.10E-01
    79 Broy./Diag. 0.40E+00   25.3     1.66801616     -1076.0168531771  4.52E-01
    80 Broy./Diag. 0.40E+00   22.3     1.65865010     -1075.5316701185  4.85E-01
    81 Broy./Diag. 0.40E+00   22.8     1.32571739     -1074.8864725717  6.45E-01
    82 Broy./Diag. 0.40E+00   23.5     1.25983212     -1075.7128515315 -8.26E-01
    83 Broy./Diag. 0.40E+00   23.0     0.93492810     -1073.3169948806  2.40E+00
    84 Broy./Diag. 0.40E+00   24.0     1.31599387     -1078.9735528657 -5.66E+00
    85 Broy./Diag. 0.40E+00   23.7     1.40899458     -1077.2574886624  1.72E+00
    86 Broy./Diag. 0.40E+00   24.6     1.75971616     -1074.9870596867  2.27E+00
    87 Broy./Diag. 0.40E+00   23.5     1.80342160     -1077.0567515965 -2.07E+00
    88 Broy./Diag. 0.40E+00   25.4     1.38930098     -1076.8469168437  2.10E-01
    89 Broy./Diag. 0.40E+00   23.8     0.25650412     -1073.9682687803  2.88E+00
    90 Broy./Diag. 0.40E+00   23.8     0.90544290     -1075.4966605172 -1.53E+00
    91 Broy./Diag. 0.40E+00   24.0     1.27557044     -1076.7923322951 -1.30E+00
    92 Broy./Diag. 0.40E+00   23.8     1.12026819     -1076.6887133551  1.04E-01
    93 Broy./Diag. 0.40E+00   24.3     0.22730631     -1075.1016469289  1.59E+00
    94 Broy./Diag. 0.40E+00   23.7     1.35094183     -1074.8976227466  2.04E-01
    95 Broy./Diag. 0.40E+00   23.0     1.35739185     -1076.1831209469 -1.29E+00
    96 Broy./Diag. 0.40E+00   23.6     1.78903698     -1074.5105443098  1.67E+00
    97 Broy./Diag. 0.40E+00   23.7     1.81095203     -1078.6632632809 -4.15E+00
    98 Broy./Diag. 0.40E+00   23.9     1.40187006     -1077.8199168582  8.43E-01
    99 Broy./Diag. 0.40E+00   22.1     0.39703090     -1075.3578592369  2.46E+00
   100 Broy./Diag. 0.40E+00   24.1     1.15465707     -1073.9701737141  1.39E+00
   101 Broy./Diag. 0.40E+00   23.5     1.38254524     -1077.3383800225 -3.37E+00
   102 Broy./Diag. 0.40E+00   22.8     1.14694674     -1077.4570240574 -1.19E-01
   103 Broy./Diag. 0.40E+00   24.3     0.89904907     -1074.5258017014  2.93E+00
   104 Broy./Diag. 0.40E+00   24.3     0.87380275     -1076.3958961129 -1.87E+00
   105 Broy./Diag. 0.40E+00   24.7     0.20624560     -1075.1648593308  1.23E+00
   106 Broy./Diag. 0.40E+00   24.7     1.78722318     -1074.6941422331  4.71E-01
   107 Broy./Diag. 0.40E+00   24.4     1.79619285     -1077.3765300910 -2.68E+00
   108 Broy./Diag. 0.40E+00   23.8     1.38940005     -1079.1084675855 -1.73E+00
   109 Broy./Diag. 0.40E+00   23.9     0.25597530     -1074.6698535561  4.44E+00
   110 Broy./Diag. 0.40E+00   23.8     0.88283014     -1075.1470928788 -4.77E-01
   111 Broy./Diag. 0.40E+00   23.9     1.27939654     -1077.2275818966 -2.08E+00
   112 Broy./Diag. 0.40E+00   23.8     1.15178733     -1077.2760024030 -4.84E-02
   113 Broy./Diag. 0.40E+00   24.1     0.88450070     -1074.5230644088  2.75E+00
   114 Broy./Diag. 0.40E+00   24.0     1.59256704     -1077.5345566737 -3.01E+00
   115 Broy./Diag. 0.40E+00   23.9     1.63527258     -1077.0498875134  4.85E-01
   116 Broy./Diag. 0.40E+00   23.4     1.78092846     -1076.7735756500  2.76E-01
   117 Broy./Diag. 0.40E+00   21.8     1.82808121     -1076.8834304074 -1.10E-01
   118 Broy./Diag. 0.40E+00   23.7     1.41044263     -1078.4214632946 -1.54E+00
   119 Broy./Diag. 0.40E+00   23.3     0.37301450     -1073.7551535586  4.67E+00
   120 Broy./Diag. 0.40E+00   23.9     0.26543366     -1075.4780993427 -1.72E+00
   121 Broy./Diag. 0.40E+00   23.8     1.15264001     -1075.0486456173  4.29E-01
   122 Broy./Diag. 0.40E+00   23.8     1.16634306     -1077.2365658764 -2.19E+00
   123 Broy./Diag. 0.40E+00   24.1     0.86330117     -1074.9232842562  2.31E+00
   124 Broy./Diag. 0.40E+00   24.1     0.92575596     -1078.2926297408 -3.37E+00
   125 Broy./Diag. 0.40E+00   22.6     1.10349893     -1074.5938709214  3.70E+00
   126 Broy./Diag. 0.40E+00   25.0     1.76705161     -1077.9714315928 -3.38E+00
   127 Broy./Diag. 0.40E+00   24.9     1.81178608     -1078.9429119646 -9.71E-01
   128 Broy./Diag. 0.40E+00   24.0     1.39017807     -1076.9065044047  2.04E+00
   129 Broy./Diag. 0.40E+00   22.1     1.34759506     -1076.0490392353  8.57E-01
   130 Broy./Diag. 0.40E+00   22.5     1.33593119     -1078.1898591841 -2.14E+00
   131 Broy./Diag. 0.40E+00   24.2     1.10131313     -1076.0330089493  2.16E+00
   132 Broy./Diag. 0.40E+00   23.8     1.64385132     -1076.2595314204 -2.27E-01
   133 Broy./Diag. 0.40E+00   22.7     1.80377796     -1074.8461461617  1.41E+00
   134 Broy./Diag. 0.40E+00   23.1     1.85750052     -1075.4082866685 -5.62E-01
   135 Broy./Diag. 0.40E+00   23.6     1.69862593     -1076.4842107224 -1.08E+00
   136 Broy./Diag. 0.40E+00   23.3     1.41044416     -1072.5185101787  3.97E+00
   137 Broy./Diag. 0.40E+00   23.9     1.77502096     -1080.1567468032 -7.64E+00
   138 Broy./Diag. 0.40E+00   23.4     1.77745101     -1079.6268089599  5.30E-01
   139 Broy./Diag. 0.40E+00   22.9     0.45116408     -1074.1603651006  5.47E+00
   140 Broy./Diag. 0.40E+00   23.3     0.33397187     -1075.7139496592 -1.55E+00
   141 Broy./Diag. 0.40E+00   23.5     1.06909771     -1074.6825320698  1.03E+00
   142 Broy./Diag. 0.40E+00   23.8     1.13401858     -1076.6842044895 -2.00E+00
   143 Broy./Diag. 0.40E+00   24.6     1.79311822     -1074.6395090668  2.04E+00
   144 Broy./Diag. 0.40E+00   22.8     1.78853947     -1078.5226592260 -3.88E+00
   145 Broy./Diag. 0.40E+00   22.1     1.39279463     -1075.0836812526  3.44E+00
   146 Broy./Diag. 0.40E+00   22.5     1.35577126     -1078.7396819952 -3.66E+00
   147 Broy./Diag. 0.40E+00   22.7     1.48281183     -1077.5149813108  1.22E+00
   148 Broy./Diag. 0.40E+00   23.6     1.61516805     -1079.6393682435 -2.12E+00
   149 Broy./Diag. 0.40E+00   24.2     1.61468249     -1074.1555817165  5.48E+00
   150 Broy./Diag. 0.40E+00   23.7     1.62523065     -1078.6717167215 -4.52E+00
   151 Broy./Diag. 0.40E+00   23.5     1.03656121     -1075.4313677166  3.24E+00
   152 Broy./Diag. 0.40E+00   24.4     1.13539197     -1076.4363664241 -1.00E+00
   153 Broy./Diag. 0.40E+00   24.0     0.27810997     -1074.3445823936  2.09E+00
   154 Broy./Diag. 0.40E+00   24.0     0.81081273     -1075.7014067394 -1.36E+00
   155 Broy./Diag. 0.40E+00   23.3     1.34408923     -1076.3238703592 -6.22E-01
   156 Broy./Diag. 0.40E+00   23.8     1.38111992     -1076.5036904026 -1.80E-01
   157 Broy./Diag. 0.40E+00   24.1     1.29747071     -1074.7145613428  1.79E+00
   158 Broy./Diag. 0.40E+00   23.0     1.30159601     -1079.4724193239 -4.76E+00
   159 Broy./Diag. 0.40E+00   21.2     1.12868645     -1075.6188888486  3.85E+00
   160 Broy./Diag. 0.40E+00   23.0     1.19403513     -1076.0194329302 -4.01E-01
   161 Broy./Diag. 0.40E+00   23.1     1.08054265     -1074.5141005071  1.51E+00
   162 Broy./Diag. 0.40E+00   23.2     1.13274780     -1076.5070730026 -1.99E+00
   163 Broy./Diag. 0.40E+00   22.8     1.80202699     -1074.6955783265  1.81E+00
   164 Broy./Diag. 0.40E+00   23.0     1.78498019     -1078.0271009630 -3.33E+00
   165 Broy./Diag. 0.40E+00   24.1     1.36802909     -1077.2683630411  7.59E-01
   166 Broy./Diag. 0.40E+00   24.7     1.41852333     -1079.1980639076 -1.93E+00
   167 Broy./Diag. 0.40E+00   23.0     1.59760286     -1074.5780203778  4.62E+00
   168 Broy./Diag. 0.40E+00   22.3     1.63010751     -1076.5256861235 -1.95E+00
   169 Broy./Diag. 0.40E+00   24.1     1.14670785     -1074.7244203761  1.80E+00
   170 Broy./Diag. 0.40E+00   23.4     1.18177265     -1077.4168492928 -2.69E+00
   171 Broy./Diag. 0.40E+00   23.5     1.10240393     -1075.2355181820  2.18E+00
   172 Broy./Diag. 0.40E+00   24.1     1.12247242     -1076.1445914171 -9.09E-01
   173 Broy./Diag. 0.40E+00   23.5     0.24280916     -1074.4317360503  1.71E+00
   174 Broy./Diag. 0.40E+00   24.8     1.05242956     -1076.0461173692 -1.61E+00
   175 Broy./Diag. 0.40E+00   22.5     1.27756576     -1079.0641267490 -3.02E+00
   176 Broy./Diag. 0.40E+00   23.2     1.38366570     -1076.8238650810  2.24E+00
   177 Broy./Diag. 0.40E+00   24.7     1.77311006     -1074.7406395014  2.08E+00
   178 Broy./Diag. 0.40E+00   24.9     1.80126998     -1076.8383045668 -2.10E+00
   179 Broy./Diag. 0.40E+00   22.3     1.19377775     -1076.4556681686  3.83E-01
   180 Broy./Diag. 0.40E+00   22.3     1.69430594     -1078.6977702241 -2.24E+00
   181 Broy./Diag. 0.40E+00   22.9     1.74758227     -1077.6576737508  1.04E+00
   182 Broy./Diag. 0.40E+00   23.4     1.34249416     -1075.4994898901  2.16E+00
   183 Broy./Diag. 0.40E+00   23.5     1.15383245     -1075.7139936002 -2.15E-01
   184 Broy./Diag. 0.40E+00   23.8     1.58931318     -1075.3702121944  3.44E-01
   185 Broy./Diag. 0.40E+00   24.9     1.68462987     -1077.4099874005 -2.04E+00
   186 Broy./Diag. 0.40E+00   23.7     1.61975641     -1077.1770350092  2.33E-01
   187 Broy./Diag. 0.40E+00   23.3     1.83909984     -1074.7952857387  2.38E+00
   188 Broy./Diag. 0.40E+00   23.1     1.82913497     -1074.6608368322  1.34E-01
   189 Broy./Diag. 0.40E+00   24.0     1.82899992     -1072.1743182974  2.49E+00
   190 Broy./Diag. 0.40E+00   23.7     1.79499843     -1082.5150776952 -1.03E+01
   191 Broy./Diag. 0.40E+00   22.6     1.12498161     -1076.7641544902  5.75E+00
   192 Broy./Diag. 0.40E+00   23.8     1.38958709     -1075.7073122301  1.06E+00
   193 Broy./Diag. 0.40E+00   24.4     1.59353762     -1075.8007743236 -9.35E-02
   194 Broy./Diag. 0.40E+00   22.6     1.67839148     -1074.9156363844  8.85E-01
   195 Broy./Diag. 0.40E+00   22.4     1.28659769     -1072.6007455715  2.31E+00
   196 Broy./Diag. 0.40E+00   23.7     1.57726543     -1079.6142374215 -7.01E+00
   197 Broy./Diag. 0.40E+00   22.5     1.44330940     -1076.9643491711  2.65E+00
   198 Broy./Diag. 0.40E+00   23.1     0.34291487     -1074.6649479543  2.30E+00
   199 Broy./Diag. 0.40E+00   23.3     1.80052571     -1075.2679899563 -6.03E-01
   200 Broy./Diag. 0.40E+00   23.3     1.80004241     -1077.9503831992 -2.68E+00
   201 Broy./Diag. 0.40E+00   23.5     1.13764068     -1074.2900665446  3.66E+00
   202 Broy./Diag. 0.40E+00   22.5     1.36835600     -1078.5837883169 -4.29E+00
   203 Broy./Diag. 0.40E+00   22.1     1.01997421     -1076.3097962728  2.27E+00
   204 Broy./Diag. 0.40E+00   24.0     0.56412225     -1074.2455638292  2.06E+00
   205 Broy./Diag. 0.40E+00   24.3     1.29726926     -1076.5684882097 -2.32E+00
   206 Broy./Diag. 0.40E+00   22.5     1.33356232     -1078.9392955805 -2.37E+00
   207 Broy./Diag. 0.40E+00   24.6     0.98632310     -1074.5018112936  4.44E+00
   208 Broy./Diag. 0.40E+00   24.4     0.94392614     -1076.1616861022 -1.66E+00
   209 Broy./Diag. 0.40E+00   24.0     1.77544750     -1074.4075767528  1.75E+00
   210 Broy./Diag. 0.40E+00   23.4     1.78494867     -1079.4580912492 -5.05E+00
   211 Broy./Diag. 0.40E+00   23.9     1.12285763     -1076.5480614957  2.91E+00
   212 Broy./Diag. 0.40E+00   23.7     1.36530243     -1077.1956742926 -6.48E-01
   213 Broy./Diag. 0.40E+00   24.0     1.33362223     -1077.1044564638  9.12E-02
   214 Broy./Diag. 0.40E+00   24.6     1.59516009     -1073.7269143049  3.38E+00
   215 Broy./Diag. 0.40E+00   22.2     1.64650217     -1076.9960863323 -3.27E+00
   216 Broy./Diag. 0.40E+00   22.3     1.37398865     -1079.1534214863 -2.16E+00
   217 Broy./Diag. 0.40E+00   24.3     1.64489376     -1074.2561893797  4.90E+00
   218 Broy./Diag. 0.40E+00   22.0     1.61337819     -1077.2451656912 -2.99E+00
   219 Broy./Diag. 0.40E+00   23.4     1.44945660     -1076.8061130171  4.39E-01
   220 Broy./Diag. 0.40E+00   23.4     1.42530661     -1076.8951117622 -8.90E-02
   221 Broy./Diag. 0.40E+00   22.5     1.08522047     -1074.9220981878  1.97E+00
   222 Broy./Diag. 0.40E+00   24.7     1.28974754     -1076.2509660527 -1.33E+00
   223 Broy./Diag. 0.40E+00   23.8     1.63150626     -1077.0609644568 -8.10E-01
   224 Broy./Diag. 0.40E+00   24.0     1.70228100     -1075.2873901913  1.77E+00
   225 Broy./Diag. 0.40E+00   23.0     1.33514080     -1073.2408184110  2.05E+00
   226 Broy./Diag. 0.40E+00   23.5     1.34994831     -1082.1345443124 -8.89E+00
   227 Broy./Diag. 0.40E+00   22.1     0.28147745     -1075.6311588851  6.50E+00
   228 Broy./Diag. 0.40E+00   22.2     1.76971869     -1074.2729446185  1.36E+00
   229 Broy./Diag. 0.40E+00   22.5     1.78000280     -1076.3690959120 -2.10E+00
   230 Broy./Diag. 0.40E+00   23.5     0.17106013     -1074.8761038758  1.49E+00
   231 Broy./Diag. 0.40E+00   24.3     0.77286112     -1074.8557650896  2.03E-02
   232 Broy./Diag. 0.40E+00   24.9     1.06669611     -1076.5688140873 -1.71E+00
   233 Broy./Diag. 0.40E+00   22.7     1.59042950     -1077.2890523730 -7.20E-01
   234 Broy./Diag. 0.40E+00   22.0     1.65369071     -1076.6350497647  6.54E-01
   235 Broy./Diag. 0.40E+00   23.1     1.33048912     -1074.4446677632  2.19E+00
   236 Broy./Diag. 0.40E+00   23.8     1.37524661     -1083.3665787493 -8.92E+00
   237 Broy./Diag. 0.40E+00   23.0     1.29394058     -1076.5972313095  6.77E+00
   238 Broy./Diag. 0.40E+00   23.9     1.77494818     -1075.8605721348  7.37E-01
   239 Broy./Diag. 0.40E+00   22.8     1.81517191     -1076.9028437545 -1.04E+00
   240 Broy./Diag. 0.40E+00   22.1     1.37657342     -1074.6443965522  2.26E+00
   241 Broy./Diag. 0.40E+00   23.0     0.39187425     -1073.9978642054  6.47E-01
   242 Broy./Diag. 0.40E+00   22.7     1.16912325     -1076.0202161486 -2.02E+00
   243 Broy./Diag. 0.40E+00   24.3     1.56343166     -1077.0943818595 -1.07E+00
   244 Broy./Diag. 0.40E+00   23.6     1.12035717     -1076.5663551714  5.28E-01
   245 Broy./Diag. 0.40E+00   23.7     0.33389182     -1074.5140414937  2.05E+00
   246 Broy./Diag. 0.40E+00   25.3     0.23875099     -1076.4747368948 -1.96E+00
   247 Broy./Diag. 0.40E+00   23.9     1.25795837     -1074.7520975454  1.72E+00
   248 Broy./Diag. 0.40E+00   24.0     1.77258911     -1077.0725077516 -2.32E+00
   249 Broy./Diag. 0.40E+00   22.2     1.79935758     -1077.0642566749  8.25E-03
   250 Broy./Diag. 0.40E+00   24.2     0.81977025     -1075.0334606628  2.03E+00
   251 Broy./Diag. 0.40E+00   23.3     0.83021310     -1077.4051465260 -2.37E+00
   252 Broy./Diag. 0.40E+00   22.6     1.34041081     -1075.2024338710  2.20E+00
   253 Broy./Diag. 0.40E+00   23.3     1.43238308     -1081.0206222020 -5.82E+00
   254 Broy./Diag. 0.40E+00   24.0     1.38995558     -1077.4507865240  3.57E+00
   255 Broy./Diag. 0.40E+00   23.6     1.36714981     -1076.6431422418  8.08E-01
   256 Broy./Diag. 0.40E+00   23.7     1.59149985     -1075.0039752391  1.64E+00
   257 Broy./Diag. 0.40E+00   25.0     1.70023017     -1077.3858512618 -2.38E+00
   258 Broy./Diag. 0.40E+00   23.8     1.40572476     -1077.9854682432 -6.00E-01
   259 Broy./Diag. 0.40E+00   23.3     1.58481562     -1076.4314448806  1.55E+00
   260 Broy./Diag. 0.40E+00   22.3     1.62624838     -1077.9571284546 -1.53E+00
   261 Broy./Diag. 0.40E+00   22.6     1.01743724     -1075.8412650175  2.12E+00
   262 Broy./Diag. 0.40E+00   22.6     1.62725394     -1074.1737974712  1.67E+00
   263 Broy./Diag. 0.40E+00   21.8     1.72290485     -1077.3382597508 -3.16E+00
   264 Broy./Diag. 0.40E+00   21.5     1.69398240     -1076.7983329900  5.40E-01
   265 Broy./Diag. 0.40E+00   23.0     1.78231555     -1075.6147169702  1.18E+00
   266 Broy./Diag. 0.40E+00   24.1     1.44690989     -1074.7640253083  8.51E-01
   267 Broy./Diag. 0.40E+00   24.1     1.77819204     -1073.6222070926  1.14E+00
   268 Broy./Diag. 0.40E+00   23.7     1.75665454     -1081.8866890616 -8.26E+00
   269 Broy./Diag. 0.40E+00   23.1     1.76229494     -1077.3339113826  4.55E+00
   270 Broy./Diag. 0.40E+00   23.7     1.80344009     -1076.8402354403  4.94E-01
   271 Broy./Diag. 0.40E+00   24.3     0.99667662     -1075.9435277584  8.97E-01
   272 Broy./Diag. 0.40E+00   22.7     1.27851823     -1073.9616959042  1.98E+00
   273 Broy./Diag. 0.40E+00   23.8     1.45714694     -1078.5407656315 -4.58E+00
   274 Broy./Diag. 0.40E+00   23.7     1.77375575     -1077.0094337732  1.53E+00
   275 Broy./Diag. 0.40E+00   23.3     1.79814211     -1076.3195382499  6.90E-01
   276 Broy./Diag. 0.40E+00   22.4     0.36332506     -1073.9095844025  2.41E+00
   277 Broy./Diag. 0.40E+00   24.4     1.31187373     -1075.8428811332 -1.93E+00
   278 Broy./Diag. 0.40E+00   23.9     1.34397706     -1076.0462851265 -2.03E-01
   279 Broy./Diag. 0.40E+00   25.1     1.12780500     -1074.0599564796  1.99E+00
   280 Broy./Diag. 0.40E+00   23.5     1.59307360     -1078.2854163849 -4.23E+00
   281 Broy./Diag. 0.40E+00   23.4     1.66358740     -1077.7803560909  5.05E-01
   282 Broy./Diag. 0.40E+00   21.5     1.41418272     -1077.2880824912  4.92E-01
   283 Broy./Diag. 0.40E+00   24.5     1.37965549     -1076.6770069571  6.11E-01
   284 Broy./Diag. 0.40E+00   24.3     1.37734009     -1075.9508130529  7.26E-01
   285 Broy./Diag. 0.40E+00   24.9     1.08101973     -1076.2665502533 -3.16E-01
   286 Broy./Diag. 0.40E+00   22.7     0.38728017     -1073.6583987854  2.61E+00
   287 Broy./Diag. 0.40E+00   23.3     1.29757917     -1075.6529612358 -1.99E+00
   288 Broy./Diag. 0.40E+00   22.8     1.31529014     -1076.6594768270 -1.01E+00
   289 Broy./Diag. 0.40E+00   23.6     1.77177962     -1075.2734949053  1.39E+00
   290 Broy./Diag. 0.40E+00   23.3     1.79747490     -1078.3446417421 -3.07E+00
   291 Broy./Diag. 0.40E+00   23.6     1.02532567     -1074.4348090434  3.91E+00
   292 Broy./Diag. 0.40E+00   23.6     1.76460120     -1077.9352322404 -3.50E+00
   293 Broy./Diag. 0.40E+00   25.1     1.79580256     -1077.7933739859  1.42E-01
   294 Broy./Diag. 0.40E+00   22.7     1.35484398     -1077.2795078715  5.14E-01
   295 Broy./Diag. 0.40E+00   23.4     1.32330571     -1076.9874473210  2.92E-01
   296 Broy./Diag. 0.40E+00   23.2     1.40906163     -1077.3432466759 -3.56E-01
   297 Broy./Diag. 0.40E+00   24.3     1.21190935     -1075.9739940540  1.37E+00
   298 Broy./Diag. 0.40E+00   23.2     1.59681052     -1079.2904160526 -3.32E+00
   299 Broy./Diag. 0.40E+00   24.5     1.65258289     -1078.8015199155  4.89E-01
   300 Broy./Diag. 0.40E+00   24.8     1.64656164     -1078.3439309107  4.58E-01

  Leaving inner SCF loop after reaching   300 steps.


  Electronic density on regular grids:       -511.9993746072        0.0006253928
  Core density on regular grids:              511.9999588471       -0.0000411529
  Total charge density on r-space grids:        0.0005842399
  Total charge density g-space grids:           0.0005842399

  Overlap energy of the core charge distribution:               0.00000000000000
  Self energy of the core charge distribution:              -2838.21791979120962
  Core Hamiltonian energy:                                    756.71468066979082
  Hartree energy:                                            1241.39222056730705
  Exchange-correlation energy:                               -238.23291235656885

  Total energy:                                             -1078.34393091068091

 *** WARNING in qs_scf.F:542 :: SCF run NOT converged ***


 ENERGY| Total FORCE_EVAL ( QS ) energy (a.u.):            -1072.354183723961796


 ATOMIC FORCES in [a.u.]

 # Atom   Kind   Element          X              Y              Z
      1      1      O           0.00841070     0.12677735     0.06286094
      2      2      H          -0.00353516    -0.08306078     0.06402457
      3      2      H           0.01443934    -0.01662480    -0.03837592
      4      1      O          -0.02641747    -0.04299133     0.00194167
      5      2      H           0.04766584    -0.03763374    -0.01692506
      6      2      H          -0.02624137    -0.02192000    -0.09981856
      7      1      O          -0.00151815     0.01664068     0.06073906
      8      2      H          -0.04896915    -0.02218352    -0.03288850
      9      2      H           0.02472640    -0.06309420    -0.03051584
     10      1      O          -0.03206659    -0.09726940     0.16572831
     11      2      H          -0.05234480    -0.01076588    -0.11599873
     12      2      H           0.08450118     0.00077967    -0.04800313
     13      1      O          -0.10138047     0.07474521    -0.11488586
     14      2      H           0.06886973     0.05958597     0.01904532
     15      2      H           0.03465030    -0.05029409    -0.03988428
     16      1      O          -0.11307799     0.06891106     0.00824305
     17      2      H           0.05193210     0.02782382     0.02900566
     18      2      H           0.05829652    -0.04445036    -0.08211798
     19      1      O          -0.05526374    -0.00439388    -0.03816981
     20      2      H           0.00699301     0.00264363     0.00678594
     21      2      H           0.04481247     0.04196571    -0.01600833
     22      1      O           0.01187940    -0.04813778     0.07885853
     23      2      H          -0.05684753     0.01959449     0.02390122
     24      2      H           0.04168717     0.02691445     0.00881807
     25      1      O          -0.00840002    -0.06928111     0.12011645
     26      2      H          -0.01381367     0.08041190     0.06791295
     27      2      H           0.02742912     0.05023341    -0.11427695
     28      1      O          -0.05856030     0.07788610    -0.15565501
     29      2      H           0.07957914     0.01174947    -0.04229353
     30      2      H          -0.02899410    -0.09146241     0.07013423
     31      1      O           0.02725896     0.03450471     0.06507975
     32      2      H          -0.07675488     0.02778035    -0.01524840
     33      2      H           0.04574191     0.03111792    -0.01654094
     34      1      O          -0.08415331     0.00390611     0.11015136
     35      2      H          -0.02339004     0.01625488    -0.03604257
     36      2      H           0.05095121    -0.01423183    -0.05393172
     37      1      O           0.09946792     0.04604053     0.10141571
     38      2      H          -0.04530766    -0.00926111     0.00251569
     39      2      H          -0.04430695     0.04059034    -0.03218537
     40      1      O          -0.14350582    -0.09991313     0.14800098
     41      2      H           0.03299615    -0.03585026    -0.13360491
     42      2      H           0.09674390     0.00993172     0.01529220
     43      1      O           0.02885866     0.08778885    -0.07209533
     44      2      H          -0.06108401    -0.05964051     0.05015113
     45      2      H           0.03243208    -0.00403174     0.02660127
     46      1      O           0.02137358     0.15589639     0.04314757
     47      2      H          -0.02487759    -0.08204880    -0.03471904
     48      2      H           0.02563933    -0.05672258     0.05041657
     49      1      O           0.08318183     0.13565376     0.08541138
     50      2      H          -0.07368557    -0.03314578     0.02786256
     51      2      H           0.00223965    -0.06831851    -0.08353727
     52      1      O          -0.04559507    -0.05773082    -0.00448693
     53      2      H           0.06251040     0.00240949    -0.04464203
     54      2      H           0.00977282    -0.04264815    -0.00590962
     55      1      O          -0.04169961     0.00004789    -0.00627551
     56      2      H           0.00275198    -0.02606535    -0.04657935
     57      2      H           0.06197433     0.05508007    -0.02423072
     58      1      O          -0.00058234    -0.13712941     0.11296822
     59      2      H          -0.02831395     0.02280137    -0.04859806
     60      2      H           0.00416736     0.10206488     0.06400608
     61      1      O          -0.10381955     0.02980467    -0.09133926
     62      2      H           0.01374200     0.00591266     0.09326723
     63      2      H           0.04601883     0.03709584    -0.09082170
     64      1      O           0.05694142     0.05283035     0.17218487
     65      2      H          -0.07363005     0.07011382     0.02255973
     66      2      H           0.01357145    -0.07365421    -0.09442410
     67      1      O           0.05547533    -0.11654634    -0.14620733
     68      2      H          -0.07967993     0.03176097    -0.02940841
     69      2      H           0.04179024     0.03171572     0.08044074
     70      1      O           0.01241008    -0.00197922    -0.01631258
     71      2      H           0.04398630    -0.03747683    -0.00620605
     72      2      H          -0.05766635     0.01327126     0.07378372
     73      1      O           0.04364358    -0.10197215     0.01587188
     74      2      H          -0.00460376     0.00620579     0.08345828
     75      2      H          -0.04731596     0.04287433    -0.04777362
     76      1      O          -0.02253233     0.09391753    -0.01376513
     77      2      H           0.06607817     0.00378292     0.00645909
     78      2      H          -0.02629733    -0.03328662    -0.05004154
     79      1      O          -0.21033993    -0.08379114     0.00480235
     80      2      H           0.10230329     0.16107118    -0.06126580
     81      2      H           0.07926325    -0.13877967     0.03192126
     82      1      O           0.02132324    -0.08198681     0.00917336
     83      2      H          -0.02423202     0.08041232    -0.04664984
     84      2      H          -0.02181415    -0.01178678    -0.09140288
     85      1      O          -0.00074284    -0.15179399    -0.05734809
     86      2      H           0.04397223     0.02410676     0.00140522
     87      2      H          -0.06028434     0.07169570    -0.01914002
     88      1      O           0.11144008     0.06916115     0.09701300
     89      2      H          -0.04053752    -0.08896268    -0.01223664
     90      2      H          -0.04878656     0.07399161     0.01157139
     91      1      O          -0.07368834    -0.01206206    -0.17828004
     92      2      H          -0.01375735     0.04617390     0.11491939
     93      2      H           0.06601148    -0.04903909     0.02192935
     94      1      O           0.07360495    -0.04839279    -0.02906014
     95      2      H          -0.01847732    -0.00858579     0.04663464
     96      2      H          -0.07928417    -0.00723532    -0.02982993
     97      1      O          -0.01806388     0.11324205     0.13204352
     98      2      H          -0.03690611    -0.00897029    -0.08886372
     99      2      H           0.04588069    -0.05984373     0.05178374
    100      1      O           0.01070317    -0.00835936     0.01488319
    101      2      H           0.03244884    -0.06715556    -0.02989466
    102      2      H           0.00920805     0.10266066    -0.07324574
    103      1      O           0.01514424     0.15658223     0.15798545
    104      2      H           0.03432251    -0.06462646     0.03743430
    105      2      H          -0.04763855    -0.03314738    -0.04035894
    106      1      O          -0.08226740     0.08843664    -0.00122402
    107      2      H           0.09767512    -0.00783449     0.06895119
    108      2      H           0.02655797    -0.00950764    -0.02994350
    109      1      O          -0.03531681    -0.01290413    -0.16472328
    110      2      H           0.07139959    -0.00833840     0.06810864
    111      2      H          -0.02036289    -0.06230339     0.02543121
    112      1      O          -0.09042613    -0.07305070     0.12040602
    113      2      H           0.05971496    -0.01190165    -0.01251093
    114      2      H           0.00978262     0.04526910     0.02977237
    115      1      O           0.00182030    -0.11182292    -0.02556956
    116      2      H           0.00896268     0.01048446     0.06654719
    117      2      H          -0.03074862     0.04906814    -0.01738994
    118      1      O          -0.06633199    -0.04590760    -0.04260836
    119      2      H           0.05259022     0.03040188    -0.04081024
    120      2      H          -0.03170418     0.02279072     0.05730747
    121      1      O           0.02646491     0.04951407    -0.05607523
    122      2      H          -0.07398499    -0.00907317    -0.00435490
    123      2      H           0.02570938    -0.02425368     0.07007878
    124      1      O          -0.07145338     0.06953440    -0.01383675
    125      2      H           0.00841201    -0.08555154     0.00684992
    126      2      H           0.04153015     0.04859276     0.00882266
    127      1      O          -0.05873701    -0.06455873    -0.05641845
    128      2      H           0.05639493     0.10452315    -0.02688950
    129      2      H           0.05403501    -0.08342275    -0.01397910
    130      1      O           0.02001825     0.05216442    -0.09844301
    131      2      H          -0.04362357    -0.03315120    -0.08243104
    132      2      H           0.03838254    -0.05603251     0.01301106
    133      1      O          -0.03669227    -0.14159165     0.05885131
    134      2      H           0.10331584    -0.00606542     0.03795963
    135      2      H          -0.03080989     0.03376038    -0.09146776
    136      1      O           0.07844146    -0.03682134     0.13603531
    137      2      H          -0.00204988    -0.00148287     0.01931157
    138      2      H          -0.05240616    -0.03589103    -0.03438649
    139      1      O          -0.04021462     0.12555955    -0.07466450
    140      2      H           0.04021207    -0.04389393     0.07722647
    141      2      H           0.05041184     0.02895810    -0.03131204
    142      1      O           0.02547081     0.06547776     0.00011851
    143      2      H          -0.03826681    -0.06345208     0.01979187
    144      2      H           0.03012520     0.05200185     0.04230770
    145      1      O          -0.03570002    -0.08072157    -0.15775977
    146      2      H          -0.03912940     0.05976307     0.04276952
    147      2      H           0.10349012     0.07285801    -0.02197712
    148      1      O          -0.09024865     0.00639222     0.01724453
    149      2      H           0.03788392     0.06326328    -0.02292400
    150      2      H           0.03970702    -0.04896837     0.03463030
    151      1      O          -0.11178895     0.09674764    -0.12377041
    152      2      H           0.01227239    -0.02899701     0.00142904
    153      2      H           0.07717134     0.03756836     0.00346657
    154      1      O          -0.11233307     0.06138892     0.03777687
    155      2      H           0.09827798    -0.00563688    -0.07345123
    156      2      H           0.02819446    -0.03155141     0.05478619
    157      1      O           0.01872296    -0.02225758    -0.16163167
    158      2      H           0.00052851    -0.02257298     0.05795378
    159      2      H           0.01149725     0.01897293     0.03987548
    160      1      O          -0.02547651    -0.05376641     0.17107836
    161      2      H           0.08053892    -0.03129287    -0.04637954
    162      2      H          -0.03213239     0.00743104    -0.04618102
    163      1      O           0.05610637     0.05992073     0.06722554
    164      2      H          -0.02176423    -0.07363331     0.02736503
    165      2      H           0.02586050    -0.00652083    -0.11173806
    166      1      O           0.03627725     0.08765361    -0.05614850
    167      2      H           0.00313231    -0.03782351     0.02687507
    168      2      H          -0.04431770     0.00643760    -0.02033982
    169      1      O           0.03329034    -0.07532738    -0.12496234
    170      2      H          -0.04440222    -0.00648696    -0.03153416
    171      2      H          -0.00491844     0.05077030     0.04747078
    172      1      O          -0.11986906    -0.04548038     0.10237526
    173      2      H           0.03151712    -0.00334517    -0.10408806
    174      2      H           0.07035664    -0.03478472     0.00296572
    175      1      O           0.08750785    -0.06073079     0.05357496
    176      2      H           0.01868081     0.08684548     0.06062556
    177      2      H          -0.09595119     0.01902953    -0.04588981
    178      1      O           0.03981769    -0.12914875    -0.00547860
    179      2      H          -0.00627959    -0.00755983     0.10223834
    180      2      H          -0.05045391     0.07031929    -0.05393863
    181      1      O          -0.06188350     0.00432549     0.15344264
    182      2      H          -0.04356146     0.02016434    -0.06838420
    183      2      H           0.07299093     0.02838091    -0.01246778
    184      1      O           0.02944781     0.11132344     0.05957184
    185      2      H           0.02845079    -0.00370460    -0.03739075
    186      2      H          -0.04326172    -0.04866872     0.03054390
    187      1      O          -0.07960951    -0.04259900    -0.11017425
    188      2      H           0.02314902     0.08158926    -0.00924126
    189      2      H           0.04546429    -0.07472410     0.03109231
    190      1      O           0.05340228     0.01194124     0.09082464
    191      2      H           0.02190538    -0.01094939    -0.08638954
    192      2      H          -0.02888488    -0.02194216     0.00395040
 SUM OF ATOMIC FORCES           0.11813939    -0.04120340    -0.21889679     0.25213179

 -------------------------------------------------------------------------------
 -                                                                             -
 -                                DBCSR STATISTICS                             -
 -                                                                             -
 -------------------------------------------------------------------------------
 COUNTER                                    TOTAL       BLAS       SMM       ACC
 flops     5 x     5 x   256           3841241600       0.0%    100.0%      0.0%
 flops     5 x    13 x   256           4517793280       0.0%    100.0%      0.0%
 flops    13 x     5 x   256           4748190720       0.0%    100.0%      0.0%
 flops    13 x    13 x   256           6771681280       0.0%    100.0%      0.0%
 flops inhomo. stacks                           0       0.0%      0.0%      0.0%
 flops total                        19.878907E+09       0.0%    100.0%      0.0%
 flops max/rank                     19.878907E+09       0.0%    100.0%      0.0%
 matmuls inhomo. stacks                         0       0.0%      0.0%      0.0%
 matmuls total                             656782       0.0%    100.0%      0.0%
 number of processed stacks                 42140       0.0%    100.0%      0.0%
 average stack size                                     0.0      15.6       0.0
 marketing flops                   333.927416E+09
 -------------------------------------------------------------------------------
 # multiplications                            301
 max memory usage/rank              30.572888E+09
 # max total images/rank                        1
 # max 3D layers                                1
 # MPI messages exchanged                       0
 MPI messages size (bytes):
  total size                         0.000000E+00
  min size                           0.000000E+00
  max size                           0.000000E+00
  average size                       0.000000E+00
 MPI breakdown and total messages size (bytes):
             size <=      128                   0                        0
       128 < size <=     8192                   0                        0
      8192 < size <=    32768                   0                        0
     32768 < size <=   131072                   0                        0
    131072 < size <=  4194304                   0                        0
   4194304 < size <= 16777216                   0                        0
  16777216 < size                               0                        0
 -------------------------------------------------------------------------------

 MEMORY| Estimated peak process memory [MiB]                               29161

 -------------------------------------------------------------------------------
 -                                                                             -
 -                           R E F E R E N C E S                               -
 -                                                                             -
 -------------------------------------------------------------------------------
 
 CP2K version 7.1, the CP2K developers group (2019).
 CP2K is freely available from https://www.cp2k.org/ .

 Schuett, Ole; Messmer, Peter; Hutter, Juerg; VandeVondele, Joost. 
 Electronic Structure Calculations on Graphics Processing Units, John
 Wiley & Sons, Ltd, 173-190 (2016). 
 GPU-Accelerated Sparse Matrix-Matrix Multiplication for
 Linear Scaling Density Functional Theory.
 https://dx.doi.org/10.1002/9781118670712.ch8

 Borstnik, U; VandeVondele, J; Weber, V; Hutter, J. 
 PARALLEL COMPUTING, 40 (5-6), 47-58 (2014). 
 Sparse matrix multiplication: The distributed block-compressed sparse
 row library.
 https://dx.doi.org/10.1016/j.parco.2014.03.012

 Hutter, J; Iannuzzi, M; Schiffmann, F; VandeVondele, J. 
 WIREs Comput Mol Sci., 4 (1), 15-25 (2014). 
 CP2K: atomistic simulations of condensed matter systems.
 https://dx.doi.org/10.1002/wcms.1159

 Krack, M. 
 THEORETICAL CHEMISTRY ACCOUNTS, 114 (1-3), 145-152 (2005). 
 Pseudopotentials for H to Kr optimized for gradient-corrected
 exchange-correlation functionals.
 https://dx.doi.org/10.1007/s00214-005-0655-y

 VandeVondele, J; Krack, M; Mohamed, F; Parrinello, M; Chassaing, T;
 Hutter, J. COMPUTER PHYSICS COMMUNICATIONS, 167 (2), 103-128 (2005). 
 QUICKSTEP: Fast and accurate density functional calculations using a
 mixed Gaussian and plane waves approach.
 https://dx.doi.org/10.1016/j.cpc.2004.12.014

 Frigo, M; Johnson, SG. 
 PROCEEDINGS OF THE IEEE, 93 (2), 216-231 (2005). 
 The design and implementation of FFTW3.
 https://dx.doi.org/10.1109/JPROC.2004.840301

 Hartwigsen, C; Goedecker, S; Hutter, J. 
 PHYSICAL REVIEW B, 58 (7), 3641-3662 (1998). 
 Relativistic separable dual-space Gaussian pseudopotentials from H to Rn.
 https://dx.doi.org/10.1103/PhysRevB.58.3641

 Lippert, G; Hutter, J; Parrinello, M. 
 MOLECULAR PHYSICS, 92 (3), 477-487 (1997). 
 A hybrid Gaussian and plane wave density functional scheme.
 https://dx.doi.org/10.1080/002689797170220

 Goedecker, S; Teter, M; Hutter, J. 
 PHYSICAL REVIEW B, 54 (3), 1703-1710 (1996). 
 Separable dual-space Gaussian pseudopotentials.
 https://dx.doi.org/10.1103/PhysRevB.54.1703


 -------------------------------------------------------------------------------
 -                                                                             -
 -                                T I M I N G                                  -
 -                                                                             -
 -------------------------------------------------------------------------------
 SUBROUTINE                       CALLS  ASD         SELF TIME        TOTAL TIME
                                MAXIMUM       AVERAGE  MAXIMUM  AVERAGE  MAXIMUM
 CP2K                                 1  1.0    1.060    1.060 7040.019 7040.019
 qs_forces                            1  2.0    0.000    0.000 7028.879 7028.879
 qs_energies                          1  3.0    0.000    0.000 7025.433 7025.433
 scf_env_do_scf                       1  4.0    0.002    0.002 7014.035 7014.035
 scf_env_do_scf_inner_loop          300  5.0    0.048    0.048 7014.032 7014.032
 gspace_mixing                      299  6.0   42.267   42.267 2950.233 2950.233
 broyden_mixing                     299  7.0 2666.350 2666.350 2666.353 2666.353
 qs_scf_new_mos                     300  6.0    0.008    0.008 1931.607 1931.607
 eigensolver                        300  7.0    0.034    0.034 1899.639 1899.639
 cp_fm_syevd                        300  8.0 1264.398 1264.398 1265.561 1265.561
 pw_transfer                       3912  9.9    0.373    0.373 1128.910 1128.910
 rebuild_ks_matrix                  301  7.0    0.001    0.001 1102.153 1102.153
 qs_ks_build_kohn_sham_matrix       301  8.0    0.087    0.087 1102.152 1102.152
 fft_wrap_pw1pw2                   3310 10.9    0.056    0.056 1101.224 1101.224
 qs_ks_update_qs_env                300  6.0    0.004    0.004 1099.086 1099.086
 qs_rho_update_rho                  301  6.0    0.003    0.003 1034.983 1034.983
 calculate_rho_elec                 301  7.0  509.199  509.199 1034.980 1034.980
 fft_wrap_pw1pw2_70                1504 11.2   88.666   88.666 1012.069 1012.069
 cp_fm_cholesky_restore             900  8.0  632.926  632.926  632.926  632.926
 density_rs2pw                      301  8.0    0.031    0.031  518.220  518.220
 fft3d_s                           3311 12.9  516.849  516.849  516.874  516.874
 pw_scatter_s                      1804 13.2  410.353  410.353  410.353  410.353
 pw_poisson_solve                   301  9.0  336.426  336.426  364.088  364.088
 sum_up_and_integrate               301  9.0   18.438   18.438  287.939  287.939
 integrate_v_rspace                 301 10.0    7.828    7.828  269.500  269.500
 potential_pw2rs                    301 11.0    2.520    2.520  260.478  260.478
 qs_vxc_create                      301  9.0    0.007    0.007  163.257  163.257
 xc_vxc_pw_create                   301 10.0   42.384   42.384  163.249  163.249
 -------------------------------------------------------------------------------

 The number of warnings for this run is : 1
 
 -------------------------------------------------------------------------------
  **** **** ******  **  PROGRAM ENDED AT                 2020-05-28 19:13:01.968
 ***** ** ***  *** **   PROGRAM RAN ON                                   gnode44
 **    ****   ******    PROGRAM RAN BY                               mayank.modi
 ***** **    ** ** **   PROGRAM PROCESS ID                                 18163
  **** **  *******  **  PROGRAM STOPPED IN /home/mayank.modi/ab-initio-thermodyn
                                           amics-of-water/mayank/cp2k_energy_cal
                                           culations
