 DBCSR| CPU Multiplication driver                                           XSMM
 DBCSR| Multrec recursion limit                                              512
 DBCSR| Multiplication stack size                                           1000
 DBCSR| Maximum elements for images                                    UNLIMITED
 DBCSR| Multiplicative factor virtual images                                   1
 DBCSR| Use multiplication densification                                       T
 DBCSR| Multiplication size stacks                                             3


  **** **** ******  **  PROGRAM STARTED AT               2020-05-29 09:07:37.257
 ***** ** ***  *** **   PROGRAM STARTED ON                               gnode44
 **    ****   ******    PROGRAM STARTED BY                           mayank.modi
 ***** **    ** ** **   PROGRAM PROCESS ID                                 30134
  **** **  *******  **  PROGRAM STARTED IN /home/mayank.modi/ab-initio-thermodyn
                                           amics-of-water/mayank/cp2k_energy_cal
                                           culations

 CP2K| version string:                                          CP2K version 7.1
 CP2K| source code revision number:                                  git:e635599
 CP2K| cp2kflags: omp libint fftw3 libxc xsmm spglib                            
 CP2K| is freely available from                            https://www.cp2k.org/
 CP2K| Program compiled at                          Mon Dec 23 19:23:12 CET 2019
 CP2K| Program compiled on                                                pc9404
 CP2K| Program compiled for                                Linux-x86-64-gfortran
 CP2K| Data directory path                                        /opt/cp2k/data
 CP2K| Input file name                                 input_training/input33.in

 GLOBAL| Force Environment number                                              1
 GLOBAL| Basis set file name                                           BASIS_SET
 GLOBAL| Potential file name                                      GTH_POTENTIALS
 GLOBAL| MM Potential file name                                     MM_POTENTIAL
 GLOBAL| Coordinate file name                                      __STD_INPUT__
 GLOBAL| Method name                                                        CP2K
 GLOBAL| Project name                                                   H2O_bulk
 GLOBAL| Preferred FFT library                                             FFTW3
 GLOBAL| Preferred diagonalization lib.                                       SL
 GLOBAL| Run type                                                   ENERGY_FORCE
 GLOBAL| All-to-all communication in single precision                          F
 GLOBAL| FFTs using library dependent lengths                                  F
 GLOBAL| Global print level                                                  LOW
 GLOBAL| MPI I/O enabled                                                       T
 GLOBAL| Total number of message passing processes                             1
 GLOBAL| Number of threads for this process                                   36
 GLOBAL| This output is from process                                           0
 GLOBAL| CPU model name                Intel(R) Xeon(R) CPU E5-2640 v4 @ 2.40GHz
 GLOBAL| CPUID                                                              1002
 GLOBAL| Compiled for CPUID                                                    0

 MEMORY| system memory details [Kb]
 MEMORY|                        rank 0           min           max       average
 MEMORY| MemTotal            131893056     131893056     131893056     131893056
 MEMORY| MemFree             121141072     121141072     121141072     121141072
 MEMORY| Buffers               2124060       2124060       2124060       2124060
 MEMORY| Cached                3075288       3075288       3075288       3075288
 MEMORY| Slab                  3301712       3301712       3301712       3301712
 MEMORY| SReclaimable          3100816       3100816       3100816       3100816
 MEMORY| MemLikelyFree       129441236     129441236     129441236     129441236


 GENERATE|  Preliminary Number of Bonds generated:                             0
 GENERATE|  Achieved consistency in connectivity generation.

 *******************************************************************************
 *******************************************************************************
 **                                                                           **
 **     #####                         ##              ##                      **
 **    ##   ##            ##          ##              ##                      **
 **   ##     ##                       ##            ######                    **
 **   ##     ##  ##   ##  ##   #####  ##  ##   ####   ##    #####    #####    **
 **   ##     ##  ##   ##  ##  ##      ## ##   ##      ##   ##   ##  ##   ##   **
 **   ##  ## ##  ##   ##  ##  ##      ####     ###    ##   ######   ######    **
 **    ##  ###   ##   ##  ##  ##      ## ##      ##   ##   ##       ##        **
 **     #######   #####   ##   #####  ##  ##  ####    ##    #####   ##        **
 **           ##                                                    ##        **
 **                                                                           **
 **                                                ... make the atoms dance   **
 **                                                                           **
 **            Copyright (C) by CP2K developers group (2000 - 2019)           **
 **                                                                           **
 *******************************************************************************


 TOTAL NUMBERS AND MAXIMUM NUMBERS

  Total number of            - Atomic kinds:                                   2
                             - Atoms:                                        192
                             - Shell sets:                                   384
                             - Shells:                                       704
                             - Primitive Cartesian functions:                960
                             - Cartesian basis functions:                   1536
                             - Spherical basis functions:                   1472

  Maximum angular momentum of- Orbital basis functions:                        2
                             - Local part of the GTH pseudopotential:          2
                             - Non-local part of the GTH pseudopotential:      0


 SCF PARAMETERS         Density guess:                                    ATOMIC
                        --------------------------------------------------------
                        max_scf:                                             300
                        max_scf_history:                                       0
                        max_diis:                                              4
                        --------------------------------------------------------
                        eps_scf:                                        1.00E-07
                        eps_scf_history:                                0.00E+00
                        eps_diis:                                       1.00E-01
                        eps_eigval:                                     1.00E-05
                        --------------------------------------------------------
                        level_shift [a.u.]:                                 0.00
                        --------------------------------------------------------
                        Mixing method:                            BROYDEN_MIXING
                                                charge density mixing in g-space
                        --------------------------------------------------------
                        No outer SCF

 Number of electrons:                                                        512
 Number of occupied orbitals:                                                256
 Number of molecular orbitals:                                               256

 Number of orbital functions:                                               1472
 Number of independent orbital functions:                                   1472

 Extrapolation method: initial_guess


 SCF WAVEFUNCTION OPTIMIZATION

  Step     Update method      Time    Convergence         Total energy    Change
  ------------------------------------------------------------------------------
     1 NoMix/Diag. 0.40E+00   10.2     0.61360542     -1064.3355579284 -1.06E+03
     2 Broy./Diag. 0.40E+00   15.2     1.92598902      -998.2544894138  6.61E+01
     3 Broy./Diag. 0.40E+00   16.6     1.94923260     -1256.4593661773 -2.58E+02
     4 Broy./Diag. 0.40E+00   16.6     1.94126626     -1109.9817922943  1.46E+02
     5 Broy./Diag. 0.40E+00   17.0     2.00671726     -1099.0556861264  1.09E+01
     6 Broy./Diag. 0.40E+00   17.1     1.80029263     -1100.3938289076 -1.34E+00
     7 Broy./Diag. 0.40E+00   18.1     1.78574273     -1088.5218449748  1.19E+01
     8 Broy./Diag. 0.40E+00   18.9     1.72564160     -1082.8268659656  5.69E+00
     9 Broy./Diag. 0.40E+00   20.3     1.07028450     -1078.8198312396  4.01E+00
    10 Broy./Diag. 0.40E+00   22.4     1.15040178     -1077.3505312586  1.47E+00
    11 Broy./Diag. 0.40E+00   22.4     0.86410180     -1076.5619964352  7.89E-01
    12 Broy./Diag. 0.40E+00   23.8     1.14734187     -1075.8763662426  6.86E-01
    13 Broy./Diag. 0.40E+00   22.4     0.16041320     -1077.7686902485 -1.89E+00
    14 Broy./Diag. 0.40E+00   22.1     0.13587981     -1076.8978675020  8.71E-01
    15 Broy./Diag. 0.40E+00   23.4     0.12464381     -1076.7773225035  1.21E-01
    16 Broy./Diag. 0.40E+00   23.3     0.04426604     -1076.9123060577 -1.35E-01
    17 Broy./Diag. 0.40E+00   22.1     0.19318316     -1076.2907685871  6.22E-01
    18 Broy./Diag. 0.40E+00   24.3     0.17604648     -1078.7945094337 -2.50E+00
    19 Broy./Diag. 0.40E+00   24.0     0.12975212     -1077.2384276394  1.56E+00
    20 Broy./Diag. 0.40E+00   23.9     0.10848854     -1077.3392442810 -1.01E-01
    21 Broy./Diag. 0.40E+00   23.9     1.26738618     -1075.7816218827  1.56E+00
    22 Broy./Diag. 0.40E+00   24.4     1.20761797     -1073.9706498647  1.81E+00
    23 Broy./Diag. 0.40E+00   23.7     0.27570651     -1072.2876914375  1.68E+00
    24 Broy./Diag. 0.40E+00   23.3     1.68643164     -1076.1033974680 -3.82E+00
    25 Broy./Diag. 0.40E+00   24.7     1.71076476     -1076.4574864306 -3.54E-01
    26 Broy./Diag. 0.40E+00   24.9     1.15270683     -1074.7381730419  1.72E+00
    27 Broy./Diag. 0.40E+00   22.6     1.70969871     -1077.8542652052 -3.12E+00
    28 Broy./Diag. 0.40E+00   21.9     1.73037970     -1078.3290511723 -4.75E-01
    29 Broy./Diag. 0.40E+00   22.5     1.75503778     -1078.1287825579  2.00E-01
    30 Broy./Diag. 0.40E+00   22.0     0.69547920     -1075.9319882805  2.20E+00
    31 Broy./Diag. 0.40E+00   22.4     1.07272227     -1077.2830059721 -1.35E+00
    32 Broy./Diag. 0.40E+00   23.4     1.66230243     -1077.4548873320 -1.72E-01
    33 Broy./Diag. 0.40E+00   22.9     1.69281512     -1077.4103378306  4.45E-02
    34 Broy./Diag. 0.40E+00   23.6     0.38109863     -1075.5920125341  1.82E+00
    35 Broy./Diag. 0.40E+00   23.8     1.69490900     -1077.0391318495 -1.45E+00
    36 Broy./Diag. 0.40E+00   24.1     1.70684480     -1077.9265111625 -8.87E-01
    37 Broy./Diag. 0.40E+00   24.6     1.32244533     -1077.7533234893  1.73E-01
    38 Broy./Diag. 0.40E+00   24.7     0.28410192     -1076.1458600687  1.61E+00
    39 Broy./Diag. 0.40E+00   23.9     0.13304489     -1076.5440827051 -3.98E-01
    40 Broy./Diag. 0.40E+00   23.4     0.15712420     -1076.3967671729  1.47E-01
    41 Broy./Diag. 0.40E+00   23.8     1.11221383     -1076.6837269867 -2.87E-01
    42 Broy./Diag. 0.40E+00   23.9     1.68455205     -1077.7326722355 -1.05E+00
    43 Broy./Diag. 0.40E+00   23.1     1.70173360     -1077.6151995557  1.17E-01
    44 Broy./Diag. 0.40E+00   21.4     0.14028747     -1076.4376525626  1.18E+00
    45 Broy./Diag. 0.40E+00   21.9     1.69745560     -1076.6339102094 -1.96E-01
    46 Broy./Diag. 0.40E+00   21.3     1.71571501     -1077.6305966633 -9.97E-01
    47 Broy./Diag. 0.40E+00   23.3     1.02572778     -1077.2784385112  3.52E-01
    48 Broy./Diag. 0.40E+00   23.1     0.54665112     -1076.0014448545  1.28E+00
    49 Broy./Diag. 0.40E+00   23.9     0.42451049     -1076.6880919779 -6.87E-01
    50 Broy./Diag. 0.40E+00   23.9     0.13838133     -1076.3516916530  3.36E-01
    51 Broy./Diag. 0.40E+00   23.7     0.41608882     -1076.1495087275  2.02E-01
    52 Broy./Diag. 0.40E+00   23.4     1.07713065     -1076.7410544146 -5.92E-01
    53 Broy./Diag. 0.40E+00   22.9     1.46866985     -1077.9150852283 -1.17E+00
    54 Broy./Diag. 0.40E+00   21.7     1.49852232     -1077.7728590395  1.42E-01
    55 Broy./Diag. 0.40E+00   23.6     1.72968879     -1077.4948740190  2.78E-01
    56 Broy./Diag. 0.40E+00   23.9     1.76214743     -1077.5240168997 -2.91E-02
    57 Broy./Diag. 0.40E+00   24.1     0.14974678     -1075.8437606526  1.68E+00
    58 Broy./Diag. 0.40E+00   24.1     1.70783307     -1076.1364073583 -2.93E-01
    59 Broy./Diag. 0.40E+00   24.2     1.70479806     -1077.6797825874 -1.54E+00
    60 Broy./Diag. 0.40E+00   24.0     0.33056159     -1076.4083241691  1.27E+00
    61 Broy./Diag. 0.40E+00   23.7     1.70470125     -1075.7576541609  6.51E-01
    62 Broy./Diag. 0.40E+00   24.0     1.71919627     -1077.6042607875 -1.85E+00
    63 Broy./Diag. 0.40E+00   23.0     1.44185864     -1077.5965383904  7.72E-03
    64 Broy./Diag. 0.40E+00   23.2     1.16824668     -1076.0265620728  1.57E+00
    65 Broy./Diag. 0.40E+00   24.2     1.29570853     -1077.8760118511 -1.85E+00
    66 Broy./Diag. 0.40E+00   22.6     1.10939081     -1077.7556805562  1.20E-01
    67 Broy./Diag. 0.40E+00   22.7     1.66288486     -1076.2279678167  1.53E+00
    68 Broy./Diag. 0.40E+00   24.4     1.67852793     -1077.4523634609 -1.22E+00
    69 Broy./Diag. 0.40E+00   23.2     1.50735703     -1077.4622838913 -9.92E-03
    70 Broy./Diag. 0.40E+00   24.2     1.11442613     -1075.8314671995  1.63E+00
    71 Broy./Diag. 0.40E+00   23.8     0.61178893     -1077.8720123696 -2.04E+00
    72 Broy./Diag. 0.40E+00   23.7     1.48641957     -1077.5016088191  3.70E-01
    73 Broy./Diag. 0.40E+00   24.3     1.45783533     -1077.8255914394 -3.24E-01
    74 Broy./Diag. 0.40E+00   24.8     0.59760346     -1076.4152135267  1.41E+00
    75 Broy./Diag. 0.40E+00   24.6     1.69167270     -1075.6374667494  7.78E-01
    76 Broy./Diag. 0.40E+00   23.0     1.70272877     -1077.4621574636 -1.82E+00
    77 Broy./Diag. 0.40E+00   23.7     1.12184624     -1077.3279414104  1.34E-01
    78 Broy./Diag. 0.40E+00   23.9     0.24045900     -1075.6323314857  1.70E+00
    79 Broy./Diag. 0.40E+00   23.8     1.66614301     -1076.7219628965 -1.09E+00
    80 Broy./Diag. 0.40E+00   23.8     1.67802987     -1077.4503461863 -7.28E-01
    81 Broy./Diag. 0.40E+00   23.7     0.98865064     -1077.4864168823 -3.61E-02
    82 Broy./Diag. 0.40E+00   23.9     1.73487127     -1075.8642671902  1.62E+00
    83 Broy./Diag. 0.40E+00   23.6     1.73618359     -1078.1590519168 -2.29E+00
    84 Broy./Diag. 0.40E+00   23.9     1.38008090     -1076.3974735599  1.76E+00
    85 Broy./Diag. 0.40E+00   24.0     1.70027279     -1077.0242468774 -6.27E-01
    86 Broy./Diag. 0.40E+00   22.8     1.72625058     -1076.9930943749  3.12E-02
    87 Broy./Diag. 0.40E+00   20.8     1.16591064     -1076.2935177122  7.00E-01
    88 Broy./Diag. 0.40E+00   23.1     0.70964459     -1075.3265634838  9.67E-01
    89 Broy./Diag. 0.40E+00   23.0     1.66529202     -1077.7202180074 -2.39E+00
    90 Broy./Diag. 0.40E+00   23.6     1.68138322     -1078.0047329542 -2.85E-01
    91 Broy./Diag. 0.40E+00   23.0     1.07685734     -1076.1333385553  1.87E+00
    92 Broy./Diag. 0.40E+00   22.0     1.09930396     -1077.2576251396 -1.12E+00
    93 Broy./Diag. 0.40E+00   22.8     0.93817473     -1077.1056921235  1.52E-01
    94 Broy./Diag. 0.40E+00   23.9     0.07157577     -1075.9980554225  1.11E+00
    95 Broy./Diag. 0.40E+00   23.4     1.70444390     -1076.4408943315 -4.43E-01
    96 Broy./Diag. 0.40E+00   23.2     1.71444268     -1077.7144215411 -1.27E+00
    97 Broy./Diag. 0.40E+00   24.3     1.68815701     -1077.4899502820  2.24E-01
    98 Broy./Diag. 0.40E+00   22.0     1.71740278     -1077.3787763483  1.11E-01
    99 Broy./Diag. 0.40E+00   22.3     1.30101036     -1075.7814599558  1.60E+00
   100 Broy./Diag. 0.40E+00   20.9     1.29593110     -1077.9371820122 -2.16E+00
   101 Broy./Diag. 0.40E+00   23.3     1.09489275     -1075.9574448110  1.98E+00
   102 Broy./Diag. 0.40E+00   23.0     1.40990870     -1077.4890468696 -1.53E+00
   103 Broy./Diag. 0.40E+00   22.4     1.43906563     -1077.4818821387  7.16E-03
   104 Broy./Diag. 0.40E+00   20.9     1.66876137     -1076.2259543248  1.26E+00
   105 Broy./Diag. 0.40E+00   22.8     1.68961526     -1077.5125799231 -1.29E+00
   106 Broy./Diag. 0.40E+00   23.3     1.41751614     -1075.8048269609  1.71E+00
   107 Broy./Diag. 0.40E+00   23.7     1.72306285     -1077.6009922058 -1.80E+00
   108 Broy./Diag. 0.40E+00   24.6     1.74794857     -1077.7260041542 -1.25E-01
   109 Broy./Diag. 0.40E+00   23.1     1.69745096     -1076.2354260447  1.49E+00
   110 Broy./Diag. 0.40E+00   24.1     1.70732484     -1077.5657715813 -1.33E+00
   111 Broy./Diag. 0.40E+00   22.1     0.96778453     -1076.0395369910  1.53E+00
   112 Broy./Diag. 0.40E+00   21.9     1.43297763     -1077.6538900176 -1.61E+00
   113 Broy./Diag. 0.40E+00   24.5     1.45348296     -1077.6463280290  7.56E-03
   114 Broy./Diag. 0.40E+00   24.0     1.67287451     -1076.3390028823  1.31E+00
   115 Broy./Diag. 0.40E+00   23.3     1.68942761     -1077.6270309549 -1.29E+00
   116 Broy./Diag. 0.40E+00   23.2     0.87146232     -1075.9034436788  1.72E+00
   117 Broy./Diag. 0.40E+00   22.9     1.07139887     -1077.6772657934 -1.77E+00
   118 Broy./Diag. 0.40E+00   23.9     1.10656277     -1077.6541995347  2.31E-02
   119 Broy./Diag. 0.40E+00   23.8     1.04696829     -1076.0416190587  1.61E+00
   120 Broy./Diag. 0.40E+00   23.1     1.68607131     -1077.0804054947 -1.04E+00
   121 Broy./Diag. 0.40E+00   23.5     1.71078918     -1077.5774643956 -4.97E-01
   122 Broy./Diag. 0.40E+00   24.3     0.37090545     -1076.2772050389  1.30E+00
   123 Broy./Diag. 0.40E+00   23.8     1.37775270     -1075.7278692140  5.49E-01
   124 Broy./Diag. 0.40E+00   23.4     1.46986664     -1077.6692875723 -1.94E+00
   125 Broy./Diag. 0.40E+00   23.3     1.65539814     -1077.6912372635 -2.19E-02
   126 Broy./Diag. 0.40E+00   22.0     1.70830391     -1077.5793243357  1.12E-01
   127 Broy./Diag. 0.40E+00   22.4     0.92514650     -1077.3565387415  2.23E-01
   128 Broy./Diag. 0.40E+00   23.8     1.69337602     -1075.7542689695  1.60E+00
   129 Broy./Diag. 0.40E+00   22.5     1.70151458     -1077.6230374749 -1.87E+00
   130 Broy./Diag. 0.40E+00   23.8     1.09910333     -1076.3464581533  1.28E+00
   131 Broy./Diag. 0.40E+00   23.9     1.10684222     -1077.6227219281 -1.28E+00
   132 Broy./Diag. 0.40E+00   23.3     0.43499842     -1075.8708695710  1.75E+00
   133 Broy./Diag. 0.40E+00   23.1     0.38017458     -1076.5843193852 -7.13E-01
   134 Broy./Diag. 0.40E+00   23.4     1.69411779     -1075.9599941684  6.24E-01
   135 Broy./Diag. 0.40E+00   24.5     1.72450707     -1077.7431597380 -1.78E+00
   136 Broy./Diag. 0.40E+00   24.4     1.75303930     -1077.7989305815 -5.58E-02
   137 Broy./Diag. 0.40E+00   24.9     1.72999476     -1078.7168535062 -9.18E-01
   138 Broy./Diag. 0.40E+00   24.3     1.70837414     -1077.2945376490  1.42E+00
   139 Broy./Diag. 0.40E+00   23.0     1.78053037     -1077.0543866607  2.40E-01
   140 Broy./Diag. 0.40E+00   23.5     1.16847660     -1075.3656699452  1.69E+00
   141 Broy./Diag. 0.40E+00   23.9     1.22211417     -1077.5173662392 -2.15E+00
   142 Broy./Diag. 0.40E+00   23.7     1.41363647     -1076.1616761652  1.36E+00
   143 Broy./Diag. 0.40E+00   24.3     1.43558869     -1077.4948624139 -1.33E+00
   144 Broy./Diag. 0.40E+00   24.5     1.69287553     -1077.4542309376  4.06E-02
   145 Broy./Diag. 0.40E+00   23.7     1.72737705     -1077.5909604798 -1.37E-01
   146 Broy./Diag. 0.40E+00   24.3     0.60697218     -1076.3552792921  1.24E+00
   147 Broy./Diag. 0.40E+00   24.9     1.06873491     -1075.7639441499  5.91E-01
   148 Broy./Diag. 0.40E+00   24.0     1.66094798     -1077.6705998881 -1.91E+00
   149 Broy./Diag. 0.40E+00   23.2     1.69055124     -1077.6762475624 -5.65E-03
   150 Broy./Diag. 0.40E+00   23.8     1.09416759     -1076.2139331118  1.46E+00
   151 Broy./Diag. 0.40E+00   24.3     1.08974435     -1077.5929942990 -1.38E+00
   152 Broy./Diag. 0.40E+00   24.3     1.72805275     -1076.2496648620  1.34E+00
   153 Broy./Diag. 0.40E+00   23.9     1.74376925     -1077.6886219693 -1.44E+00
   154 Broy./Diag. 0.40E+00   24.4     1.70601149     -1077.6238828521  6.47E-02
   155 Broy./Diag. 0.40E+00   24.0     1.73108507     -1077.5382959856  8.56E-02
   156 Broy./Diag. 0.40E+00   24.0     1.50800306     -1075.7537544565  1.78E+00
   157 Broy./Diag. 0.40E+00   24.3     1.51729831     -1077.8556844294 -2.10E+00
   158 Broy./Diag. 0.40E+00   23.5     1.34049344     -1077.3428955208  5.13E-01
   159 Broy./Diag. 0.40E+00   24.6     1.46995494     -1075.7727738590  1.57E+00
   160 Broy./Diag. 0.40E+00   24.7     1.48526997     -1077.5841485098 -1.81E+00
   161 Broy./Diag. 0.40E+00   22.4     1.12075621     -1077.5573483881  2.68E-02
   162 Broy./Diag. 0.40E+00   24.0     1.67113772     -1076.0416010669  1.52E+00
   163 Broy./Diag. 0.40E+00   24.6     1.68155522     -1077.7131114244 -1.67E+00
   164 Broy./Diag. 0.40E+00   22.5     1.15427372     -1075.9155595690  1.80E+00
   165 Broy./Diag. 0.40E+00   25.3     1.17109014     -1077.6871692111 -1.77E+00
   166 Broy./Diag. 0.40E+00   24.3     1.37007917     -1076.6676406697  1.02E+00
   167 Broy./Diag. 0.40E+00   24.5     1.41728039     -1077.6883474058 -1.02E+00
   168 Broy./Diag. 0.40E+00   25.7     1.41720176     -1075.8417133331  1.85E+00
   169 Broy./Diag. 0.40E+00   24.8     1.47507730     -1077.6473335266 -1.81E+00
   170 Broy./Diag. 0.40E+00   24.1     1.50701674     -1077.6166020561  3.07E-02
   171 Broy./Diag. 0.40E+00   24.5     1.30866697     -1077.5534662982  6.31E-02
   172 Broy./Diag. 0.40E+00   24.3     1.32092452     -1076.9038987653  6.50E-01
   173 Broy./Diag. 0.40E+00   22.9     1.69296100     -1075.8235762416  1.08E+00
   174 Broy./Diag. 0.40E+00   23.9     1.70337289     -1077.7039499699 -1.88E+00
   175 Broy./Diag. 0.40E+00   24.4     0.62891202     -1076.4712247040  1.23E+00
   176 Broy./Diag. 0.40E+00   24.2     0.14194889     -1075.8066899677  6.65E-01
   177 Broy./Diag. 0.40E+00   23.9     0.07935246     -1076.0451941000 -2.39E-01
   178 Broy./Diag. 0.40E+00   24.5     0.01298940     -1076.1488287260 -1.04E-01
   179 Broy./Diag. 0.40E+00   25.6     1.72388790     -1076.1612114385 -1.24E-02
   180 Broy./Diag. 0.40E+00   24.5     1.73920157     -1077.7036540133 -1.54E+00
   181 Broy./Diag. 0.40E+00   24.7     1.69248443     -1077.6979786559  5.68E-03
   182 Broy./Diag. 0.40E+00   24.6     1.41805447     -1077.4538943446  2.44E-01
   183 Broy./Diag. 0.40E+00   24.6     1.46108681     -1077.7165241967 -2.63E-01
   184 Broy./Diag. 0.40E+00   24.5     1.69395973     -1076.0055986759  1.71E+00
   185 Broy./Diag. 0.40E+00   24.6     1.71206228     -1077.5094480550 -1.50E+00
   186 Broy./Diag. 0.40E+00   24.7     1.11300401     -1077.4124598841  9.70E-02
   187 Broy./Diag. 0.40E+00   24.8     1.12121126     -1077.5472438602 -1.35E-01
   188 Broy./Diag. 0.40E+00   24.6     0.22664655     -1076.0392271871  1.51E+00
   189 Broy./Diag. 0.40E+00   24.6     0.36838376     -1075.8407636360  1.98E-01
   190 Broy./Diag. 0.40E+00   24.5     0.29654205     -1076.5141452180 -6.73E-01
   191 Broy./Diag. 0.40E+00   24.7     0.09102671     -1075.9291387553  5.85E-01
   192 Broy./Diag. 0.40E+00   24.9     1.72461339     -1076.1627503012 -2.34E-01
   193 Broy./Diag. 0.40E+00   24.7     1.73798173     -1077.7109031526 -1.55E+00
   194 Broy./Diag. 0.40E+00   24.6     1.70140863     -1077.6609645888  4.99E-02
   195 Broy./Diag. 0.40E+00   24.9     1.74091851     -1077.5835857666  7.74E-02
   196 Broy./Diag. 0.40E+00   24.4     1.74966207     -1078.4459936280 -8.62E-01
   197 Broy./Diag. 0.40E+00   24.8     1.47655867     -1077.1785801212  1.27E+00
   198 Broy./Diag. 0.40E+00   24.4     1.67775017     -1075.3363737786  1.84E+00
   199 Broy./Diag. 0.40E+00   24.2     1.70803123     -1077.8551979797 -2.52E+00
   200 Broy./Diag. 0.40E+00   24.2     1.08400969     -1076.2966119051  1.56E+00
   201 Broy./Diag. 0.40E+00   24.3     1.11189473     -1077.4532550829 -1.16E+00
   202 Broy./Diag. 0.40E+00   24.0     0.92774505     -1077.3923356714  6.09E-02
   203 Broy./Diag. 0.40E+00   23.7     1.67169699     -1075.9096075673  1.48E+00
   204 Broy./Diag. 0.40E+00   24.6     1.72354949     -1077.6738583388 -1.76E+00
   205 Broy./Diag. 0.40E+00   24.8     1.75188005     -1077.6677914521  6.07E-03
   206 Broy./Diag. 0.40E+00   24.0     1.58864378     -1077.5555987146  1.12E-01
   207 Broy./Diag. 0.40E+00   23.7     0.35325958     -1076.2446523186  1.31E+00
   208 Broy./Diag. 0.40E+00   23.7     0.59248392     -1075.6857556146  5.59E-01
   209 Broy./Diag. 0.40E+00   24.0     1.47023850     -1076.6241945351 -9.38E-01
   210 Broy./Diag. 0.40E+00   23.9     1.48564435     -1077.7044733567 -1.08E+00
   211 Broy./Diag. 0.40E+00   25.2     1.12392501     -1077.6822147984  2.23E-02
   212 Broy./Diag. 0.40E+00   24.1     0.55818331     -1075.9566501303  1.73E+00
   213 Broy./Diag. 0.40E+00   23.5     1.69368484     -1076.5774872792 -6.21E-01
   214 Broy./Diag. 0.40E+00   24.4     1.70420626     -1077.7713810575 -1.19E+00
   215 Broy./Diag. 0.40E+00   24.7     1.22127689     -1076.2602178855  1.51E+00
   216 Broy./Diag. 0.40E+00   22.7     1.42220920     -1077.4974217441 -1.24E+00
   217 Broy./Diag. 0.40E+00   24.0     1.44175084     -1077.4848501977  1.26E-02
   218 Broy./Diag. 0.40E+00   24.4     1.66979957     -1075.8130972403  1.67E+00
   219 Broy./Diag. 0.40E+00   22.4     1.67816015     -1077.8901041910 -2.08E+00
   220 Broy./Diag. 0.40E+00   24.3     1.69141967     -1077.6781928610  2.12E-01
   221 Broy./Diag. 0.40E+00   24.1     1.70940419     -1077.3321044174  3.46E-01
   222 Broy./Diag. 0.40E+00   24.1     1.48976865     -1075.7375451710  1.59E+00
   223 Broy./Diag. 0.40E+00   24.4     1.49361183     -1078.0203327333 -2.28E+00
   224 Broy./Diag. 0.40E+00   24.1     1.68712528     -1077.4949650448  5.25E-01
   225 Broy./Diag. 0.40E+00   24.7     1.72245163     -1077.6328771122 -1.38E-01
   226 Broy./Diag. 0.40E+00   22.4     1.08465521     -1075.8214677697  1.81E+00
   227 Broy./Diag. 0.40E+00   24.0     1.10711865     -1077.3714050171 -1.55E+00
   228 Broy./Diag. 0.40E+00   24.1     1.73662008     -1076.0414505201  1.33E+00
   229 Broy./Diag. 0.40E+00   24.4     1.74238095     -1077.6958542577 -1.65E+00
   230 Broy./Diag. 0.40E+00   25.0     1.25796952     -1077.6758563081  2.00E-02
   231 Broy./Diag. 0.40E+00   24.0     1.66211946     -1075.8896990880  1.79E+00
   232 Broy./Diag. 0.40E+00   24.0     1.67835695     -1077.5895150034 -1.70E+00
   233 Broy./Diag. 0.40E+00   24.5     1.41602892     -1076.2630761091  1.33E+00
   234 Broy./Diag. 0.40E+00   22.8     1.70107541     -1077.4404398952 -1.18E+00
   235 Broy./Diag. 0.40E+00   22.7     1.72367378     -1077.4392087527  1.23E-03
   236 Broy./Diag. 0.40E+00   23.8     1.39192695     -1075.7716013252  1.67E+00
   237 Broy./Diag. 0.40E+00   24.1     1.39780430     -1078.0499949387 -2.28E+00
   238 Broy./Diag. 0.40E+00   24.1     1.27629620     -1077.7511437123  2.99E-01
   239 Broy./Diag. 0.40E+00   24.8     0.84657875     -1076.6501192605  1.10E+00
   240 Broy./Diag. 0.40E+00   24.5     0.15319780     -1075.8106298212  8.39E-01
   241 Broy./Diag. 0.40E+00   24.7     1.08208066     -1075.9463116022 -1.36E-01
   242 Broy./Diag. 0.40E+00   24.5     1.65969219     -1077.6274987899 -1.68E+00
   243 Broy./Diag. 0.40E+00   24.4     1.68919117     -1077.5719231148  5.56E-02
   244 Broy./Diag. 0.40E+00   25.2     1.70832392     -1075.9743690947  1.60E+00
   245 Broy./Diag. 0.40E+00   24.3     1.72395596     -1077.6189641491 -1.64E+00
   246 Broy./Diag. 0.40E+00   24.5     1.41965488     -1076.0777926305  1.54E+00
   247 Broy./Diag. 0.40E+00   23.0     1.72603643     -1077.6692336442 -1.59E+00
   248 Broy./Diag. 0.40E+00   24.3     1.74296058     -1078.8010409911 -1.13E+00
   249 Broy./Diag. 0.40E+00   23.2     1.73230616     -1077.1280812789  1.67E+00
   250 Broy./Diag. 0.40E+00   24.3     1.78897862     -1077.0269956400  1.01E-01
   251 Broy./Diag. 0.40E+00   23.8     1.69958550     -1075.2966027525  1.73E+00
   252 Broy./Diag. 0.40E+00   24.9     1.72501724     -1077.7445654920 -2.45E+00
   253 Broy./Diag. 0.40E+00   24.3     1.14063035     -1077.6254467042  1.19E-01
   254 Broy./Diag. 0.40E+00   23.3     1.11153809     -1076.7974344558  8.28E-01
   255 Broy./Diag. 0.40E+00   23.9     1.06218013     -1076.0165192092  7.81E-01
   256 Broy./Diag. 0.40E+00   24.1     0.91278297     -1077.2734952785 -1.26E+00
   257 Broy./Diag. 0.40E+00   24.4     0.23208684     -1076.2113989261  1.06E+00
   258 Broy./Diag. 0.40E+00   24.5     0.23245653     -1075.8932194146  3.18E-01
   259 Broy./Diag. 0.40E+00   22.6     1.66414136     -1076.2351284056 -3.42E-01
   260 Broy./Diag. 0.40E+00   22.3     1.67641196     -1077.7104050513 -1.48E+00
   261 Broy./Diag. 0.40E+00   24.2     1.70388447     -1077.7143457397 -3.94E-03
   262 Broy./Diag. 0.40E+00   25.1     1.73688411     -1077.6739071107  4.04E-02
   263 Broy./Diag. 0.40E+00   23.5     0.39740207     -1076.2538320514  1.42E+00
   264 Broy./Diag. 0.40E+00   24.8     1.26190312     -1075.9020221980  3.52E-01
   265 Broy./Diag. 0.40E+00   24.5     1.32488728     -1077.4922614768 -1.59E+00
   266 Broy./Diag. 0.40E+00   24.7     1.16613824     -1077.7655727242 -2.73E-01
   267 Broy./Diag. 0.40E+00   24.4     1.13255701     -1077.4634366145  3.02E-01
   268 Broy./Diag. 0.40E+00   23.4     1.52614844     -1075.9259612932  1.54E+00
   269 Broy./Diag. 0.40E+00   23.8     1.51050757     -1077.4501797260 -1.52E+00
   270 Broy./Diag. 0.40E+00   24.6     1.65849929     -1075.9865881221  1.46E+00
   271 Broy./Diag. 0.40E+00   24.3     1.67787724     -1077.7033000647 -1.72E+00
   272 Broy./Diag. 0.40E+00   23.5     1.44669521     -1077.7982626928 -9.50E-02
   273 Broy./Diag. 0.40E+00   24.6     1.68846408     -1076.2575041642  1.54E+00
   274 Broy./Diag. 0.40E+00   24.7     1.70886744     -1077.4061993715 -1.15E+00
   275 Broy./Diag. 0.40E+00   24.3     1.09465401     -1075.7007049262  1.71E+00
   276 Broy./Diag. 0.40E+00   24.5     1.11946662     -1077.8623734671 -2.16E+00
   277 Broy./Diag. 0.40E+00   24.4     0.95350288     -1077.6556565094  2.07E-01
   278 Broy./Diag. 0.40E+00   24.6     1.69270712     -1076.2292413066  1.43E+00
   279 Broy./Diag. 0.40E+00   23.0     1.70306660     -1077.5683122128 -1.34E+00
   280 Broy./Diag. 0.40E+00   22.7     1.67207658     -1076.0526641951  1.52E+00
   281 Broy./Diag. 0.40E+00   24.5     1.67983209     -1077.5628424511 -1.51E+00
   282 Broy./Diag. 0.40E+00   25.1     1.45561981     -1077.5534991105  9.34E-03
   283 Broy./Diag. 0.40E+00   24.6     1.30350046     -1076.9609310754  5.93E-01
   284 Broy./Diag. 0.40E+00   22.8     1.30842935     -1075.8266965110  1.13E+00
   285 Broy./Diag. 0.40E+00   24.1     1.33498236     -1077.6134950161 -1.79E+00
   286 Broy./Diag. 0.40E+00   24.1     1.72560859     -1076.0268295526  1.59E+00
   287 Broy./Diag. 0.40E+00   24.2     1.73624698     -1077.4877988669 -1.46E+00
   288 Broy./Diag. 0.40E+00   24.6     1.71397318     -1077.4028198391  8.50E-02
   289 Broy./Diag. 0.40E+00   22.9     1.72804255     -1077.3213859575  8.14E-02
   290 Broy./Diag. 0.40E+00   24.3     0.33442229     -1076.0548762344  1.27E+00
   291 Broy./Diag. 0.40E+00   24.1     1.06189273     -1075.9430839776  1.12E-01
   292 Broy./Diag. 0.40E+00   24.0     1.41221813     -1077.6703228938 -1.73E+00
   293 Broy./Diag. 0.40E+00   24.1     1.36350719     -1077.6213726829  4.90E-02
   294 Broy./Diag. 0.40E+00   24.5     1.66448189     -1075.9748114690  1.65E+00
   295 Broy./Diag. 0.40E+00   24.6     1.67584747     -1077.7648285976 -1.79E+00
   296 Broy./Diag. 0.40E+00   24.5     0.63197388     -1076.6386185511  1.13E+00
   297 Broy./Diag. 0.40E+00   24.7     1.37537848     -1075.7300730431  9.09E-01
   298 Broy./Diag. 0.40E+00   25.2     1.70815129     -1077.8687012574 -2.14E+00
   299 Broy./Diag. 0.40E+00   25.3     1.72781244     -1077.8490817719  1.96E-02
   300 Broy./Diag. 0.40E+00   23.4     0.44545743     -1076.3257143972  1.52E+00

  Leaving inner SCF loop after reaching   300 steps.


  Electronic density on regular grids:       -511.9994333648        0.0005666352
  Core density on regular grids:              511.9994786057       -0.0005213943
  Total charge density on r-space grids:        0.0000452409
  Total charge density g-space grids:           0.0000452409

  Overlap energy of the core charge distribution:               0.00000000000000
  Self energy of the core charge distribution:              -2838.21791979120962
  Core Hamiltonian energy:                                    759.85121596878969
  Hartree energy:                                            1240.83360081644105
  Exchange-correlation energy:                               -238.79261139121525

  Total energy:                                             -1076.32571439719413

 *** WARNING in qs_scf.F:542 :: SCF run NOT converged ***


 ENERGY| Total FORCE_EVAL ( QS ) energy (a.u.):            -1076.347416730316809


 ATOMIC FORCES in [a.u.]

 # Atom   Kind   Element          X              Y              Z
      1      1      O          -0.07792705    -0.05073589    -0.02964145
      2      2      H           0.07030689    -0.03460352    -0.02698799
      3      2      H          -0.01490564     0.07489376    -0.00312830
      4      1      O          -0.09668180     0.00041620    -0.03909461
      5      2      H           0.04820393    -0.02429268     0.06006233
      6      2      H           0.00959018     0.10207135     0.05769894
      7      1      O          -0.07714618    -0.02444118    -0.08260002
      8      2      H          -0.00527836    -0.04635854     0.10885705
      9      2      H           0.06241100     0.05199607    -0.04560509
     10      1      O          -0.05848833    -0.01247329     0.03388960
     11      2      H           0.05923725     0.06926026    -0.03385526
     12      2      H           0.02110583    -0.03506863     0.03145453
     13      1      O          -0.02221746    -0.12741524     0.13224308
     14      2      H          -0.03855799     0.08475821     0.04060543
     15      2      H           0.04881235    -0.00538911    -0.05140272
     16      1      O          -0.06161815     0.03950554     0.14860937
     17      2      H           0.08636943    -0.01435813    -0.02798912
     18      2      H          -0.03378112    -0.00826835    -0.03669849
     19      1      O           0.07081561     0.06351287     0.09488725
     20      2      H          -0.03632276    -0.00215421    -0.10481398
     21      2      H          -0.05800061     0.05324690     0.01396368
     22      1      O           0.03923574    -0.11453605    -0.10955621
     23      2      H          -0.02572201     0.08951835    -0.05783257
     24      2      H          -0.02732520    -0.02973602     0.10047310
     25      1      O          -0.05615080    -0.03102609     0.13086179
     26      2      H           0.05005065     0.09744060    -0.02653452
     27      2      H          -0.02458354    -0.01617416    -0.11039176
     28      1      O          -0.01550314    -0.03294181    -0.00508072
     29      2      H           0.01669257     0.00050297    -0.04671116
     30      2      H          -0.00246715     0.09195727     0.06717323
     31      1      O          -0.02962083    -0.00666281     0.00723546
     32      2      H           0.01628715     0.06295452    -0.09465734
     33      2      H          -0.02229610    -0.03672047     0.00725642
     34      1      O           0.02991343     0.11167217    -0.03539101
     35      2      H          -0.01760209     0.02005888    -0.07601041
     36      2      H          -0.02124421    -0.02205787     0.06074988
     37      1      O           0.00933427    -0.01114306     0.09362682
     38      2      H           0.02449469     0.03911302    -0.07727841
     39      2      H          -0.03064545     0.08268787    -0.00243627
     40      1      O           0.05133199     0.09262000     0.01627136
     41      2      H          -0.06206880    -0.03616440     0.03230060
     42      2      H           0.00836439    -0.02938952    -0.09058379
     43      1      O          -0.05258522     0.00268411    -0.00737486
     44      2      H          -0.00099667    -0.00353159    -0.03530425
     45      2      H           0.04343947    -0.01213452     0.07081503
     46      1      O          -0.01158631     0.09537771     0.07455066
     47      2      H           0.07118432    -0.03602537    -0.04207836
     48      2      H          -0.05555651    -0.01801345    -0.00535771
     49      1      O           0.07608283     0.01585245     0.06515115
     50      2      H          -0.04286229    -0.08140122    -0.04008097
     51      2      H          -0.02974326     0.08334185     0.01332235
     52      1      O          -0.01153885    -0.08440110    -0.09805125
     53      2      H           0.02323354     0.09698312    -0.01396876
     54      2      H           0.00085839    -0.01130823     0.10468749
     55      1      O          -0.04098455    -0.05354503     0.14700227
     56      2      H          -0.03222842     0.04530360     0.00941373
     57      2      H           0.07488833    -0.03313403    -0.01429242
     58      1      O          -0.00042449    -0.09356652     0.02383245
     59      2      H          -0.08940090     0.01441870    -0.02341492
     60      2      H           0.06217616     0.04350703    -0.03690625
     61      1      O          -0.09538158     0.03861619    -0.04431706
     62      2      H           0.02438675    -0.07158915    -0.04401366
     63      2      H           0.02557912     0.05145445    -0.00138194
     64      1      O          -0.04811590    -0.00495532     0.12411978
     65      2      H          -0.05631259    -0.01424600    -0.01713945
     66      2      H           0.08227760    -0.00088549    -0.03595270
     67      1      O           0.11418893     0.09701525     0.03925017
     68      2      H          -0.04012645    -0.05454150     0.08178970
     69      2      H          -0.04283122     0.03828968    -0.07603504
     70      1      O           0.01873252     0.12943477     0.07697246
     71      2      H           0.00452247    -0.04006553     0.03453159
     72      2      H          -0.03681916    -0.01366709    -0.03868824
     73      1      O           0.02668853    -0.03087239     0.01635761
     74      2      H           0.03365429     0.04144947    -0.04104683
     75      2      H          -0.09129524     0.03103506     0.00740066
     76      1      O          -0.07957773    -0.04976077    -0.11059174
     77      2      H           0.04005656    -0.09074882    -0.01044568
     78      2      H           0.02024996     0.09567737    -0.02917108
     79      1      O           0.08658704    -0.08016367     0.10908959
     80      2      H           0.00655097     0.04332011    -0.02801616
     81      2      H          -0.09247308     0.02227067     0.00778888
     82      1      O          -0.05836592     0.05981883    -0.12056520
     83      2      H           0.00062049    -0.03765749     0.05525162
     84      2      H           0.07901444     0.01658864     0.00598509
     85      1      O           0.04433876     0.01443078     0.11575656
     86      2      H          -0.09083526     0.00093131     0.00171573
     87      2      H          -0.00006228    -0.07320700    -0.04778657
     88      1      O           0.04878194     0.13753713    -0.06808038
     89      2      H          -0.08063365    -0.03338946    -0.00125559
     90      2      H           0.05397173    -0.09158542    -0.02471862
     91      1      O          -0.04534271     0.11915956     0.13359727
     92      2      H          -0.00921679    -0.04841604    -0.02070161
     93      2      H           0.06858500     0.03703258     0.03629646
     94      1      O           0.00486044     0.05126743    -0.14274863
     95      2      H          -0.02728177    -0.05868300     0.00703811
     96      2      H          -0.00698133    -0.00923678     0.05766774
     97      1      O          -0.01964124    -0.01385022     0.00003922
     98      2      H          -0.00896167     0.10298503     0.04430750
     99      2      H          -0.00228562    -0.00731786    -0.03692893
    100      1      O          -0.09383952    -0.01938750     0.08712681
    101      2      H           0.01038272    -0.09653748     0.06910411
    102      2      H           0.05909136     0.01052990    -0.01940458
    103      1      O           0.04694100     0.00040738     0.12804740
    104      2      H          -0.00152476    -0.09196666     0.03040667
    105      2      H          -0.02867805     0.03544524    -0.02213735
    106      1      O           0.04980073     0.09387556     0.05774283
    107      2      H          -0.06169460     0.02648553     0.01832908
    108      2      H           0.01070693    -0.04681700     0.02259486
    109      1      O           0.00861249     0.09870690    -0.00763035
    110      2      H           0.01435707     0.01482501    -0.08289055
    111      2      H           0.00896550    -0.04443064    -0.03346593
    112      1      O          -0.02531133    -0.11705918     0.09050625
    113      2      H           0.05080263     0.05343276     0.01079671
    114      2      H          -0.04348163     0.03247047     0.04817432
    115      1      O           0.02910087     0.00409693    -0.01607957
    116      2      H           0.07430389    -0.06553088     0.02167660
    117      2      H          -0.06906160    -0.07392584     0.00560306
    118      1      O          -0.06516610     0.02562752    -0.03907575
    119      2      H           0.06512526    -0.02591770     0.05746231
    120      2      H          -0.00050607     0.06315935    -0.05762903
    121      1      O           0.04150650     0.02286155     0.03542354
    122      2      H          -0.09259378     0.02518040    -0.04781324
    123      2      H           0.05206583    -0.03492384    -0.04584086
    124      1      O          -0.07684580    -0.02795776    -0.03710903
    125      2      H           0.01273881     0.01481430     0.10009696
    126      2      H           0.06733939    -0.03080573    -0.02168971
    127      1      O          -0.05817849     0.06682093     0.14903070
    128      2      H           0.06228033     0.06076028    -0.01114721
    129      2      H          -0.03673390    -0.04919616    -0.06769684
    130      1      O           0.09669377     0.04034494     0.05993100
    131      2      H          -0.03316356    -0.01818100    -0.10576314
    132      2      H          -0.04390212     0.03853820    -0.00889409
    133      1      O          -0.07387358    -0.13790585    -0.00417493
    134      2      H           0.03482882     0.00615075    -0.07151031
    135      2      H           0.01473959     0.03650780     0.02228920
    136      1      O           0.00778080     0.10664197    -0.12830468
    137      2      H          -0.07395914    -0.03895648     0.03910486
    138      2      H           0.06221529     0.01798093     0.01286155
    139      1      O          -0.02906311     0.03860791     0.03208461
    140      2      H          -0.03380447    -0.05621699    -0.08729720
    141      2      H           0.04023901     0.09388677     0.00237561
    142      1      O           0.06984112    -0.11159117     0.04609142
    143      2      H           0.00266288     0.08812221     0.04959435
    144      2      H          -0.06923670     0.00362514    -0.03858499
    145      1      O           0.05387177     0.00538845    -0.07138235
    146      2      H          -0.01373314    -0.08969269     0.04337201
    147      2      H          -0.03911062     0.06602378     0.01824660
    148      1      O          -0.08939388    -0.05215229    -0.03391910
    149      2      H           0.04525752    -0.03751312    -0.05948285
    150      2      H           0.03322883     0.03414859     0.03666804
    151      1      O          -0.04239534     0.00050683    -0.10260189
    152      2      H          -0.00222202    -0.05589910     0.11953330
    153      2      H           0.04283890    -0.01652564    -0.09998841
    154      1      O          -0.06833546    -0.02382377    -0.08558900
    155      2      H           0.00096009    -0.06863658    -0.02348876
    156      2      H           0.06324643     0.06720710    -0.00475732
    157      1      O           0.06125994     0.01868417    -0.04600139
    158      2      H          -0.00352615    -0.08636774     0.02573760
    159      2      H          -0.04086483    -0.01477344    -0.02912094
    160      1      O           0.05686255    -0.02075615    -0.05657751
    161      2      H           0.00385487    -0.06648607     0.02841044
    162      2      H          -0.02174985     0.02896393     0.07280804
    163      1      O          -0.04378742     0.10442342    -0.03400319
    164      2      H           0.06002423     0.02554532     0.00048976
    165      2      H          -0.05595365    -0.05442282    -0.00462270
    166      1      O          -0.09683655    -0.08614601     0.10227286
    167      2      H           0.00722440     0.03173320     0.08952373
    168      2      H           0.04965254    -0.01766322    -0.04591188
    169      1      O           0.01407478    -0.01237431    -0.17051501
    170      2      H          -0.05509215    -0.04660522     0.00857394
    171      2      H           0.07176398    -0.02122959     0.02533854
    172      1      O           0.00307942    -0.11368682     0.05225041
    173      2      H           0.04013358    -0.00700862     0.08482370
    174      2      H           0.00708841     0.04327866    -0.01432842
    175      1      O          -0.07337497     0.09328377     0.04412747
    176      2      H           0.06725379     0.03712252     0.01120970
    177      2      H           0.00724381    -0.05757981     0.05141039
    178      1      O          -0.00325065     0.05850391    -0.00243685
    179      2      H           0.06672216    -0.01715421     0.08163207
    180      2      H          -0.08208527    -0.02121904     0.04624575
    181      1      O          -0.03346752     0.07463315     0.15395875
    182      2      H          -0.00150298    -0.07996842     0.00276470
    183      2      H           0.03324260     0.05491651    -0.08694297
    184      1      O          -0.04808333     0.09742949     0.17021578
    185      2      H          -0.01174147    -0.04372563    -0.08446050
    186      2      H           0.05495873     0.03803078    -0.00362168
    187      1      O           0.02221310    -0.13496602    -0.03885589
    188      2      H          -0.05444740     0.04536628    -0.03538803
    189      2      H           0.04327749     0.03139986     0.09311381
    190      1      O           0.06927993     0.04116083    -0.07623211
    191      2      H          -0.06835450     0.00819703    -0.01681066
    192      2      H          -0.03360909     0.07309900     0.07088483
 SUM OF ATOMIC FORCES          -0.38033568     0.61522767     0.68014296     0.99285183

 -------------------------------------------------------------------------------
 -                                                                             -
 -                                DBCSR STATISTICS                             -
 -                                                                             -
 -------------------------------------------------------------------------------
 COUNTER                                    TOTAL       BLAS       SMM       ACC
 flops     5 x     5 x   256           3729510400       0.0%    100.0%      0.0%
 flops    13 x     5 x   256           4567879680       0.0%    100.0%      0.0%
 flops     5 x    13 x   256           4567879680       0.0%    100.0%      0.0%
 flops    13 x    13 x   256           6485187072       0.0%    100.0%      0.0%
 flops inhomo. stacks                           0       0.0%      0.0%      0.0%
 flops total                        19.350457E+09       0.0%    100.0%      0.0%
 flops max/rank                     19.350457E+09       0.0%    100.0%      0.0%
 matmuls inhomo. stacks                         0       0.0%      0.0%      0.0%
 matmuls total                             640829       0.0%    100.0%      0.0%
 number of processed stacks                 42140       0.0%    100.0%      0.0%
 average stack size                                     0.0      15.2       0.0
 marketing flops                   333.927416E+09
 -------------------------------------------------------------------------------
 # multiplications                            301
 max memory usage/rank              30.522335E+09
 # max total images/rank                        1
 # max 3D layers                                1
 # MPI messages exchanged                       0
 MPI messages size (bytes):
  total size                         0.000000E+00
  min size                           0.000000E+00
  max size                           0.000000E+00
  average size                       0.000000E+00
 MPI breakdown and total messages size (bytes):
             size <=      128                   0                        0
       128 < size <=     8192                   0                        0
      8192 < size <=    32768                   0                        0
     32768 < size <=   131072                   0                        0
    131072 < size <=  4194304                   0                        0
   4194304 < size <= 16777216                   0                        0
  16777216 < size                               0                        0
 -------------------------------------------------------------------------------

 MEMORY| Estimated peak process memory [MiB]                               29103

 -------------------------------------------------------------------------------
 -                                                                             -
 -                           R E F E R E N C E S                               -
 -                                                                             -
 -------------------------------------------------------------------------------
 
 CP2K version 7.1, the CP2K developers group (2019).
 CP2K is freely available from https://www.cp2k.org/ .

 Schuett, Ole; Messmer, Peter; Hutter, Juerg; VandeVondele, Joost. 
 Electronic Structure Calculations on Graphics Processing Units, John
 Wiley & Sons, Ltd, 173-190 (2016). 
 GPU-Accelerated Sparse Matrix-Matrix Multiplication for
 Linear Scaling Density Functional Theory.
 https://dx.doi.org/10.1002/9781118670712.ch8

 Borstnik, U; VandeVondele, J; Weber, V; Hutter, J. 
 PARALLEL COMPUTING, 40 (5-6), 47-58 (2014). 
 Sparse matrix multiplication: The distributed block-compressed sparse
 row library.
 https://dx.doi.org/10.1016/j.parco.2014.03.012

 Hutter, J; Iannuzzi, M; Schiffmann, F; VandeVondele, J. 
 WIREs Comput Mol Sci., 4 (1), 15-25 (2014). 
 CP2K: atomistic simulations of condensed matter systems.
 https://dx.doi.org/10.1002/wcms.1159

 Krack, M. 
 THEORETICAL CHEMISTRY ACCOUNTS, 114 (1-3), 145-152 (2005). 
 Pseudopotentials for H to Kr optimized for gradient-corrected
 exchange-correlation functionals.
 https://dx.doi.org/10.1007/s00214-005-0655-y

 VandeVondele, J; Krack, M; Mohamed, F; Parrinello, M; Chassaing, T;
 Hutter, J. COMPUTER PHYSICS COMMUNICATIONS, 167 (2), 103-128 (2005). 
 QUICKSTEP: Fast and accurate density functional calculations using a
 mixed Gaussian and plane waves approach.
 https://dx.doi.org/10.1016/j.cpc.2004.12.014

 Frigo, M; Johnson, SG. 
 PROCEEDINGS OF THE IEEE, 93 (2), 216-231 (2005). 
 The design and implementation of FFTW3.
 https://dx.doi.org/10.1109/JPROC.2004.840301

 Hartwigsen, C; Goedecker, S; Hutter, J. 
 PHYSICAL REVIEW B, 58 (7), 3641-3662 (1998). 
 Relativistic separable dual-space Gaussian pseudopotentials from H to Rn.
 https://dx.doi.org/10.1103/PhysRevB.58.3641

 Lippert, G; Hutter, J; Parrinello, M. 
 MOLECULAR PHYSICS, 92 (3), 477-487 (1997). 
 A hybrid Gaussian and plane wave density functional scheme.
 https://dx.doi.org/10.1080/002689797170220

 Goedecker, S; Teter, M; Hutter, J. 
 PHYSICAL REVIEW B, 54 (3), 1703-1710 (1996). 
 Separable dual-space Gaussian pseudopotentials.
 https://dx.doi.org/10.1103/PhysRevB.54.1703


 -------------------------------------------------------------------------------
 -                                                                             -
 -                                T I M I N G                                  -
 -                                                                             -
 -------------------------------------------------------------------------------
 SUBROUTINE                       CALLS  ASD         SELF TIME        TOTAL TIME
                                MAXIMUM       AVERAGE  MAXIMUM  AVERAGE  MAXIMUM
 CP2K                                 1  1.0    1.061    1.061 7109.988 7109.988
 qs_forces                            1  2.0    0.000    0.000 7098.918 7098.918
 qs_energies                          1  3.0    0.000    0.000 7095.151 7095.151
 scf_env_do_scf                       1  4.0    0.001    0.001 7083.617 7083.617
 scf_env_do_scf_inner_loop          300  5.0    0.057    0.057 7083.617 7083.617
 gspace_mixing                      299  6.0   42.197   42.197 2955.620 2955.620
 broyden_mixing                     299  7.0 2671.671 2671.671 2671.674 2671.674
 qs_scf_new_mos                     300  6.0    0.009    0.009 1968.713 1968.713
 eigensolver                        300  7.0    0.034    0.034 1917.488 1917.488
 cp_fm_syevd                        300  8.0 1275.685 1275.685 1276.848 1276.848
 pw_transfer                       3912  9.9    0.380    0.380 1146.557 1146.557
 rebuild_ks_matrix                  301  7.0    0.001    0.001 1121.231 1121.231
 qs_ks_build_kohn_sham_matrix       301  8.0    0.090    0.090 1121.230 1121.230
 fft_wrap_pw1pw2                   3310 10.9    0.048    0.048 1118.428 1118.428
 qs_ks_update_qs_env                300  6.0    0.004    0.004 1117.858 1117.858
 qs_rho_update_rho                  301  6.0    0.003    0.003 1042.983 1042.983
 calculate_rho_elec                 301  7.0  510.921  510.921 1042.980 1042.980
 fft_wrap_pw1pw2_70                1504 11.2   87.658   87.658 1022.756 1022.756
 cp_fm_cholesky_restore             900  8.0  639.496  639.496  639.496  639.496
 fft3d_s                           3311 12.9  532.035  532.035  532.065  532.065
 density_rs2pw                      301  8.0    0.035    0.035  523.676  523.676
 pw_scatter_s                      1804 13.2  409.580  409.580  409.580  409.580
 pw_poisson_solve                   301  9.0  334.021  334.021  362.121  362.121
 sum_up_and_integrate               301  9.0   18.186   18.186  308.892  308.892
 integrate_v_rspace                 301 10.0    9.001    9.001  290.706  290.706
 potential_pw2rs                    301 11.0    2.539    2.539  270.509  270.509
 qs_vxc_create                      301  9.0    0.008    0.008  162.352  162.352
 xc_vxc_pw_create                   301 10.0   42.355   42.355  162.345  162.345
 -------------------------------------------------------------------------------

 The number of warnings for this run is : 1
 
 -------------------------------------------------------------------------------
  **** **** ******  **  PROGRAM ENDED AT                 2020-05-29 11:06:07.748
 ***** ** ***  *** **   PROGRAM RAN ON                                   gnode44
 **    ****   ******    PROGRAM RAN BY                               mayank.modi
 ***** **    ** ** **   PROGRAM PROCESS ID                                 30134
  **** **  *******  **  PROGRAM STOPPED IN /home/mayank.modi/ab-initio-thermodyn
                                           amics-of-water/mayank/cp2k_energy_cal
                                           culations
