 DBCSR| CPU Multiplication driver                                           XSMM
 DBCSR| Multrec recursion limit                                              512
 DBCSR| Multiplication stack size                                           1000
 DBCSR| Maximum elements for images                                    UNLIMITED
 DBCSR| Multiplicative factor virtual images                                   1
 DBCSR| Use multiplication densification                                       T
 DBCSR| Multiplication size stacks                                             3


  **** **** ******  **  PROGRAM STARTED AT               2020-05-29 23:09:39.720
 ***** ** ***  *** **   PROGRAM STARTED ON                               gnode44
 **    ****   ******    PROGRAM STARTED BY                           mayank.modi
 ***** **    ** ** **   PROGRAM PROCESS ID                                   535
  **** **  *******  **  PROGRAM STARTED IN /home/mayank.modi/ab-initio-thermodyn
                                           amics-of-water/mayank/cp2k_energy_cal
                                           culations

 CP2K| version string:                                          CP2K version 7.1
 CP2K| source code revision number:                                  git:e635599
 CP2K| cp2kflags: omp libint fftw3 libxc xsmm spglib                            
 CP2K| is freely available from                            https://www.cp2k.org/
 CP2K| Program compiled at                          Mon Dec 23 19:23:12 CET 2019
 CP2K| Program compiled on                                                pc9404
 CP2K| Program compiled for                                Linux-x86-64-gfortran
 CP2K| Data directory path                                        /opt/cp2k/data
 CP2K| Input file name                                 input_training/input40.in

 GLOBAL| Force Environment number                                              1
 GLOBAL| Basis set file name                                           BASIS_SET
 GLOBAL| Potential file name                                      GTH_POTENTIALS
 GLOBAL| MM Potential file name                                     MM_POTENTIAL
 GLOBAL| Coordinate file name                                      __STD_INPUT__
 GLOBAL| Method name                                                        CP2K
 GLOBAL| Project name                                                   H2O_bulk
 GLOBAL| Preferred FFT library                                             FFTW3
 GLOBAL| Preferred diagonalization lib.                                       SL
 GLOBAL| Run type                                                   ENERGY_FORCE
 GLOBAL| All-to-all communication in single precision                          F
 GLOBAL| FFTs using library dependent lengths                                  F
 GLOBAL| Global print level                                                  LOW
 GLOBAL| MPI I/O enabled                                                       T
 GLOBAL| Total number of message passing processes                             1
 GLOBAL| Number of threads for this process                                   36
 GLOBAL| This output is from process                                           0
 GLOBAL| CPU model name                Intel(R) Xeon(R) CPU E5-2640 v4 @ 2.40GHz
 GLOBAL| CPUID                                                              1002
 GLOBAL| Compiled for CPUID                                                    0

 MEMORY| system memory details [Kb]
 MEMORY|                        rank 0           min           max       average
 MEMORY| MemTotal            131893056     131893056     131893056     131893056
 MEMORY| MemFree             118775892     118775892     118775892     118775892
 MEMORY| Buffers               2127504       2127504       2127504       2127504
 MEMORY| Cached                3485752       3485752       3485752       3485752
 MEMORY| Slab                  3317988       3317988       3317988       3317988
 MEMORY| SReclaimable          3107088       3107088       3107088       3107088
 MEMORY| MemLikelyFree       127496236     127496236     127496236     127496236


 GENERATE|  Preliminary Number of Bonds generated:                             0
 GENERATE|  Achieved consistency in connectivity generation.

 *******************************************************************************
 *******************************************************************************
 **                                                                           **
 **     #####                         ##              ##                      **
 **    ##   ##            ##          ##              ##                      **
 **   ##     ##                       ##            ######                    **
 **   ##     ##  ##   ##  ##   #####  ##  ##   ####   ##    #####    #####    **
 **   ##     ##  ##   ##  ##  ##      ## ##   ##      ##   ##   ##  ##   ##   **
 **   ##  ## ##  ##   ##  ##  ##      ####     ###    ##   ######   ######    **
 **    ##  ###   ##   ##  ##  ##      ## ##      ##   ##   ##       ##        **
 **     #######   #####   ##   #####  ##  ##  ####    ##    #####   ##        **
 **           ##                                                    ##        **
 **                                                                           **
 **                                                ... make the atoms dance   **
 **                                                                           **
 **            Copyright (C) by CP2K developers group (2000 - 2019)           **
 **                                                                           **
 *******************************************************************************


 TOTAL NUMBERS AND MAXIMUM NUMBERS

  Total number of            - Atomic kinds:                                   2
                             - Atoms:                                        192
                             - Shell sets:                                   384
                             - Shells:                                       704
                             - Primitive Cartesian functions:                960
                             - Cartesian basis functions:                   1536
                             - Spherical basis functions:                   1472

  Maximum angular momentum of- Orbital basis functions:                        2
                             - Local part of the GTH pseudopotential:          2
                             - Non-local part of the GTH pseudopotential:      0


 SCF PARAMETERS         Density guess:                                    ATOMIC
                        --------------------------------------------------------
                        max_scf:                                             300
                        max_scf_history:                                       0
                        max_diis:                                              4
                        --------------------------------------------------------
                        eps_scf:                                        1.00E-07
                        eps_scf_history:                                0.00E+00
                        eps_diis:                                       1.00E-01
                        eps_eigval:                                     1.00E-05
                        --------------------------------------------------------
                        level_shift [a.u.]:                                 0.00
                        --------------------------------------------------------
                        Mixing method:                            BROYDEN_MIXING
                                                charge density mixing in g-space
                        --------------------------------------------------------
                        No outer SCF

 Number of electrons:                                                        512
 Number of occupied orbitals:                                                256
 Number of molecular orbitals:                                               256

 Number of orbital functions:                                               1472
 Number of independent orbital functions:                                   1472

 Extrapolation method: initial_guess


 SCF WAVEFUNCTION OPTIMIZATION

  Step     Update method      Time    Convergence         Total energy    Change
  ------------------------------------------------------------------------------
     1 NoMix/Diag. 0.40E+00   10.1     0.59147115     -1064.1707214682 -1.06E+03
     2 Broy./Diag. 0.40E+00   16.5     1.26132996      -997.4305268287  6.67E+01
     3 Broy./Diag. 0.40E+00   15.8     0.68962304     -1258.7830149161 -2.61E+02
     4 Broy./Diag. 0.40E+00   16.0     0.25766079     -1099.9436877719  1.59E+02
     5 Broy./Diag. 0.40E+00   18.2     0.53836254     -1104.1372352084 -4.19E+00
     6 Broy./Diag. 0.40E+00   18.8     0.27262668     -1077.5779441310  2.66E+01
     7 Broy./Diag. 0.40E+00   19.1     0.04347884     -1074.0125902815  3.57E+00
     8 Broy./Diag. 0.40E+00   19.2     0.04923043     -1078.5530934035 -4.54E+00
     9 Broy./Diag. 0.40E+00   22.1     0.02480789     -1077.3897028197  1.16E+00
    10 Broy./Diag. 0.40E+00   25.2     0.01272206     -1076.1164552667  1.27E+00
    11 Broy./Diag. 0.40E+00   24.1     0.01223934     -1076.4811286962 -3.65E-01
    12 Broy./Diag. 0.40E+00   24.1     0.00478683     -1076.4802816021  8.47E-04
    13 Broy./Diag. 0.40E+00   22.1     0.00306254     -1076.1892868481  2.91E-01
    14 Broy./Diag. 0.40E+00   23.6     0.00318322     -1076.1244324500  6.49E-02
    15 Broy./Diag. 0.40E+00   23.4     0.00222816     -1076.0869034092  3.75E-02
    16 Broy./Diag. 0.40E+00   23.7     0.00226371     -1076.1577290077 -7.08E-02
    17 Broy./Diag. 0.40E+00   25.5     1.54829098     -1076.2080040058 -5.03E-02
    18 Broy./Diag. 0.40E+00   24.1     1.55609732     -1077.8632262351 -1.66E+00
    19 Broy./Diag. 0.40E+00   24.4     1.55734937     -1076.2310329838  1.63E+00
    20 Broy./Diag. 0.40E+00   23.8     1.55226268     -1077.7428460312 -1.51E+00
    21 Broy./Diag. 0.40E+00   23.2     1.43503420     -1077.8322071944 -8.94E-02
    22 Broy./Diag. 0.40E+00   24.1     0.08414932     -1076.0700344721  1.76E+00
    23 Broy./Diag. 0.40E+00   24.1     0.03402020     -1076.2566909814 -1.87E-01
    24 Broy./Diag. 0.40E+00   23.7     0.00713354     -1076.2052372657  5.15E-02
    25 Broy./Diag. 0.40E+00   22.5     0.00224613     -1076.2081417005 -2.90E-03
    26 Broy./Diag. 0.40E+00   23.5     0.00100054     -1076.1659028747  4.22E-02
    27 Broy./Diag. 0.40E+00   23.8     0.00527935     -1076.2174495208 -5.15E-02
    28 Broy./Diag. 0.40E+00   24.2     0.00403187     -1076.1704883450  4.70E-02
    29 Broy./Diag. 0.40E+00   24.4     0.01465361     -1076.1975968280 -2.71E-02
    30 Broy./Diag. 0.40E+00   24.4     0.01149217     -1076.2513441308 -5.37E-02
    31 Broy./Diag. 0.40E+00   24.4     0.00485224     -1076.2255819813  2.58E-02
    32 Broy./Diag. 0.40E+00   24.3     1.54849319     -1076.1879845278  3.76E-02
    33 Broy./Diag. 0.40E+00   24.1     1.56272212     -1077.8515028902 -1.66E+00
    34 Broy./Diag. 0.40E+00   24.4     0.01184572     -1076.2063053146  1.65E+00
    35 Broy./Diag. 0.40E+00   24.5     0.00786084     -1076.1878890771  1.84E-02
    36 Broy./Diag. 0.40E+00   23.9     0.00437709     -1076.1286172174  5.93E-02
    37 Broy./Diag. 0.40E+00   22.7     0.00161273     -1076.2850292814 -1.56E-01
    38 Broy./Diag. 0.40E+00   22.3     0.00148059     -1076.2079978109  7.70E-02
    39 Broy./Diag. 0.40E+00   24.2     0.00156252     -1076.2154973978 -7.50E-03
    40 Broy./Diag. 0.40E+00   24.2     0.00119804     -1076.2143172417  1.18E-03
    41 Broy./Diag. 0.40E+00   23.9     0.00126287     -1076.2099450968  4.37E-03
    42 Broy./Diag. 0.40E+00   24.1     1.40294071     -1076.2101379485 -1.93E-04
    43 Broy./Diag. 0.40E+00   23.9     0.01379102     -1077.7453783059 -1.54E+00
    44 Broy./Diag. 0.40E+00   23.8     1.41327292     -1077.7122359356  3.31E-02
    45 Broy./Diag. 0.40E+00   23.6     1.41387867     -1077.6830108470  2.92E-02
    46 Broy./Diag. 0.40E+00   23.7     1.42040900     -1077.6342324089  4.88E-02
    47 Broy./Diag. 0.40E+00   23.6     0.04243105     -1076.2051928702  1.43E+00
    48 Broy./Diag. 0.40E+00   23.8     0.03216805     -1076.0890909462  1.16E-01
    49 Broy./Diag. 0.40E+00   24.4     0.00582115     -1076.1880406134 -9.89E-02
    50 Broy./Diag. 0.40E+00   24.5     0.00377000     -1076.1825500382  5.49E-03
    51 Broy./Diag. 0.40E+00   24.5     0.00448444     -1076.1437558897  3.88E-02
    52 Broy./Diag. 0.40E+00   24.8     0.00421847     -1076.2027936622 -5.90E-02
    53 Broy./Diag. 0.40E+00   24.4     1.54891268     -1076.1344961963  6.83E-02
    54 Broy./Diag. 0.40E+00   24.9     1.55454089     -1077.7691730280 -1.63E+00
    55 Broy./Diag. 0.40E+00   23.7     1.55454880     -1076.1578306002  1.61E+00
    56 Broy./Diag. 0.40E+00   24.3     1.55508312     -1077.8496366839 -1.69E+00
    57 Broy./Diag. 0.40E+00   24.7     0.01462011     -1076.1522474334  1.70E+00
    58 Broy./Diag. 0.40E+00   24.5     0.01001782     -1076.2387356775 -8.65E-02
    59 Broy./Diag. 0.40E+00   24.2     0.00396721     -1076.2178873291  2.08E-02
    60 Broy./Diag. 0.40E+00   24.2     0.00337151     -1076.2006665651  1.72E-02
    61 Broy./Diag. 0.40E+00   24.2     0.00117200     -1076.2212301368 -2.06E-02
    62 Broy./Diag. 0.40E+00   24.3     0.00086191     -1076.2130778510  8.15E-03
    63 Broy./Diag. 0.40E+00   24.3     0.00059658     -1076.2198065050 -6.73E-03
    64 Broy./Diag. 0.40E+00   24.4     1.40264275     -1076.2122903793  7.52E-03
    65 Broy./Diag. 0.40E+00   24.6     1.55335607     -1077.7478402869 -1.54E+00
    66 Broy./Diag. 0.40E+00   24.1     1.57265258     -1077.7608697722 -1.30E-02
    67 Broy./Diag. 0.40E+00   24.2     0.04278817     -1076.0120971004  1.75E+00
    68 Broy./Diag. 0.40E+00   25.0     0.01385267     -1076.2778407029 -2.66E-01
    69 Broy./Diag. 0.40E+00   24.4     0.01242417     -1076.1808511978  9.70E-02
    70 Broy./Diag. 0.40E+00   24.3     0.00693943     -1076.1853702409 -4.52E-03
    71 Broy./Diag. 0.40E+00   22.0     0.00200285     -1076.1748896242  1.05E-02
    72 Broy./Diag. 0.40E+00   22.5     0.00156822     -1076.1827289504 -7.84E-03
    73 Broy./Diag. 0.40E+00   20.4     0.00137710     -1076.1743677914  8.36E-03
    74 Broy./Diag. 0.40E+00   21.9     0.93038104     -1076.1885113177 -1.41E-02
    75 Broy./Diag. 0.40E+00   23.0     0.94425390     -1077.7403366044 -1.55E+00
    76 Broy./Diag. 0.40E+00   23.1     0.94634498     -1076.1867498667  1.55E+00
    77 Broy./Diag. 0.40E+00   23.7     0.94583642     -1077.8294677725 -1.64E+00
    78 Broy./Diag. 0.40E+00   23.8     0.02005467     -1076.1839214683  1.65E+00
    79 Broy./Diag. 0.40E+00   23.8     0.01502698     -1076.2476224863 -6.37E-02
    80 Broy./Diag. 0.40E+00   24.4     0.00366934     -1076.2206424162  2.70E-02
    81 Broy./Diag. 0.40E+00   24.6     0.00331387     -1076.2011899412  1.95E-02
    82 Broy./Diag. 0.40E+00   25.0     0.00130519     -1076.2131400272 -1.20E-02
    83 Broy./Diag. 0.40E+00   24.4     0.00197238     -1076.2108094001  2.33E-03
    84 Broy./Diag. 0.40E+00   24.0     1.54783465     -1076.2178079788 -7.00E-03
    85 Broy./Diag. 0.40E+00   24.4     1.55551377     -1077.8124632102 -1.59E+00
    86 Broy./Diag. 0.40E+00   24.5     1.40302877     -1076.1797290076  1.63E+00
    87 Broy./Diag. 0.40E+00   24.2     1.41230744     -1077.7915793580 -1.61E+00
    88 Broy./Diag. 0.40E+00   24.3     0.02323248     -1076.1544506007  1.64E+00
    89 Broy./Diag. 0.40E+00   24.8     0.01726440     -1076.3596786836 -2.05E-01
    90 Broy./Diag. 0.40E+00   24.5     0.00394407     -1076.1919162487  1.68E-01
    91 Broy./Diag. 0.40E+00   24.5     0.00407401     -1076.2155472413 -2.36E-02
    92 Broy./Diag. 0.40E+00   24.4     0.00251201     -1076.2149705554  5.77E-04
    93 Broy./Diag. 0.40E+00   24.1     0.00121530     -1076.2090464395  5.92E-03
    94 Broy./Diag. 0.40E+00   23.9     1.55111076     -1076.2135912145 -4.54E-03
    95 Broy./Diag. 0.40E+00   24.8     1.55856121     -1077.7462034098 -1.53E+00
    96 Broy./Diag. 0.40E+00   24.5     0.02489235     -1076.1938901545  1.55E+00
    97 Broy./Diag. 0.40E+00   24.5     0.01278207     -1076.2719880331 -7.81E-02
    98 Broy./Diag. 0.40E+00   24.5     0.00452720     -1076.2283472592  4.36E-02
    99 Broy./Diag. 0.40E+00   24.0     0.00427578     -1076.1402053049  8.81E-02
   100 Broy./Diag. 0.40E+00   24.0     0.00143828     -1076.2298052092 -8.96E-02
   101 Broy./Diag. 0.40E+00   22.7     1.40260413     -1076.2157349308  1.41E-02
   102 Broy./Diag. 0.40E+00   24.5     1.41668313     -1077.8337804146 -1.62E+00
   103 Broy./Diag. 0.40E+00   24.5     0.93171954     -1076.2352811325  1.60E+00
   104 Broy./Diag. 0.40E+00   22.4     0.94621642     -1077.6532078666 -1.42E+00
   105 Broy./Diag. 0.40E+00   23.7     0.02493819     -1076.0968277262  1.56E+00
   106 Broy./Diag. 0.40E+00   24.0     0.01944889     -1076.2222281876 -1.25E-01
   107 Broy./Diag. 0.40E+00   24.0     0.00624315     -1076.1862464436  3.60E-02
   108 Broy./Diag. 0.40E+00   24.4     0.00462062     -1076.1551263066  3.11E-02
   109 Broy./Diag. 0.40E+00   23.3     0.00218589     -1076.2147604812 -5.96E-02
   110 Broy./Diag. 0.40E+00   24.2     0.00157925     -1076.1694117452  4.53E-02
   111 Broy./Diag. 0.40E+00   24.3     1.54761233     -1076.1902983809 -2.09E-02
   112 Broy./Diag. 0.40E+00   24.4     1.56037917     -1077.8709131283 -1.68E+00
   113 Broy./Diag. 0.40E+00   23.9     0.02462137     -1076.2133997951  1.66E+00
   114 Broy./Diag. 0.40E+00   23.7     0.01629651     -1076.1465277472  6.69E-02
   115 Broy./Diag. 0.40E+00   24.2     0.00667703     -1076.2999339283 -1.53E-01
   116 Broy./Diag. 0.40E+00   24.7     0.00418288     -1076.1615784245  1.38E-01
   117 Broy./Diag. 0.40E+00   24.9     0.00304165     -1076.2288470785 -6.73E-02
   118 Broy./Diag. 0.40E+00   24.4     0.00148689     -1076.2171341477  1.17E-02
   119 Broy./Diag. 0.40E+00   25.6     0.00107230     -1076.2345712338 -1.74E-02
   120 Broy./Diag. 0.40E+00   24.9     0.00087237     -1076.2068393964  2.77E-02
   121 Broy./Diag. 0.40E+00   24.8     1.55292593     -1076.2141874130 -7.35E-03
   122 Broy./Diag. 0.40E+00   24.4     1.55939849     -1077.7424001654 -1.53E+00
   123 Broy./Diag. 0.40E+00   24.8     0.01656868     -1076.2238846212  1.52E+00
   124 Broy./Diag. 0.40E+00   25.3     0.00338805     -1076.1511810707  7.27E-02
   125 Broy./Diag. 0.40E+00   23.8     0.00165820     -1076.2137391852 -6.26E-02
   126 Broy./Diag. 0.40E+00   25.1     0.00146706     -1076.2078770315  5.86E-03
   127 Broy./Diag. 0.40E+00   25.0     0.00117904     -1076.2157365803 -7.86E-03
   128 Broy./Diag. 0.40E+00   24.4     0.00120652     -1076.2086977804  7.04E-03
   129 Broy./Diag. 0.40E+00   24.7     1.40258413     -1076.2119607017 -3.26E-03
   130 Broy./Diag. 0.40E+00   25.0     1.41086629     -1077.8251676450 -1.61E+00
   131 Broy./Diag. 0.40E+00   24.6     0.93884060     -1076.1594019288  1.67E+00
   132 Broy./Diag. 0.40E+00   24.4     1.40433975     -1077.9072504714 -1.75E+00
   133 Broy./Diag. 0.40E+00   24.4     1.41165376     -1077.8876970389  1.96E-02
   134 Broy./Diag. 0.40E+00   24.5     0.03134688     -1076.1465790303  1.74E+00
   135 Broy./Diag. 0.40E+00   24.7     0.01875219     -1076.3566501622 -2.10E-01
   136 Broy./Diag. 0.40E+00   24.6     0.00197921     -1076.2048246357  1.52E-01
   137 Broy./Diag. 0.40E+00   24.5     0.00155634     -1076.2124407338 -7.62E-03
   138 Broy./Diag. 0.40E+00   24.6     1.54823922     -1076.2106976133  1.74E-03
   139 Broy./Diag. 0.40E+00   24.6     1.55746609     -1077.7220335769 -1.51E+00
   140 Broy./Diag. 0.40E+00   24.6     0.02404617     -1076.1858555923  1.54E+00
   141 Broy./Diag. 0.40E+00   24.7     0.01165809     -1076.1698307453  1.60E-02
   142 Broy./Diag. 0.40E+00   24.4     0.01473670     -1076.2062928063 -3.65E-02
   143 Broy./Diag. 0.40E+00   24.7     0.00847115     -1076.2493580169 -4.31E-02
   144 Broy./Diag. 0.40E+00   24.5     0.00430511     -1076.1889364311  6.04E-02
   145 Broy./Diag. 0.40E+00   24.7     0.00178811     -1076.2528243043 -6.39E-02
   146 Broy./Diag. 0.40E+00   24.5     0.00205229     -1076.2228150607  3.00E-02
   147 Broy./Diag. 0.40E+00   24.3     0.00168286     -1076.2307269312 -7.91E-03
   148 Broy./Diag. 0.40E+00   24.8     1.55245854     -1076.2232865215  7.44E-03
   149 Broy./Diag. 0.40E+00   24.5     1.56027049     -1077.8428587279 -1.62E+00
   150 Broy./Diag. 0.40E+00   24.7     0.02716080     -1076.1960832759  1.65E+00
   151 Broy./Diag. 0.40E+00   24.4     0.01289797     -1076.2534943334 -5.74E-02
   152 Broy./Diag. 0.40E+00   24.5     0.00205622     -1076.2086638032  4.48E-02
   153 Broy./Diag. 0.40E+00   24.9     0.00150830     -1076.2084622084  2.02E-04
   154 Broy./Diag. 0.40E+00   25.1     0.00083357     -1076.2093810205 -9.19E-04
   155 Broy./Diag. 0.40E+00   24.6     1.40279926     -1076.2137763592 -4.40E-03
   156 Broy./Diag. 0.40E+00   25.3     1.41199340     -1077.7253216230 -1.51E+00
   157 Broy./Diag. 0.40E+00   24.7     0.01567081     -1076.1272791519  1.60E+00
   158 Broy./Diag. 0.40E+00   22.2     0.92658364     -1076.3336382321 -2.06E-01
   159 Broy./Diag. 0.40E+00   24.8     0.94259486     -1077.7768186548 -1.44E+00
   160 Broy./Diag. 0.40E+00   23.9     0.03101131     -1076.2241081878  1.55E+00
   161 Broy./Diag. 0.40E+00   24.0     0.01732096     -1076.1601961143  6.39E-02
   162 Broy./Diag. 0.40E+00   24.7     0.00732853     -1076.2032844515 -4.31E-02
   163 Broy./Diag. 0.40E+00   24.4     0.00352025     -1076.2296950894 -2.64E-02
   164 Broy./Diag. 0.40E+00   24.8     1.54853316     -1076.2172792626  1.24E-02
   165 Broy./Diag. 0.40E+00   24.7     1.55991977     -1077.8187606516 -1.60E+00
   166 Broy./Diag. 0.40E+00   24.8     0.02131817     -1076.2187665599  1.60E+00
   167 Broy./Diag. 0.40E+00   24.8     0.01350416     -1076.1092538831  1.10E-01
   168 Broy./Diag. 0.40E+00   23.8     0.01035163     -1076.1905507656 -8.13E-02
   169 Broy./Diag. 0.40E+00   25.3     0.00429020     -1076.2325788624 -4.20E-02
   170 Broy./Diag. 0.40E+00   24.7     0.00534055     -1076.1757271200  5.69E-02
   171 Broy./Diag. 0.40E+00   25.2     0.00319386     -1076.2495718287 -7.38E-02
   172 Broy./Diag. 0.40E+00   24.7     1.40274147     -1076.2097970113  3.98E-02
   173 Broy./Diag. 0.40E+00   24.6     1.41234725     -1077.7365905183 -1.53E+00
   174 Broy./Diag. 0.40E+00   24.5     0.02699161     -1076.1742206141  1.56E+00
   175 Broy./Diag. 0.40E+00   24.8     0.01124379     -1076.2276623909 -5.34E-02
   176 Broy./Diag. 0.40E+00   24.5     1.54969730     -1076.2320410777 -4.38E-03
   177 Broy./Diag. 0.40E+00   24.4     1.56249631     -1077.7528300018 -1.52E+00
   178 Broy./Diag. 0.40E+00   23.1     0.03154546     -1076.1908133687  1.56E+00
   179 Broy./Diag. 0.40E+00   24.4     0.01094268     -1076.1616760264  2.91E-02
   180 Broy./Diag. 0.40E+00   24.5     0.00312984     -1076.2528491844 -9.12E-02
   181 Broy./Diag. 0.40E+00   24.5     0.00235825     -1076.1669562389  8.59E-02
   182 Broy./Diag. 0.40E+00   24.2     0.00393152     -1076.2065948317 -3.96E-02
   183 Broy./Diag. 0.40E+00   25.5     0.00159739     -1076.2185942103 -1.20E-02
   184 Broy./Diag. 0.40E+00   24.4     0.00209963     -1076.2054143299  1.32E-02
   185 Broy./Diag. 0.40E+00   24.2     1.40308472     -1076.2141267283 -8.71E-03
   186 Broy./Diag. 0.40E+00   25.1     1.41243488     -1077.8214842145 -1.61E+00
   187 Broy./Diag. 0.40E+00   24.3     1.54558139     -1076.1918950423  1.63E+00
   188 Broy./Diag. 0.40E+00   24.7     1.55985554     -1077.8325407788 -1.64E+00
   189 Broy./Diag. 0.40E+00   25.5     0.05175979     -1076.2318822491  1.60E+00
   190 Broy./Diag. 0.40E+00   25.4     0.02652840     -1076.2703570462 -3.85E-02
   191 Broy./Diag. 0.40E+00   24.4     0.00818861     -1076.1527822365  1.18E-01
   192 Broy./Diag. 0.40E+00   23.6     0.00175769     -1076.2315932703 -7.88E-02
   193 Broy./Diag. 0.40E+00   23.8     0.00120117     -1076.2050743619  2.65E-02
   194 Broy./Diag. 0.40E+00   24.4     0.00047579     -1076.2149351923 -9.86E-03
   195 Broy./Diag. 0.40E+00   24.4     0.00373568     -1076.2136892608  1.25E-03
   196 Broy./Diag. 0.40E+00   23.8     1.40194942     -1076.2158437952 -2.15E-03
   197 Broy./Diag. 0.40E+00   24.2     1.41288897     -1077.7492484852 -1.53E+00
   198 Broy./Diag. 0.40E+00   24.8     0.01323227     -1076.2228777798  1.53E+00
   199 Broy./Diag. 0.40E+00   22.1     0.00762646     -1076.1693279917  5.35E-02
   200 Broy./Diag. 0.40E+00   24.4     1.54950305     -1076.2244977171 -5.52E-02
   201 Broy./Diag. 0.40E+00   24.4     1.55700691     -1077.8391578137 -1.61E+00
   202 Broy./Diag. 0.40E+00   24.2     0.01547300     -1076.2002477873  1.64E+00
   203 Broy./Diag. 0.40E+00   24.7     0.00869158     -1076.1769002145  2.33E-02
   204 Broy./Diag. 0.40E+00   24.4     0.00250069     -1076.1963925683 -1.95E-02
   205 Broy./Diag. 0.40E+00   23.9     0.00132136     -1076.1975784878 -1.19E-03
   206 Broy./Diag. 0.40E+00   24.4     0.01044145     -1076.1964984887  1.08E-03
   207 Broy./Diag. 0.40E+00   24.4     0.00383363     -1076.2406865965 -4.42E-02
   208 Broy./Diag. 0.40E+00   25.6     0.00196519     -1076.2106364047  3.01E-02
   209 Broy./Diag. 0.40E+00   24.7     0.00173448     -1076.2336936845 -2.31E-02
   210 Broy./Diag. 0.40E+00   24.2     1.55279595     -1076.2216886657  1.20E-02
   211 Broy./Diag. 0.40E+00   22.6     1.56061043     -1077.7671984097 -1.55E+00
   212 Broy./Diag. 0.40E+00   23.0     1.46499868     -1077.8194396109 -5.22E-02
   213 Broy./Diag. 0.40E+00   22.9     1.05850684     -1077.1487518036  6.71E-01
   214 Broy./Diag. 0.40E+00   24.0     0.13117279     -1075.5783504470  1.57E+00
   215 Broy./Diag. 0.40E+00   23.7     0.06376968     -1076.5252694581 -9.47E-01
   216 Broy./Diag. 0.40E+00   23.5     0.01019190     -1075.9352872566  5.90E-01
   217 Broy./Diag. 0.40E+00   24.2     0.00608888     -1076.0357961067 -1.01E-01
   218 Broy./Diag. 0.40E+00   24.2     0.00997895     -1076.0281894625  7.61E-03
   219 Broy./Diag. 0.40E+00   23.8     0.01302018     -1076.0632053918 -3.50E-02
   220 Broy./Diag. 0.40E+00   25.0     0.92768726     -1076.1426522621 -7.94E-02
   221 Broy./Diag. 0.40E+00   25.1     0.94647196     -1077.7857392225 -1.64E+00
   222 Broy./Diag. 0.40E+00   22.3     0.03325368     -1076.2139373079  1.57E+00
   223 Broy./Diag. 0.40E+00   23.4     0.02454450     -1076.3670514949 -1.53E-01
   224 Broy./Diag. 0.40E+00   24.4     0.00882326     -1076.2006232460  1.66E-01
   225 Broy./Diag. 0.40E+00   24.7     0.00455543     -1076.2293479307 -2.87E-02
   226 Broy./Diag. 0.40E+00   24.3     0.00361842     -1076.2093540364  2.00E-02
   227 Broy./Diag. 0.40E+00   23.9     0.00155895     -1076.2225001107 -1.31E-02
   228 Broy./Diag. 0.40E+00   24.5     0.00169196     -1076.2189704331  3.53E-03
   229 Broy./Diag. 0.40E+00   22.5     0.00095270     -1076.2149160925  4.05E-03
   230 Broy./Diag. 0.40E+00   24.2     1.54827480     -1076.2291647187 -1.42E-02
   231 Broy./Diag. 0.40E+00   22.3     1.55955431     -1077.8377389091 -1.61E+00
   232 Broy./Diag. 0.40E+00   23.1     0.02050853     -1076.1148228814  1.72E+00
   233 Broy./Diag. 0.40E+00   23.8     0.00787888     -1076.3401407504 -2.25E-01
   234 Broy./Diag. 0.40E+00   24.2     0.00312988     -1076.1866956951  1.53E-01
   235 Broy./Diag. 0.40E+00   24.4     0.00397577     -1076.2109466977 -2.43E-02
   236 Broy./Diag. 0.40E+00   24.3     0.00183297     -1076.2284026281 -1.75E-02
   237 Broy./Diag. 0.40E+00   24.3     0.00095068     -1076.2043321786  2.41E-02
   238 Broy./Diag. 0.40E+00   24.4     0.00040956     -1076.2070834159 -2.75E-03
   239 Broy./Diag. 0.40E+00   22.5     1.40266455     -1076.2106694888 -3.59E-03
   240 Broy./Diag. 0.40E+00   23.5     1.41019227     -1077.7309037383 -1.52E+00
   241 Broy./Diag. 0.40E+00   24.6     0.96159376     -1077.7315953563 -6.92E-04
   242 Broy./Diag. 0.40E+00   23.7     1.40577527     -1076.1172627479  1.61E+00
   243 Broy./Diag. 0.40E+00   24.0     1.40917423     -1077.5954933322 -1.48E+00
   244 Broy./Diag. 0.40E+00   24.7     1.55575595     -1076.0736601278  1.52E+00
   245 Broy./Diag. 0.40E+00   22.2     1.56711652     -1079.4281500620 -3.35E+00
   246 Broy./Diag. 0.40E+00   24.1     0.05007729     -1076.2770502263  3.15E+00
   247 Broy./Diag. 0.40E+00   24.0     0.02799839     -1075.9357303447  3.41E-01
   248 Broy./Diag. 0.40E+00   22.9     0.01011484     -1076.1883830630 -2.53E-01
   249 Broy./Diag. 0.40E+00   23.7     0.01177849     -1076.1750373418  1.33E-02
   250 Broy./Diag. 0.40E+00   24.1     0.02068135     -1076.1636368021  1.14E-02
   251 Broy./Diag. 0.40E+00   24.4     0.01441250     -1076.2476250427 -8.40E-02
   252 Broy./Diag. 0.40E+00   24.4     0.00487650     -1076.1790216014  6.86E-02
   253 Broy./Diag. 0.40E+00   23.8     0.00246081     -1076.2093528879 -3.03E-02
   254 Broy./Diag. 0.40E+00   24.2     0.01796295     -1076.2213460477 -1.20E-02
   255 Broy./Diag. 0.40E+00   24.7     0.00947899     -1076.2978604364 -7.65E-02
   256 Broy./Diag. 0.40E+00   24.3     1.54889187     -1076.1882332454  1.10E-01
   257 Broy./Diag. 0.40E+00   24.6     1.56037109     -1077.8515068798 -1.66E+00
   258 Broy./Diag. 0.40E+00   24.6     0.01936513     -1076.1682743517  1.68E+00
   259 Broy./Diag. 0.40E+00   24.4     0.01511565     -1076.2715920569 -1.03E-01
   260 Broy./Diag. 0.40E+00   24.8     0.00423262     -1076.2041533013  6.74E-02
   261 Broy./Diag. 0.40E+00   24.8     0.00326591     -1076.2052892801 -1.14E-03
   262 Broy./Diag. 0.40E+00   24.2     0.00146377     -1076.2157371894 -1.04E-02
   263 Broy./Diag. 0.40E+00   24.2     0.00114531     -1076.2096618664  6.08E-03
   264 Broy./Diag. 0.40E+00   24.4     1.40274532     -1076.2077194515  1.94E-03
   265 Broy./Diag. 0.40E+00   24.2     1.41062819     -1077.7378899103 -1.53E+00
   266 Broy./Diag. 0.40E+00   25.2     0.93181113     -1076.1870548681  1.55E+00
   267 Broy./Diag. 0.40E+00   25.4     0.94216591     -1077.7536164398 -1.57E+00
   268 Broy./Diag. 0.40E+00   24.1     0.05532258     -1076.2350999499  1.52E+00
   269 Broy./Diag. 0.40E+00   23.7     0.03535590     -1076.1035356132  1.32E-01
   270 Broy./Diag. 0.40E+00   24.4     0.00663846     -1076.2444161151 -1.41E-01
   271 Broy./Diag. 0.40E+00   24.2     0.00291916     -1076.2212528281  2.32E-02
   272 Broy./Diag. 0.40E+00   23.9     0.00130752     -1076.2155320979  5.72E-03
   273 Broy./Diag. 0.40E+00   23.9     1.54788994     -1076.2202943499 -4.76E-03
   274 Broy./Diag. 0.40E+00   24.4     1.55866830     -1077.8246115759 -1.60E+00
   275 Broy./Diag. 0.40E+00   23.3     1.43001260     -1077.7305592530  9.41E-02
   276 Broy./Diag. 0.40E+00   24.3     0.03877939     -1076.0820350814  1.65E+00
   277 Broy./Diag. 0.40E+00   24.2     0.01469030     -1076.3001108599 -2.18E-01
   278 Broy./Diag. 0.40E+00   24.2     0.01098575     -1076.1170801114  1.83E-01
   279 Broy./Diag. 0.40E+00   24.3     0.00803900     -1076.1943316428 -7.73E-02
   280 Broy./Diag. 0.40E+00   24.1     0.00590384     -1076.1556515368  3.87E-02
   281 Broy./Diag. 0.40E+00   23.9     0.00312279     -1076.1786048722 -2.30E-02
   282 Broy./Diag. 0.40E+00   24.7     0.00206287     -1076.1747947904  3.81E-03
   283 Broy./Diag. 0.40E+00   24.9     1.55693366     -1076.1788034549 -4.01E-03
   284 Broy./Diag. 0.40E+00   24.1     1.56471404     -1077.8419992259 -1.66E+00
   285 Broy./Diag. 0.40E+00   25.5     0.03401424     -1076.1646326888  1.68E+00
   286 Broy./Diag. 0.40E+00   24.3     0.02443200     -1076.2067363531 -4.21E-02
   287 Broy./Diag. 0.40E+00   24.1     0.00233122     -1076.2029024992  3.83E-03
   288 Broy./Diag. 0.40E+00   25.2     0.00221013     -1076.1959552567  6.95E-03
   289 Broy./Diag. 0.40E+00   24.4     0.00167376     -1076.2007812642 -4.83E-03
   290 Broy./Diag. 0.40E+00   24.2     0.00149214     -1076.2011941150 -4.13E-04
   291 Broy./Diag. 0.40E+00   23.5     0.00070159     -1076.1992693290  1.92E-03
   292 Broy./Diag. 0.40E+00   25.1     1.40272606     -1076.1966425640  2.63E-03
   293 Broy./Diag. 0.40E+00   24.3     1.41877905     -1077.7219157192 -1.53E+00
   294 Broy./Diag. 0.40E+00   24.2     0.02076498     -1076.1498846684  1.57E+00
   295 Broy./Diag. 0.40E+00   23.3     0.01369653     -1076.3538683586 -2.04E-01
   296 Broy./Diag. 0.40E+00   24.4     0.00327528     -1076.1786560926  1.75E-01
   297 Broy./Diag. 0.40E+00   22.9     0.00293057     -1076.1998190341 -2.12E-02
   298 Broy./Diag. 0.40E+00   23.6     0.00264430     -1076.1952862339  4.53E-03
   299 Broy./Diag. 0.40E+00   24.1     1.54513660     -1076.2038474145 -8.56E-03
   300 Broy./Diag. 0.40E+00   23.9     1.55518664     -1077.8002716268 -1.60E+00

  Leaving inner SCF loop after reaching   300 steps.


  Electronic density on regular grids:       -511.9994369940        0.0005630060
  Core density on regular grids:              512.0002700704        0.0002700704
  Total charge density on r-space grids:        0.0008330763
  Total charge density g-space grids:           0.0008330763

  Overlap energy of the core charge distribution:               0.00000000000000
  Self energy of the core charge distribution:              -2838.21791979120962
  Core Hamiltonian energy:                                    758.03879655442381
  Hartree energy:                                            1241.08040754175886
  Exchange-correlation energy:                               -238.70155593182179

  Total energy:                                             -1077.80027162684883

 *** WARNING in qs_scf.F:542 :: SCF run NOT converged ***


 ENERGY| Total FORCE_EVAL ( QS ) energy (a.u.):            -1076.228615949470395


 ATOMIC FORCES in [a.u.]

 # Atom   Kind   Element          X              Y              Z
      1      1      O          -0.05572416    -0.12232038     0.06029533
      2      2      H           0.06454315    -0.00113791     0.03941061
      3      2      H           0.01421589     0.05571043    -0.00906115
      4      1      O          -0.00562518    -0.00603604     0.14797314
      5      2      H          -0.07389630     0.05876627    -0.00518968
      6      2      H           0.04286736    -0.05011023    -0.01626173
      7      1      O           0.02368119    -0.01374900     0.09232795
      8      2      H           0.02286425     0.03720804    -0.03358934
      9      2      H          -0.07228414    -0.04369623    -0.00695696
     10      1      O           0.10521686     0.08782031    -0.02580358
     11      2      H          -0.05732558     0.03072544     0.02603913
     12      2      H          -0.02952524    -0.03972954    -0.09482087
     13      1      O           0.02440857     0.13397151     0.02511854
     14      2      H          -0.06226620    -0.01264622     0.00884095
     15      2      H           0.04788026     0.00035194     0.02481681
     16      1      O          -0.07876962    -0.10014928     0.01598917
     17      2      H           0.06708782    -0.02216070    -0.02758338
     18      2      H          -0.01611902    -0.01513037    -0.06208811
     19      1      O           0.07295727    -0.09986203     0.00525286
     20      2      H           0.03938788    -0.01076786    -0.10699086
     21      2      H          -0.07034140    -0.02859024     0.02710309
     22      1      O           0.05458417     0.01437251    -0.03844778
     23      2      H           0.00422025    -0.04729537    -0.07161693
     24      2      H          -0.07494520     0.04060010     0.00555450
     25      1      O          -0.00604599     0.02318542     0.10391641
     26      2      H          -0.01647037     0.04516569     0.08240647
     27      2      H           0.02634219    -0.03883171    -0.04928665
     28      1      O           0.00450961    -0.01608920    -0.01946220
     29      2      H           0.03705722     0.09634465    -0.03738393
     30      2      H          -0.06791777    -0.00814768    -0.05756654
     31      1      O          -0.01485393    -0.02801781     0.11873801
     32      2      H          -0.05053557     0.06087105     0.04977481
     33      2      H           0.06035077     0.03946884    -0.01429795
     34      1      O           0.10427789     0.04125129    -0.05077678
     35      2      H          -0.00858473    -0.07612143     0.05706214
     36      2      H          -0.06748204     0.02410450     0.02121215
     37      1      O           0.04140917    -0.02660853    -0.12145507
     38      2      H           0.05779469     0.07324530    -0.01521934
     39      2      H          -0.06975216    -0.00154258    -0.01191822
     40      1      O          -0.08328213     0.05965271     0.04172358
     41      2      H           0.03371646     0.00038086     0.03490645
     42      2      H           0.02931503     0.04038981    -0.03824675
     43      1      O           0.01861716    -0.00769549     0.15052272
     44      2      H          -0.03722374     0.01186321    -0.04553600
     45      2      H           0.03025990     0.10404405     0.02441252
     46      1      O           0.03008424    -0.08080508    -0.06273493
     47      2      H          -0.04259588     0.06250172     0.05025872
     48      2      H           0.04732187    -0.03200252     0.08766319
     49      1      O           0.04236612     0.12609014    -0.04859679
     50      2      H           0.05325451    -0.01290697    -0.08602355
     51      2      H          -0.05859689    -0.02884845     0.01278453
     52      1      O          -0.00741570    -0.09470976     0.11693474
     53      2      H           0.05556712     0.02279315    -0.07566629
     54      2      H          -0.03636360     0.03389619     0.03648289
     55      1      O           0.02366067    -0.00327738    -0.00221412
     56      2      H           0.00941173    -0.00469973    -0.10030037
     57      2      H          -0.02970771    -0.06095159     0.03486043
     58      1      O           0.00626982     0.15833378    -0.05908032
     59      2      H          -0.06184479    -0.05512646    -0.04298087
     60      2      H           0.06318803    -0.06918471     0.00965669
     61      1      O           0.02411710     0.12315260    -0.01970710
     62      2      H           0.01013406    -0.03128643     0.09763974
     63      2      H          -0.05147834    -0.05459790    -0.07551042
     64      1      O           0.08146125    -0.07902215     0.14773942
     65      2      H          -0.06865592     0.02478085    -0.01864880
     66      2      H           0.01882897     0.04794176    -0.11188249
     67      1      O           0.03676488    -0.10824763     0.10671054
     68      2      H          -0.09113259    -0.03311866    -0.03259275
     69      2      H           0.02908442     0.05268597     0.02631104
     70      1      O          -0.05137902     0.08861172    -0.00819025
     71      2      H           0.07602515    -0.02697705    -0.02561165
     72      2      H          -0.03654821     0.02561834    -0.04066872
     73      1      O           0.06429059    -0.02348617    -0.10178314
     74      2      H          -0.06254205     0.03005625    -0.01074007
     75      2      H          -0.01285555    -0.07763065     0.05770578
     76      1      O          -0.09563631    -0.05912425     0.05699122
     77      2      H           0.06995587     0.00042498    -0.04287134
     78      2      H           0.00964188    -0.00138529     0.04901728
     79      1      O           0.07516114     0.02117957    -0.09840959
     80      2      H          -0.03957928     0.06173746     0.09673522
     81      2      H          -0.01299293    -0.07541810     0.01030255
     82      1      O           0.02912480    -0.11051664    -0.01065590
     83      2      H          -0.01733455     0.09587586    -0.03652076
     84      2      H          -0.03870465    -0.04974720     0.03398663
     85      1      O           0.09338866     0.10928564    -0.02711943
     86      2      H          -0.02042431    -0.08035413     0.02037924
     87      2      H          -0.04808311     0.04319955    -0.02167571
     88      1      O          -0.05817702    -0.11633934     0.04358608
     89      2      H           0.07852096    -0.01161418     0.08065472
     90      2      H           0.00928573     0.09368873    -0.06281453
     91      1      O           0.10047316    -0.01275835     0.11462422
     92      2      H          -0.03836875    -0.01255482    -0.02836879
     93      2      H          -0.06137992     0.05324537    -0.01241930
     94      1      O           0.08282011    -0.08482291    -0.08552981
     95      2      H          -0.05260046     0.05168832    -0.01068679
     96      2      H          -0.02113483    -0.04754072     0.08864785
     97      1      O           0.03541433    -0.08907862     0.15587257
     98      2      H          -0.07975893     0.04536570    -0.01505552
     99      2      H           0.04826991     0.04583136    -0.02542772
    100      1      O          -0.01962267     0.06145759    -0.14293462
    101      2      H           0.01019748    -0.09340288     0.05825047
    102      2      H           0.02198628     0.02798036     0.03388029
    103      1      O           0.03800998     0.05017151    -0.09341152
    104      2      H          -0.06553987    -0.03792425     0.00586775
    105      2      H           0.00197225     0.01589304     0.04876503
    106      1      O           0.03372675     0.12486705     0.06631929
    107      2      H           0.06051396    -0.05712202     0.03134698
    108      2      H          -0.06432182     0.02284737     0.05687456
    109      1      O           0.09233584     0.06308001    -0.02906263
    110      2      H          -0.03299503     0.05287723    -0.03144530
    111      2      H          -0.07189176     0.00282080     0.07567075
    112      1      O           0.06008469     0.02846446    -0.05741221
    113      2      H          -0.02146293    -0.05126181     0.00325010
    114      2      H          -0.04747394     0.01361407    -0.08471819
    115      1      O           0.08958075    -0.01513993    -0.00512295
    116      2      H           0.00034644    -0.06893220     0.07058866
    117      2      H          -0.04850656     0.04750195     0.01378789
    118      1      O           0.04783839    -0.07127505     0.14715249
    119      2      H           0.00002847     0.05005382    -0.10238163
    120      2      H          -0.05203436    -0.05422682     0.00896407
    121      1      O          -0.06215800     0.04006791     0.00789554
    122      2      H           0.01437644    -0.00894834     0.10224701
    123      2      H          -0.01332171    -0.01599459    -0.02514769
    124      1      O          -0.04385829     0.05281961    -0.00873299
    125      2      H           0.02946068    -0.04149777    -0.07613210
    126      2      H          -0.00906502     0.00352842     0.10708792
    127      1      O           0.01274742     0.05304228    -0.04642814
    128      2      H          -0.04059409     0.04490794     0.06496747
    129      2      H          -0.00004781    -0.09819020     0.05712748
    130      1      O          -0.05067234     0.11081972    -0.04691877
    131      2      H          -0.01523895    -0.05309483    -0.01053279
    132      2      H           0.03751327     0.00270565     0.07288507
    133      1      O           0.04877070    -0.07754569     0.00144542
    134      2      H          -0.00783722     0.08580639    -0.03275740
    135      2      H          -0.05900666    -0.01869725    -0.02625299
    136      1      O           0.01691169     0.12001826    -0.13036784
    137      2      H          -0.08202651    -0.06357817     0.02510806
    138      2      H           0.02572915    -0.01149076     0.10192427
    139      1      O          -0.00060750     0.13552343     0.10707517
    140      2      H          -0.06163969    -0.06482831    -0.00827349
    141      2      H           0.04520878    -0.00909700    -0.01395983
    142      1      O           0.03608197    -0.11993989    -0.14392104
    143      2      H           0.02423367     0.00076131     0.05192823
    144      2      H          -0.05325916     0.04784691     0.04288461
    145      1      O           0.06266001    -0.08392456     0.00715864
    146      2      H          -0.02595058     0.00613295    -0.09226183
    147      2      H          -0.06118615     0.01202605     0.00092220
    148      1      O           0.01864703     0.07212868    -0.11662906
    149      2      H           0.01495929    -0.08479667     0.03895206
    150      2      H          -0.07647990     0.06808291    -0.02378803
    151      1      O           0.07253338     0.03404606     0.01014907
    152      2      H          -0.03864406     0.02347293     0.03688583
    153      2      H          -0.04700475    -0.01029313    -0.09476656
    154      1      O           0.03525826    -0.13485018    -0.05672903
    155      2      H          -0.06470493     0.04048193    -0.01931179
    156      2      H           0.02060036     0.04943051     0.05706536
    157      1      O           0.07341275     0.03799648     0.05071151
    158      2      H          -0.08048470    -0.00676603     0.06786173
    159      2      H          -0.02976369    -0.01737012    -0.07366555
    160      1      O           0.06577525    -0.06207034    -0.04844354
    161      2      H           0.01825887     0.04771592    -0.07072377
    162      2      H          -0.06939777     0.02281364     0.00199119
    163      1      O           0.00028961     0.01769379    -0.01978213
    164      2      H          -0.06355686    -0.00233337    -0.03301596
    165      2      H           0.01404422    -0.08935882     0.02468720
    166      1      O           0.03596741    -0.12369485    -0.00048183
    167      2      H           0.06845926     0.01569654    -0.01101697
    168      2      H          -0.05702153     0.04647121    -0.02045129
    169      1      O           0.07052867     0.12304230     0.05614412
    170      2      H          -0.07172175    -0.01018425     0.02628703
    171      2      H           0.00319206    -0.04537611    -0.01377061
    172      1      O           0.05965136     0.07329977    -0.08096363
    173      2      H          -0.02365724    -0.05538937     0.09187891
    174      2      H          -0.03927351    -0.01317819    -0.05673117
    175      1      O           0.09732142    -0.06992701    -0.03587088
    176      2      H          -0.04162990     0.08243142    -0.07487331
    177      2      H          -0.05703258    -0.02662782     0.06577754
    178      1      O           0.07024813     0.04064808     0.03420588
    179      2      H           0.03413014    -0.07173612     0.06144751
    180      2      H          -0.07166956     0.04333433     0.02338695
    181      1      O           0.00429387    -0.05344448     0.09104689
    182      2      H          -0.05421755     0.04399975    -0.04042552
    183      2      H           0.04282252    -0.00654867    -0.08504045
    184      1      O           0.00812186     0.00855136    -0.05326437
    185      2      H          -0.05849886    -0.02391005     0.03371934
    186      2      H           0.03309575     0.09956464     0.03148911
    187      1      O          -0.01975304     0.04249964    -0.00255815
    188      2      H           0.02388949     0.06651681     0.04327881
    189      2      H          -0.03041568    -0.04453603     0.04193789
    190      1      O           0.08321679     0.02443289    -0.00082258
    191      2      H          -0.06464631    -0.06704466     0.01162982
    192      2      H          -0.01689696     0.09176184     0.01129982
 SUM OF ATOMIC FORCES          -0.19056668     0.41111028     0.38080190     0.59189307

 -------------------------------------------------------------------------------
 -                                                                             -
 -                                DBCSR STATISTICS                             -
 -                                                                             -
 -------------------------------------------------------------------------------
 COUNTER                                    TOTAL       BLAS       SMM       ACC
 flops     5 x     5 x   256           3390464000       0.0%    100.0%      0.0%
 flops    13 x     5 x   256           4067015680       0.0%    100.0%      0.0%
 flops     5 x    13 x   256           4147153920       0.0%    100.0%      0.0%
 flops    13 x    13 x   256           5938243584       0.0%    100.0%      0.0%
 flops inhomo. stacks                           0       0.0%      0.0%      0.0%
 flops total                        17.542877E+09       0.0%    100.0%      0.0%
 flops max/rank                     17.542877E+09       0.0%    100.0%      0.0%
 matmuls inhomo. stacks                         0       0.0%      0.0%      0.0%
 matmuls total                             580328       0.0%    100.0%      0.0%
 number of processed stacks                 42140       0.0%    100.0%      0.0%
 average stack size                                     0.0      13.8       0.0
 marketing flops                   333.927416E+09
 -------------------------------------------------------------------------------
 # multiplications                            301
 max memory usage/rank              30.517305E+09
 # max total images/rank                        1
 # max 3D layers                                1
 # MPI messages exchanged                       0
 MPI messages size (bytes):
  total size                         0.000000E+00
  min size                           0.000000E+00
  max size                           0.000000E+00
  average size                       0.000000E+00
 MPI breakdown and total messages size (bytes):
             size <=      128                   0                        0
       128 < size <=     8192                   0                        0
      8192 < size <=    32768                   0                        0
     32768 < size <=   131072                   0                        0
    131072 < size <=  4194304                   0                        0
   4194304 < size <= 16777216                   0                        0
  16777216 < size                               0                        0
 -------------------------------------------------------------------------------

 MEMORY| Estimated peak process memory [MiB]                               29101

 -------------------------------------------------------------------------------
 -                                                                             -
 -                           R E F E R E N C E S                               -
 -                                                                             -
 -------------------------------------------------------------------------------
 
 CP2K version 7.1, the CP2K developers group (2019).
 CP2K is freely available from https://www.cp2k.org/ .

 Schuett, Ole; Messmer, Peter; Hutter, Juerg; VandeVondele, Joost. 
 Electronic Structure Calculations on Graphics Processing Units, John
 Wiley & Sons, Ltd, 173-190 (2016). 
 GPU-Accelerated Sparse Matrix-Matrix Multiplication for
 Linear Scaling Density Functional Theory.
 https://dx.doi.org/10.1002/9781118670712.ch8

 Borstnik, U; VandeVondele, J; Weber, V; Hutter, J. 
 PARALLEL COMPUTING, 40 (5-6), 47-58 (2014). 
 Sparse matrix multiplication: The distributed block-compressed sparse
 row library.
 https://dx.doi.org/10.1016/j.parco.2014.03.012

 Hutter, J; Iannuzzi, M; Schiffmann, F; VandeVondele, J. 
 WIREs Comput Mol Sci., 4 (1), 15-25 (2014). 
 CP2K: atomistic simulations of condensed matter systems.
 https://dx.doi.org/10.1002/wcms.1159

 Krack, M. 
 THEORETICAL CHEMISTRY ACCOUNTS, 114 (1-3), 145-152 (2005). 
 Pseudopotentials for H to Kr optimized for gradient-corrected
 exchange-correlation functionals.
 https://dx.doi.org/10.1007/s00214-005-0655-y

 VandeVondele, J; Krack, M; Mohamed, F; Parrinello, M; Chassaing, T;
 Hutter, J. COMPUTER PHYSICS COMMUNICATIONS, 167 (2), 103-128 (2005). 
 QUICKSTEP: Fast and accurate density functional calculations using a
 mixed Gaussian and plane waves approach.
 https://dx.doi.org/10.1016/j.cpc.2004.12.014

 Frigo, M; Johnson, SG. 
 PROCEEDINGS OF THE IEEE, 93 (2), 216-231 (2005). 
 The design and implementation of FFTW3.
 https://dx.doi.org/10.1109/JPROC.2004.840301

 Hartwigsen, C; Goedecker, S; Hutter, J. 
 PHYSICAL REVIEW B, 58 (7), 3641-3662 (1998). 
 Relativistic separable dual-space Gaussian pseudopotentials from H to Rn.
 https://dx.doi.org/10.1103/PhysRevB.58.3641

 Lippert, G; Hutter, J; Parrinello, M. 
 MOLECULAR PHYSICS, 92 (3), 477-487 (1997). 
 A hybrid Gaussian and plane wave density functional scheme.
 https://dx.doi.org/10.1080/002689797170220

 Goedecker, S; Teter, M; Hutter, J. 
 PHYSICAL REVIEW B, 54 (3), 1703-1710 (1996). 
 Separable dual-space Gaussian pseudopotentials.
 https://dx.doi.org/10.1103/PhysRevB.54.1703


 -------------------------------------------------------------------------------
 -                                                                             -
 -                                T I M I N G                                  -
 -                                                                             -
 -------------------------------------------------------------------------------
 SUBROUTINE                       CALLS  ASD         SELF TIME        TOTAL TIME
                                MAXIMUM       AVERAGE  MAXIMUM  AVERAGE  MAXIMUM
 CP2K                                 1  1.0    0.977    0.977 7226.843 7226.843
 qs_forces                            1  2.0    0.000    0.000 7215.490 7215.490
 qs_energies                          1  3.0    0.000    0.000 7212.171 7212.171
 scf_env_do_scf                       1  4.0    0.001    0.001 7199.308 7199.308
 scf_env_do_scf_inner_loop          300  5.0    0.053    0.053 7199.307 7199.307
 gspace_mixing                      299  6.0   42.136   42.136 2985.783 2985.783
 broyden_mixing                     299  7.0 2696.105 2696.105 2696.109 2696.109
 qs_scf_new_mos                     300  6.0    0.009    0.009 1964.067 1964.067
 eigensolver                        300  7.0    0.033    0.033 1892.445 1892.445
 cp_fm_syevd                        300  8.0 1277.365 1277.365 1278.626 1278.626
 pw_transfer                       3912  9.9    0.386    0.386 1187.321 1187.321
 rebuild_ks_matrix                  301  7.0    0.001    0.001 1163.919 1163.919
 qs_ks_build_kohn_sham_matrix       301  8.0    0.119    0.119 1163.918 1163.918
 qs_ks_update_qs_env                300  6.0    0.004    0.004 1160.979 1160.979
 fft_wrap_pw1pw2                   3310 10.9    0.051    0.051 1155.637 1155.637
 qs_rho_update_rho                  301  6.0    0.003    0.003 1090.182 1090.182
 calculate_rho_elec                 301  7.0  534.600  534.600 1090.179 1090.179
 fft_wrap_pw1pw2_70                1504 11.2   91.093   91.093 1047.423 1047.423
 cp_fm_cholesky_restore             900  8.0  612.726  612.726  612.726  612.726
 fft3d_s                           3311 12.9  554.618  554.618  554.714  554.714
 density_rs2pw                      301  8.0    0.030    0.030  545.624  545.624
 pw_scatter_s                      1804 13.2  410.515  410.515  410.515  410.515
 pw_poisson_solve                   301  9.0  331.958  331.958  363.607  363.607
 sum_up_and_integrate               301  9.0   17.611   17.611  340.615  340.615
 integrate_v_rspace                 301 10.0   10.508   10.508  323.003  323.003
 potential_pw2rs                    301 11.0    2.583    2.583  286.661  286.661
 qs_vxc_create                      301  9.0    0.008    0.008  166.552  166.552
 xc_vxc_pw_create                   301 10.0   42.292   42.292  166.544  166.544
 -------------------------------------------------------------------------------

 The number of warnings for this run is : 1
 
 -------------------------------------------------------------------------------
  **** **** ******  **  PROGRAM ENDED AT                 2020-05-30 01:10:06.993
 ***** ** ***  *** **   PROGRAM RAN ON                                   gnode44
 **    ****   ******    PROGRAM RAN BY                               mayank.modi
 ***** **    ** ** **   PROGRAM PROCESS ID                                   535
  **** **  *******  **  PROGRAM STOPPED IN /home/mayank.modi/ab-initio-thermodyn
                                           amics-of-water/mayank/cp2k_energy_cal
                                           culations
