 DBCSR| CPU Multiplication driver                                           XSMM
 DBCSR| Multrec recursion limit                                              512
 DBCSR| Multiplication stack size                                           1000
 DBCSR| Maximum elements for images                                    UNLIMITED
 DBCSR| Multiplicative factor virtual images                                   1
 DBCSR| Use multiplication densification                                       T
 DBCSR| Multiplication size stacks                                             3


  **** **** ******  **  PROGRAM STARTED AT               2020-05-27 00:04:43.047
 ***** ** ***  *** **   PROGRAM STARTED ON                               gnode44
 **    ****   ******    PROGRAM STARTED BY                           mayank.modi
 ***** **    ** ** **   PROGRAM PROCESS ID                                 27371
  **** **  *******  **  PROGRAM STARTED IN /home/mayank.modi/ab-initio-thermodyn
                                           amics-of-water/mayank/cp2k_energy_cal
                                           culations

 CP2K| version string:                                          CP2K version 7.1
 CP2K| source code revision number:                                  git:e635599
 CP2K| cp2kflags: omp libint fftw3 libxc xsmm spglib                            
 CP2K| is freely available from                            https://www.cp2k.org/
 CP2K| Program compiled at                          Mon Dec 23 19:23:12 CET 2019
 CP2K| Program compiled on                                                pc9404
 CP2K| Program compiled for                                Linux-x86-64-gfortran
 CP2K| Data directory path                                        /opt/cp2k/data
 CP2K| Input file name                                  input_training/input4.in

 GLOBAL| Force Environment number                                              1
 GLOBAL| Basis set file name                                           BASIS_SET
 GLOBAL| Potential file name                                      GTH_POTENTIALS
 GLOBAL| MM Potential file name                                     MM_POTENTIAL
 GLOBAL| Coordinate file name                                      __STD_INPUT__
 GLOBAL| Method name                                                        CP2K
 GLOBAL| Project name                                                   H2O_bulk
 GLOBAL| Preferred FFT library                                             FFTW3
 GLOBAL| Preferred diagonalization lib.                                       SL
 GLOBAL| Run type                                                   ENERGY_FORCE
 GLOBAL| All-to-all communication in single precision                          F
 GLOBAL| FFTs using library dependent lengths                                  F
 GLOBAL| Global print level                                                  LOW
 GLOBAL| MPI I/O enabled                                                       T
 GLOBAL| Total number of message passing processes                             1
 GLOBAL| Number of threads for this process                                   36
 GLOBAL| This output is from process                                           0
 GLOBAL| CPU model name                Intel(R) Xeon(R) CPU E5-2640 v4 @ 2.40GHz
 GLOBAL| CPUID                                                              1002
 GLOBAL| Compiled for CPUID                                                    0

 MEMORY| system memory details [Kb]
 MEMORY|                        rank 0           min           max       average
 MEMORY| MemTotal            131893056     131893056     131893056     131893056
 MEMORY| MemFree             121492680     121492680     121492680     121492680
 MEMORY| Buffers               2078144       2078144       2078144       2078144
 MEMORY| Cached                2778916       2778916       2778916       2778916
 MEMORY| Slab                  3292556       3292556       3292556       3292556
 MEMORY| SReclaimable          3097032       3097032       3097032       3097032
 MEMORY| MemLikelyFree       129446772     129446772     129446772     129446772


 GENERATE| WARNING:: No connections detected for Hydrogen - Atom Nr:        21 !
 GENERATE| WARNING:: No connections detected for Hydrogen - Atom Nr:        38 !
 GENERATE| WARNING:: No connections detected for Hydrogen - Atom Nr:        39 !
 GENERATE| WARNING:: No connections detected for Hydrogen - Atom Nr:        42 !
 GENERATE| WARNING:: No connections detected for Hydrogen - Atom Nr:        51 !
 GENERATE| WARNING:: No connections detected for Hydrogen - Atom Nr:        56 !
 GENERATE| WARNING:: No connections detected for Hydrogen - Atom Nr:        77 !
 GENERATE| WARNING:: No connections detected for Hydrogen - Atom Nr:       101 !
 GENERATE| WARNING:: No connections detected for Hydrogen - Atom Nr:       143 !
 GENERATE| WARNING:: No connections detected for Hydrogen - Atom Nr:       153 !
 GENERATE| WARNING:: No connections detected for Hydrogen - Atom Nr:       176 !
 GENERATE| WARNING:: No connections detected for Hydrogen - Atom Nr:       179 !
 GENERATE| WARNING:: No connections detected for Hydrogen - Atom Nr:       191 !
 GENERATE|  Preliminary Number of Bonds generated:                             0
 GENERATE|  Achieved consistency in connectivity generation.

 *******************************************************************************
 *******************************************************************************
 **                                                                           **
 **     #####                         ##              ##                      **
 **    ##   ##            ##          ##              ##                      **
 **   ##     ##                       ##            ######                    **
 **   ##     ##  ##   ##  ##   #####  ##  ##   ####   ##    #####    #####    **
 **   ##     ##  ##   ##  ##  ##      ## ##   ##      ##   ##   ##  ##   ##   **
 **   ##  ## ##  ##   ##  ##  ##      ####     ###    ##   ######   ######    **
 **    ##  ###   ##   ##  ##  ##      ## ##      ##   ##   ##       ##        **
 **     #######   #####   ##   #####  ##  ##  ####    ##    #####   ##        **
 **           ##                                                    ##        **
 **                                                                           **
 **                                                ... make the atoms dance   **
 **                                                                           **
 **            Copyright (C) by CP2K developers group (2000 - 2019)           **
 **                                                                           **
 *******************************************************************************


 TOTAL NUMBERS AND MAXIMUM NUMBERS

  Total number of            - Atomic kinds:                                   2
                             - Atoms:                                        192
                             - Shell sets:                                   384
                             - Shells:                                       704
                             - Primitive Cartesian functions:                960
                             - Cartesian basis functions:                   1536
                             - Spherical basis functions:                   1472

  Maximum angular momentum of- Orbital basis functions:                        2
                             - Local part of the GTH pseudopotential:          2
                             - Non-local part of the GTH pseudopotential:      0


 SCF PARAMETERS         Density guess:                                    ATOMIC
                        --------------------------------------------------------
                        max_scf:                                             300
                        max_scf_history:                                       0
                        max_diis:                                              4
                        --------------------------------------------------------
                        eps_scf:                                        1.00E-07
                        eps_scf_history:                                0.00E+00
                        eps_diis:                                       1.00E-01
                        eps_eigval:                                     1.00E-05
                        --------------------------------------------------------
                        level_shift [a.u.]:                                 0.00
                        --------------------------------------------------------
                        Mixing method:                            BROYDEN_MIXING
                                                charge density mixing in g-space
                        --------------------------------------------------------
                        No outer SCF

 Number of electrons:                                                        512
 Number of occupied orbitals:                                                256
 Number of molecular orbitals:                                               256

 Number of orbital functions:                                               1472
 Number of independent orbital functions:                                   1472

 Extrapolation method: initial_guess


 SCF WAVEFUNCTION OPTIMIZATION

  Step     Update method      Time    Convergence         Total energy    Change
  ------------------------------------------------------------------------------
     1 NoMix/Diag. 0.40E+00   10.3     0.68793960     -1063.4094126871 -1.06E+03
     2 Broy./Diag. 0.40E+00   15.1     1.95964618      -985.2882019290  7.81E+01
     3 Broy./Diag. 0.40E+00   17.2     1.91184033     -1292.7745651909 -3.07E+02
     4 Broy./Diag. 0.40E+00   17.8     1.86558519     -1151.7590996802  1.41E+02
     5 Broy./Diag. 0.40E+00   17.3     1.98488135     -1110.7315018271  4.10E+01
     6 Broy./Diag. 0.40E+00   19.5     1.96332471     -1092.1360924978  1.86E+01
     7 Broy./Diag. 0.40E+00   20.5     1.88855810     -1114.9549373325 -2.28E+01
     8 Broy./Diag. 0.40E+00   21.6     1.96727531     -1083.8852493264  3.11E+01
     9 Broy./Diag. 0.40E+00   22.3     1.81029660     -1078.5272430194  5.36E+00
    10 Broy./Diag. 0.40E+00   24.2     1.91179152     -1084.0771028320 -5.55E+00
    11 Broy./Diag. 0.40E+00   23.7     1.84977112     -1082.6220366670  1.46E+00
    12 Broy./Diag. 0.40E+00   24.3     1.96949549     -1094.0959746852 -1.15E+01
    13 Broy./Diag. 0.40E+00   24.3     1.83961263     -1047.5258467095  4.66E+01
    14 Broy./Diag. 0.40E+00   24.0     1.89871445     -1108.2700142718 -6.07E+01
    15 Broy./Diag. 0.40E+00   23.8     1.86784891     -1092.0330155247  1.62E+01
    16 Broy./Diag. 0.40E+00   23.9     1.97888803     -1069.1932239784  2.28E+01
    17 Broy./Diag. 0.40E+00   24.2     1.94644952     -1081.2956420214 -1.21E+01
    18 Broy./Diag. 0.40E+00   23.8     1.87242592     -1071.9608064635  9.33E+00
    19 Broy./Diag. 0.40E+00   23.9     1.92360192     -1061.0446081673  1.09E+01
    20 Broy./Diag. 0.40E+00   23.8     1.86296620     -1074.5191102080 -1.35E+01
    21 Broy./Diag. 0.40E+00   23.8     1.81219346     -1083.9225915259 -9.40E+00
    22 Broy./Diag. 0.40E+00   24.0     1.84234519     -1065.4293259176  1.85E+01
    23 Broy./Diag. 0.40E+00   24.3     1.88241445     -1090.8035700151 -2.54E+01
    24 Broy./Diag. 0.40E+00   24.1     1.94559947     -1080.4064937853  1.04E+01
    25 Broy./Diag. 0.40E+00   23.9     1.86981087     -1063.9453843999  1.65E+01
    26 Broy./Diag. 0.40E+00   23.8     1.87232162     -1086.0777884769 -2.21E+01
    27 Broy./Diag. 0.40E+00   23.6     1.94710184     -1069.9912173502  1.61E+01
    28 Broy./Diag. 0.40E+00   22.0     1.84954235     -1079.6070999446 -9.62E+00
    29 Broy./Diag. 0.40E+00   21.9     1.87775931     -1069.1166887455  1.05E+01
    30 Broy./Diag. 0.40E+00   23.7     1.95717141     -1077.2910990062 -8.17E+00
    31 Broy./Diag. 0.40E+00   24.4     1.87638361     -1084.0033806017 -6.71E+00
    32 Broy./Diag. 0.40E+00   24.2     1.89615201     -1071.4119220148  1.26E+01
    33 Broy./Diag. 0.40E+00   23.9     1.86445010     -1062.4349606982  8.98E+00
    34 Broy./Diag. 0.40E+00   24.0     1.93606510     -1076.2374917072 -1.38E+01
    35 Broy./Diag. 0.40E+00   24.0     1.87752532     -1077.2625241139 -1.03E+00
    36 Broy./Diag. 0.40E+00   24.2     1.92265428     -1075.3302533918  1.93E+00
    37 Broy./Diag. 0.40E+00   23.9     1.82356714     -1079.0549129908 -3.72E+00
    38 Broy./Diag. 0.40E+00   24.0     1.88844358     -1072.3312495028  6.72E+00
    39 Broy./Diag. 0.40E+00   24.1     1.95274571     -1074.4991440049 -2.17E+00
    40 Broy./Diag. 0.40E+00   24.1     1.90701395     -1064.0033024723  1.05E+01
    41 Broy./Diag. 0.40E+00   24.0     1.87095979     -1079.6780243682 -1.57E+01
    42 Broy./Diag. 0.40E+00   24.4     1.89734693     -1070.7858286684  8.89E+00
    43 Broy./Diag. 0.40E+00   24.1     1.90424586     -1087.5470750786 -1.68E+01
    44 Broy./Diag. 0.40E+00   23.9     1.89924167     -1072.4286950735  1.51E+01
    45 Broy./Diag. 0.40E+00   23.8     1.97339552     -1073.8928851621 -1.46E+00
    46 Broy./Diag. 0.40E+00   23.8     1.98053264     -1060.8437731435  1.30E+01
    47 Broy./Diag. 0.40E+00   24.0     1.91441369     -1080.8886295785 -2.00E+01
    48 Broy./Diag. 0.40E+00   22.5     1.91428862     -1072.9513499691  7.94E+00
    49 Broy./Diag. 0.40E+00   23.2     1.86685347     -1078.5043417985 -5.55E+00
    50 Broy./Diag. 0.40E+00   23.8     1.90620434     -1087.5587175435 -9.05E+00
    51 Broy./Diag. 0.40E+00   23.1     1.87609752     -1072.4547859841  1.51E+01
    52 Broy./Diag. 0.40E+00   23.6     1.87565318     -1066.7607174182  5.69E+00
    53 Broy./Diag. 0.40E+00   23.7     1.89320953     -1069.0828374356 -2.32E+00
    54 Broy./Diag. 0.40E+00   24.6     1.89309874     -1063.3504651718  5.73E+00
    55 Broy./Diag. 0.40E+00   23.9     1.93042583     -1079.4917703148 -1.61E+01
    56 Broy./Diag. 0.40E+00   24.6     1.89397153     -1075.3266752416  4.17E+00
    57 Broy./Diag. 0.40E+00   25.6     1.95048906     -1080.6284438996 -5.30E+00
    58 Broy./Diag. 0.40E+00   23.7     1.86987961     -1068.2410397273  1.24E+01
    59 Broy./Diag. 0.40E+00   23.8     1.86311595     -1078.7381549277 -1.05E+01
    60 Broy./Diag. 0.40E+00   23.9     1.91921808     -1071.6316741670  7.11E+00
    61 Broy./Diag. 0.40E+00   24.1     1.88264506     -1069.6548089908  1.98E+00
    62 Broy./Diag. 0.40E+00   24.0     1.92101878     -1070.7684948952 -1.11E+00
    63 Broy./Diag. 0.40E+00   24.0     1.91250129     -1080.7110822929 -9.94E+00
    64 Broy./Diag. 0.40E+00   24.4     1.91395701     -1078.5159416052  2.20E+00
    65 Broy./Diag. 0.40E+00   24.4     1.96368036     -1067.5072248312  1.10E+01
    66 Broy./Diag. 0.40E+00   24.3     1.88736185     -1083.2296971884 -1.57E+01
    67 Broy./Diag. 0.40E+00   24.2     1.82297305     -1072.2766864425  1.10E+01
    68 Broy./Diag. 0.40E+00   24.1     1.81810492     -1071.1959484233  1.08E+00
    69 Broy./Diag. 0.40E+00   24.1     1.85918088     -1064.3639564413  6.83E+00
    70 Broy./Diag. 0.40E+00   24.3     1.87720551     -1077.1766442355 -1.28E+01
    71 Broy./Diag. 0.40E+00   24.0     1.89062710     -1078.3140816839 -1.14E+00
    72 Broy./Diag. 0.40E+00   24.4     1.94999746     -1078.2946339577  1.94E-02
    73 Broy./Diag. 0.40E+00   24.1     1.92044212     -1076.4736013506  1.82E+00
    74 Broy./Diag. 0.40E+00   24.0     1.92051788     -1065.1522451616  1.13E+01
    75 Broy./Diag. 0.40E+00   24.1     1.92416742     -1073.1615271805 -8.01E+00
    76 Broy./Diag. 0.40E+00   24.0     1.82043135     -1083.7357369860 -1.06E+01
    77 Broy./Diag. 0.40E+00   24.6     1.91641494     -1072.3753217292  1.14E+01
    78 Broy./Diag. 0.40E+00   24.3     1.93551159     -1075.5424757991 -3.17E+00
    79 Broy./Diag. 0.40E+00   24.1     1.89621892     -1072.6114793577  2.93E+00
    80 Broy./Diag. 0.40E+00   24.3     1.91464606     -1076.7714667562 -4.16E+00
    81 Broy./Diag. 0.40E+00   24.0     1.90684016     -1077.2413303573 -4.70E-01
    82 Broy./Diag. 0.40E+00   24.2     1.84979600     -1066.6916612329  1.05E+01
    83 Broy./Diag. 0.40E+00   25.0     1.91714162     -1078.6607099881 -1.20E+01
    84 Broy./Diag. 0.40E+00   23.6     1.92723467     -1075.0834591575  3.58E+00
    85 Broy./Diag. 0.40E+00   23.5     1.85108276     -1064.5232875093  1.06E+01
    86 Broy./Diag. 0.40E+00   23.2     1.87269980     -1078.5359598503 -1.40E+01
    87 Broy./Diag. 0.40E+00   23.7     1.93735085     -1068.8028323703  9.73E+00
    88 Broy./Diag. 0.40E+00   23.4     1.89193140     -1076.8834447943 -8.08E+00
    89 Broy./Diag. 0.40E+00   24.0     1.92472634     -1080.9574614308 -4.07E+00
    90 Broy./Diag. 0.40E+00   23.8     1.93231093     -1068.4339909180  1.25E+01
    91 Broy./Diag. 0.40E+00   23.1     1.90325429     -1078.1124443238 -9.68E+00
    92 Broy./Diag. 0.40E+00   23.5     1.96718852     -1071.3330229420  6.78E+00
    93 Broy./Diag. 0.40E+00   23.9     1.94355800     -1072.0541463035 -7.21E-01
    94 Broy./Diag. 0.40E+00   24.2     1.93385913     -1075.0727466121 -3.02E+00
    95 Broy./Diag. 0.40E+00   24.3     1.89858403     -1072.8703018211  2.20E+00
    96 Broy./Diag. 0.40E+00   24.5     1.85601378     -1072.4984645961  3.72E-01
    97 Broy./Diag. 0.40E+00   24.2     1.93224612     -1077.4371909205 -4.94E+00
    98 Broy./Diag. 0.40E+00   24.0     1.78518305     -1073.3893261347  4.05E+00
    99 Broy./Diag. 0.40E+00   24.0     1.81109828     -1077.1519443834 -3.76E+00
   100 Broy./Diag. 0.40E+00   24.2     1.89591444     -1072.5404244268  4.61E+00
   101 Broy./Diag. 0.40E+00   24.3     1.86294093     -1067.0609441394  5.48E+00
   102 Broy./Diag. 0.40E+00   24.1     1.97190729     -1072.4936421758 -5.43E+00
   103 Broy./Diag. 0.40E+00   24.0     1.95210412     -1079.8658158856 -7.37E+00
   104 Broy./Diag. 0.40E+00   23.9     1.90928053     -1073.4932951772  6.37E+00
   105 Broy./Diag. 0.40E+00   24.2     1.92542173     -1071.1637144148  2.33E+00
   106 Broy./Diag. 0.40E+00   23.9     1.96003044     -1082.5864519149 -1.14E+01
   107 Broy./Diag. 0.40E+00   24.4     1.89521628     -1067.0297247406  1.56E+01
   108 Broy./Diag. 0.40E+00   24.7     1.86218962     -1070.1046975272 -3.07E+00
   109 Broy./Diag. 0.40E+00   23.5     1.94699428     -1075.3082771643 -5.20E+00
   110 Broy./Diag. 0.40E+00   24.2     1.91112102     -1072.1513657104  3.16E+00
   111 Broy./Diag. 0.40E+00   24.6     1.89887558     -1074.7432266637 -2.59E+00
   112 Broy./Diag. 0.40E+00   24.1     1.87648250     -1082.4012077049 -7.66E+00
   113 Broy./Diag. 0.40E+00   24.2     1.87648203     -1063.7575679672  1.86E+01
   114 Broy./Diag. 0.40E+00   24.1     1.97925536     -1086.8720338034 -2.31E+01
   115 Broy./Diag. 0.40E+00   24.2     1.94251013     -1075.0909564780  1.18E+01
   116 Broy./Diag. 0.40E+00   24.3     1.87901708     -1071.0544324409  4.04E+00
   117 Broy./Diag. 0.40E+00   24.2     1.93758011     -1072.3463568342 -1.29E+00
   118 Broy./Diag. 0.40E+00   24.3     1.90300636     -1074.3260372420 -1.98E+00
   119 Broy./Diag. 0.40E+00   24.0     1.93389329     -1078.0097341011 -3.68E+00
   120 Broy./Diag. 0.40E+00   24.3     1.92233711     -1077.4550065096  5.55E-01
   121 Broy./Diag. 0.40E+00   24.8     1.87096647     -1067.6771188836  9.78E+00
   122 Broy./Diag. 0.40E+00   24.2     1.87707406     -1069.9077211650 -2.23E+00
   123 Broy./Diag. 0.40E+00   23.7     1.87178615     -1078.7414251248 -8.83E+00
   124 Broy./Diag. 0.40E+00   23.3     1.90811073     -1065.6963986421  1.30E+01
   125 Broy./Diag. 0.40E+00   22.1     1.88981053     -1075.3792317199 -9.68E+00
   126 Broy./Diag. 0.40E+00   24.4     1.92183888     -1080.8430964844 -5.46E+00
   127 Broy./Diag. 0.40E+00   23.6     1.96522551     -1079.9254556653  9.18E-01
   128 Broy./Diag. 0.40E+00   23.5     1.90846286     -1071.6061819618  8.32E+00
   129 Broy./Diag. 0.40E+00   24.3     1.90920625     -1067.6228579754  3.98E+00
   130 Broy./Diag. 0.40E+00   24.1     1.87270247     -1074.6227869707 -7.00E+00
   131 Broy./Diag. 0.40E+00   24.3     1.95240156     -1078.2791438893 -3.66E+00
   132 Broy./Diag. 0.40E+00   24.1     1.90576491     -1078.7938498920 -5.15E-01
   133 Broy./Diag. 0.40E+00   24.0     1.88854227     -1064.0329788264  1.48E+01
   134 Broy./Diag. 0.40E+00   23.8     1.95740257     -1072.4244803289 -8.39E+00
   135 Broy./Diag. 0.40E+00   24.0     1.90484175     -1079.0084578720 -6.58E+00
   136 Broy./Diag. 0.40E+00   25.2     1.91265022     -1074.0578912641  4.95E+00
   137 Broy./Diag. 0.40E+00   24.0     1.93681605     -1080.0606807370 -6.00E+00
   138 Broy./Diag. 0.40E+00   23.9     1.84973509     -1070.7839916048  9.28E+00
   139 Broy./Diag. 0.40E+00   23.9     1.89736516     -1065.8372782743  4.95E+00
   140 Broy./Diag. 0.40E+00   23.7     1.86825275     -1076.6805154972 -1.08E+01
   141 Broy./Diag. 0.40E+00   24.0     1.99271109     -1072.5824267079  4.10E+00
   142 Broy./Diag. 0.40E+00   22.7     1.92024251     -1074.4411518088 -1.86E+00
   143 Broy./Diag. 0.40E+00   23.5     1.91039863     -1074.2551251804  1.86E-01
   144 Broy./Diag. 0.40E+00   23.5     1.95017421     -1073.8273721143  4.28E-01
   145 Broy./Diag. 0.40E+00   23.9     1.88613674     -1084.8699347199 -1.10E+01
   146 Broy./Diag. 0.40E+00   24.4     1.92889236     -1063.7170029648  2.12E+01
   147 Broy./Diag. 0.40E+00   24.5     1.90963531     -1074.9802504696 -1.13E+01
   148 Broy./Diag. 0.40E+00   24.8     1.91039906     -1075.1760892971 -1.96E-01
   149 Broy./Diag. 0.40E+00   24.2     1.92050096     -1084.6906742802 -9.51E+00
   150 Broy./Diag. 0.40E+00   24.1     1.94004058     -1063.3981845744  2.13E+01
   151 Broy./Diag. 0.40E+00   24.3     1.96127162     -1076.7802394263 -1.34E+01
   152 Broy./Diag. 0.40E+00   24.2     1.85086081     -1078.9324563046 -2.15E+00
   153 Broy./Diag. 0.40E+00   24.5     1.88469533     -1082.6831536184 -3.75E+00
   154 Broy./Diag. 0.40E+00   24.0     1.94450431     -1078.4874747148  4.20E+00
   155 Broy./Diag. 0.40E+00   24.1     1.95821951     -1067.8028893844  1.07E+01
   156 Broy./Diag. 0.40E+00   24.2     1.95914006     -1068.3168375360 -5.14E-01
   157 Broy./Diag. 0.40E+00   24.4     1.88277306     -1064.2620990717  4.05E+00
   158 Broy./Diag. 0.40E+00   24.2     1.93969120     -1081.7512568225 -1.75E+01
   159 Broy./Diag. 0.40E+00   24.3     1.92052733     -1069.5505006982  1.22E+01
   160 Broy./Diag. 0.40E+00   24.1     1.89405571     -1079.4094812087 -9.86E+00
   161 Broy./Diag. 0.40E+00   23.9     1.89413645     -1064.3467879018  1.51E+01
   162 Broy./Diag. 0.40E+00   23.8     1.87918701     -1069.0828322590 -4.74E+00
   163 Broy./Diag. 0.40E+00   24.2     1.88880996     -1083.7757657259 -1.47E+01
   164 Broy./Diag. 0.40E+00   24.4     1.92863947     -1076.8681175850  6.91E+00
   165 Broy./Diag. 0.40E+00   24.1     1.92281126     -1072.5726023998  4.30E+00
   166 Broy./Diag. 0.40E+00   25.1     1.89485696     -1066.7805664269  5.79E+00
   167 Broy./Diag. 0.40E+00   25.0     1.94083981     -1080.3664571445 -1.36E+01
   168 Broy./Diag. 0.40E+00   23.9     1.87370995     -1068.4231036139  1.19E+01
   169 Broy./Diag. 0.40E+00   23.1     1.94905206     -1073.5143464582 -5.09E+00
   170 Broy./Diag. 0.40E+00   23.4     1.94903344     -1078.1524671159 -4.64E+00
   171 Broy./Diag. 0.40E+00   23.4     1.91829424     -1076.0634047816  2.09E+00
   172 Broy./Diag. 0.40E+00   24.3     1.90517632     -1064.1895382354  1.19E+01
   173 Broy./Diag. 0.40E+00   23.9     1.88115306     -1072.0289169686 -7.84E+00
   174 Broy./Diag. 0.40E+00   24.1     1.89219372     -1067.7166495038  4.31E+00
   175 Broy./Diag. 0.40E+00   23.7     1.94088877     -1084.0913382676 -1.64E+01
   176 Broy./Diag. 0.40E+00   23.7     1.82444465     -1072.5805274730  1.15E+01
   177 Broy./Diag. 0.40E+00   24.4     1.88761036     -1065.8709918516  6.71E+00
   178 Broy./Diag. 0.40E+00   21.6     1.92850439     -1084.6608710806 -1.88E+01
   179 Broy./Diag. 0.40E+00   24.0     1.93346737     -1079.7456292632  4.92E+00
   180 Broy./Diag. 0.40E+00   23.6     1.92522907     -1065.3364797025  1.44E+01
   181 Broy./Diag. 0.40E+00   23.3     1.95112285     -1087.3900935497 -2.21E+01
   182 Broy./Diag. 0.40E+00   24.4     1.95531939     -1072.4736153658  1.49E+01
   183 Broy./Diag. 0.40E+00   24.7     1.92756372     -1075.2707012946 -2.80E+00
   184 Broy./Diag. 0.40E+00   24.3     1.85491156     -1060.7456406888  1.45E+01
   185 Broy./Diag. 0.40E+00   24.0     1.89111091     -1070.8643794889 -1.01E+01
   186 Broy./Diag. 0.40E+00   24.2     1.89571364     -1076.0882000655 -5.22E+00
   187 Broy./Diag. 0.40E+00   23.6     1.86565051     -1069.6681831057  6.42E+00
   188 Broy./Diag. 0.40E+00   23.5     1.95244735     -1078.2385801803 -8.57E+00
   189 Broy./Diag. 0.40E+00   24.4     1.78641686     -1074.1851267825  4.05E+00
   190 Broy./Diag. 0.40E+00   24.1     1.88003183     -1079.6108330973 -5.43E+00
   191 Broy./Diag. 0.40E+00   22.1     1.93802218     -1082.0496909507 -2.44E+00
   192 Broy./Diag. 0.40E+00   23.8     1.87327905     -1059.9232819279  2.21E+01
   193 Broy./Diag. 0.40E+00   23.7     1.91383012     -1081.4389571578 -2.15E+01
   194 Broy./Diag. 0.40E+00   24.0     1.94991119     -1071.6298935799  9.81E+00
   195 Broy./Diag. 0.40E+00   24.0     1.87340703     -1085.3250415480 -1.37E+01
   196 Broy./Diag. 0.40E+00   22.6     1.91387400     -1074.7232189500  1.06E+01
   197 Broy./Diag. 0.40E+00   24.1     1.94380224     -1074.3772718040  3.46E-01
   198 Broy./Diag. 0.40E+00   24.1     1.84565509     -1072.9121278760  1.47E+00
   199 Broy./Diag. 0.40E+00   23.9     1.87579639     -1072.4053496669  5.07E-01
   200 Broy./Diag. 0.40E+00   24.1     1.91369906     -1073.1608942058 -7.56E-01
   201 Broy./Diag. 0.40E+00   23.3     1.91300606     -1070.6775205009  2.48E+00
   202 Broy./Diag. 0.40E+00   24.0     1.86856291     -1083.5684204758 -1.29E+01
   203 Broy./Diag. 0.40E+00   23.8     1.94576818     -1073.9252280768  9.64E+00
   204 Broy./Diag. 0.40E+00   23.4     1.89439935     -1072.9851194064  9.40E-01
   205 Broy./Diag. 0.40E+00   23.7     1.90269197     -1070.4236808521  2.56E+00
   206 Broy./Diag. 0.40E+00   23.3     1.90202804     -1071.0994006973 -6.76E-01
   207 Broy./Diag. 0.40E+00   23.6     1.89657885     -1069.4702964425  1.63E+00
   208 Broy./Diag. 0.40E+00   23.4     1.94488191     -1084.1897774317 -1.47E+01
   209 Broy./Diag. 0.40E+00   22.6     1.92166876     -1065.3073931689  1.89E+01
   210 Broy./Diag. 0.40E+00   22.7     1.88414349     -1076.6081274544 -1.13E+01
   211 Broy./Diag. 0.40E+00   23.6     1.92793252     -1071.5140141542  5.09E+00
   212 Broy./Diag. 0.40E+00   23.9     1.87870053     -1080.2878630723 -8.77E+00
   213 Broy./Diag. 0.40E+00   24.3     1.89273396     -1076.7091615244  3.58E+00
   214 Broy./Diag. 0.40E+00   23.9     1.88740529     -1069.0490492330  7.66E+00
   215 Broy./Diag. 0.40E+00   24.1     1.91970020     -1071.5008710090 -2.45E+00
   216 Broy./Diag. 0.40E+00   23.8     1.84348673     -1071.8179751056 -3.17E-01
   217 Broy./Diag. 0.40E+00   23.7     1.78150243     -1065.5235421530  6.29E+00
   218 Broy./Diag. 0.40E+00   23.8     1.86427039     -1078.3040574880 -1.28E+01
   219 Broy./Diag. 0.40E+00   23.9     1.92479422     -1077.8788405574  4.25E-01
   220 Broy./Diag. 0.40E+00   24.5     1.97111644     -1073.4090637925  4.47E+00
   221 Broy./Diag. 0.40E+00   24.7     1.87744723     -1068.2082491417  5.20E+00
   222 Broy./Diag. 0.40E+00   25.0     1.96335215     -1070.6215878592 -2.41E+00
   223 Broy./Diag. 0.40E+00   24.3     1.93193128     -1078.1319815508 -7.51E+00
   224 Broy./Diag. 0.40E+00   25.1     1.85739620     -1073.9072165741  4.22E+00
   225 Broy./Diag. 0.40E+00   24.4     1.91770649     -1069.8397529305  4.07E+00
   226 Broy./Diag. 0.40E+00   24.5     1.90922170     -1080.0245004602 -1.02E+01
   227 Broy./Diag. 0.40E+00   24.3     1.91033656     -1073.5642304698  6.46E+00
   228 Broy./Diag. 0.40E+00   24.3     2.01713654     -1069.1086661516  4.46E+00
   229 Broy./Diag. 0.40E+00   24.5     1.86950948     -1078.8770998492 -9.77E+00
   230 Broy./Diag. 0.40E+00   24.2     1.89981241     -1072.8563277804  6.02E+00
   231 Broy./Diag. 0.40E+00   24.5     1.96052214     -1069.8983776756  2.96E+00
   232 Broy./Diag. 0.40E+00   24.2     1.89632828     -1073.5542228040 -3.66E+00
   233 Broy./Diag. 0.40E+00   23.7     1.83708127     -1073.2815828053  2.73E-01
   234 Broy./Diag. 0.40E+00   24.0     1.90930707     -1076.2339429933 -2.95E+00
   235 Broy./Diag. 0.40E+00   24.3     1.96663259     -1084.9654596271 -8.73E+00
   236 Broy./Diag. 0.40E+00   22.3     1.79585135     -1069.5410318873  1.54E+01
   237 Broy./Diag. 0.40E+00   23.6     1.90366949     -1063.0017926682  6.54E+00
   238 Broy./Diag. 0.40E+00   23.7     1.95348295     -1077.2884610011 -1.43E+01
   239 Broy./Diag. 0.40E+00   23.8     1.81788552     -1079.9738864659 -2.69E+00
   240 Broy./Diag. 0.40E+00   23.7     1.90287042     -1070.6493331624  9.32E+00
   241 Broy./Diag. 0.40E+00   24.5     1.86832134     -1068.8649368356  1.78E+00
   242 Broy./Diag. 0.40E+00   22.7     1.87801218     -1091.2796530437 -2.24E+01
   243 Broy./Diag. 0.40E+00   24.3     1.92713927     -1066.6900606822  2.46E+01
   244 Broy./Diag. 0.40E+00   22.3     1.93872492     -1066.1728023286  5.17E-01
   245 Broy./Diag. 0.40E+00   23.6     1.90167081     -1075.7883767643 -9.62E+00
   246 Broy./Diag. 0.40E+00   23.8     1.91452239     -1071.4145015200  4.37E+00
   247 Broy./Diag. 0.40E+00   24.2     1.95416951     -1081.7723786710 -1.04E+01
   248 Broy./Diag. 0.40E+00   24.3     1.83706369     -1073.5776352400  8.19E+00
   249 Broy./Diag. 0.40E+00   24.3     1.89715934     -1079.2600201844 -5.68E+00
   250 Broy./Diag. 0.40E+00   23.8     1.95247431     -1073.5664439370  5.69E+00
   251 Broy./Diag. 0.40E+00   24.2     1.86726792     -1065.9823678530  7.58E+00
   252 Broy./Diag. 0.40E+00   22.8     1.89886787     -1065.2833133139  6.99E-01
   253 Broy./Diag. 0.40E+00   23.9     1.90965046     -1080.2063188206 -1.49E+01
   254 Broy./Diag. 0.40E+00   23.6     1.93247093     -1072.3677705281  7.84E+00
   255 Broy./Diag. 0.40E+00   24.3     1.89553078     -1085.1457792575 -1.28E+01
   256 Broy./Diag. 0.40E+00   24.3     1.94760033     -1069.8011096639  1.53E+01
   257 Broy./Diag. 0.40E+00   24.4     1.85479269     -1080.0387503278 -1.02E+01
   258 Broy./Diag. 0.40E+00   24.2     1.93152634     -1068.2354768204  1.18E+01
   259 Broy./Diag. 0.40E+00   24.5     1.95003747     -1079.8716560752 -1.16E+01
   260 Broy./Diag. 0.40E+00   24.6     1.89317461     -1067.8456637482  1.20E+01
   261 Broy./Diag. 0.40E+00   24.2     1.90135526     -1073.5755177178 -5.73E+00
   262 Broy./Diag. 0.40E+00   24.3     1.92150864     -1069.0626527382  4.51E+00
   263 Broy./Diag. 0.40E+00   23.9     1.94439760     -1083.1099740532 -1.40E+01
   264 Broy./Diag. 0.40E+00   25.0     1.90117318     -1064.8842756296  1.82E+01
   265 Broy./Diag. 0.40E+00   24.3     1.88822300     -1072.5842133400 -7.70E+00
   266 Broy./Diag. 0.40E+00   24.7     1.93474529     -1073.9210038869 -1.34E+00
   267 Broy./Diag. 0.40E+00   22.7     1.93486603     -1081.5727482238 -7.65E+00
   268 Broy./Diag. 0.40E+00   25.3     1.88824836     -1081.6657659587 -9.30E-02
   269 Broy./Diag. 0.40E+00   24.3     1.89179162     -1067.8188308435  1.38E+01
   270 Broy./Diag. 0.40E+00   22.8     1.96570111     -1071.9775881588 -4.16E+00
   271 Broy./Diag. 0.40E+00   21.8     1.87534871     -1068.0125003140  3.97E+00
   272 Broy./Diag. 0.40E+00   23.1     1.85895644     -1076.3331990356 -8.32E+00
   273 Broy./Diag. 0.40E+00   23.4     1.89522158     -1066.0439737246  1.03E+01
   274 Broy./Diag. 0.40E+00   23.0     1.90434686     -1078.7593431929 -1.27E+01
   275 Broy./Diag. 0.40E+00   22.3     1.90184428     -1072.4579774147  6.30E+00
   276 Broy./Diag. 0.40E+00   22.4     1.98031911     -1077.8854929316 -5.43E+00
   277 Broy./Diag. 0.40E+00   24.0     1.88905589     -1069.9092147734  7.98E+00
   278 Broy./Diag. 0.40E+00   24.0     1.98427170     -1078.3924626957 -8.48E+00
   279 Broy./Diag. 0.40E+00   24.3     1.84641080     -1067.9799364156  1.04E+01
   280 Broy./Diag. 0.40E+00   22.2     1.86564220     -1072.0653534904 -4.09E+00
   281 Broy./Diag. 0.40E+00   23.5     1.92869395     -1075.3199123011 -3.25E+00
   282 Broy./Diag. 0.40E+00   23.7     1.84321967     -1076.2544362509 -9.35E-01
   283 Broy./Diag. 0.40E+00   23.7     1.89451861     -1065.2358252512  1.10E+01
   284 Broy./Diag. 0.40E+00   24.4     1.95027760     -1072.8746497669 -7.64E+00
   285 Broy./Diag. 0.40E+00   23.6     1.87522558     -1072.6988641821  1.76E-01
   286 Broy./Diag. 0.40E+00   22.4     1.87414679     -1079.5277794054 -6.83E+00
   287 Broy./Diag. 0.40E+00   23.3     1.88796343     -1071.3548040926  8.17E+00
   288 Broy./Diag. 0.40E+00   23.2     1.91892709     -1079.9598854797 -8.61E+00
   289 Broy./Diag. 0.40E+00   23.8     1.88031577     -1069.9172165185  1.00E+01
   290 Broy./Diag. 0.40E+00   23.7     1.93057263     -1075.5067803055 -5.59E+00
   291 Broy./Diag. 0.40E+00   24.3     1.90957989     -1067.8559518231  7.65E+00
   292 Broy./Diag. 0.40E+00   25.1     1.90359843     -1080.6416577516 -1.28E+01
   293 Broy./Diag. 0.40E+00   24.4     1.91225480     -1071.9397562809  8.70E+00
   294 Broy./Diag. 0.40E+00   23.9     1.88540644     -1070.2157749114  1.72E+00
   295 Broy./Diag. 0.40E+00   23.9     1.97581069     -1080.3663690611 -1.02E+01
   296 Broy./Diag. 0.40E+00   23.8     1.89322202     -1070.4510626652  9.92E+00
   297 Broy./Diag. 0.40E+00   23.7     1.88803231     -1076.3735419809 -5.92E+00
   298 Broy./Diag. 0.40E+00   24.4     1.95630239     -1074.1265017693  2.25E+00
   299 Broy./Diag. 0.40E+00   24.5     1.87880491     -1073.4785385739  6.48E-01
   300 Broy./Diag. 0.40E+00   24.2     1.87905191     -1068.2515389958  5.23E+00

  Leaving inner SCF loop after reaching   300 steps.


  Electronic density on regular grids:       -511.9999285212        0.0000714788
  Core density on regular grids:              511.9997294346       -0.0002705654
  Total charge density on r-space grids:       -0.0001990866
  Total charge density g-space grids:          -0.0001990866

  Overlap energy of the core charge distribution:               0.00000000000000
  Self energy of the core charge distribution:              -2838.21791979120962
  Core Hamiltonian energy:                                    767.81445917893700
  Hartree energy:                                            1239.89023965519596
  Exchange-correlation energy:                               -237.73831803869621

  Total energy:                                             -1068.25153899577299

 *** WARNING in qs_scf.F:542 :: SCF run NOT converged ***


 ENERGY| Total FORCE_EVAL ( QS ) energy (a.u.):            -1060.082328650058798


 ATOMIC FORCES in [a.u.]

 # Atom   Kind   Element          X              Y              Z
      1      1      O          -0.07047395    -0.02027767    -0.06513928
      2      2      H          -0.00991725    -0.05644905     0.04874642
      3      2      H           0.06344817    -0.02406780     0.00250828
      4      1      O           0.01756280     0.02490846    -0.03598991
      5      2      H           0.05126051    -0.03153727    -0.00938015
      6      2      H          -0.06075275    -0.04518882    -0.03030678
      7      1      O           0.04679130     0.03286353     0.10941359
      8      2      H          -0.06003753     0.02907401     0.00781513
      9      2      H           0.01086526    -0.08987876     0.00828240
     10      1      O           0.04686295    -0.01761360    -0.17430798
     11      2      H           0.05242903    -0.02971665     0.06324206
     12      2      H          -0.06820880    -0.01552207     0.06236738
     13      1      O          -0.04017470    -0.00985992    -0.03051295
     14      2      H           0.01950755    -0.04508692     0.00783282
     15      2      H           0.04752558    -0.02967462     0.03213828
     16      1      O           0.06931003     0.09105366    -0.04431406
     17      2      H          -0.07394933    -0.03026216    -0.06274675
     18      2      H          -0.03806983    -0.02769472     0.03326144
     19      1      O           0.02974553    -0.07237868    -0.00873556
     20      2      H          -0.02708772     0.02737796     0.00879145
     21      2      H           0.01492270    -0.01541010     0.03382767
     22      1      O           0.13137331     0.08942630    -0.16214977
     23      2      H          -0.04131886    -0.07354388     0.05166002
     24      2      H          -0.06661824     0.01994887    -0.02185939
     25      1      O           0.04311907    -0.02435830    -0.05963337
     26      2      H           0.01406731     0.06535240     0.04374177
     27      2      H          -0.10293706    -0.03015168     0.04066168
     28      1      O          -0.02207797     0.00711326     0.12919161
     29      2      H          -0.04055643     0.01279808    -0.01309031
     30      2      H           0.04503564     0.06159815    -0.05881241
     31      1      O          -0.08814997     0.11805954    -0.13934414
     32      2      H           0.07546332     0.02663403    -0.02658101
     33      2      H          -0.00242768    -0.09469486    -0.00308291
     34      1      O           0.04843330    -0.11310864     0.11898050
     35      2      H          -0.02698638     0.06667393     0.05123728
     36      2      H          -0.01831775     0.01508429    -0.11885684
     37      1      O          -0.01268691    -0.02750184     0.12249556
     38      2      H          -0.00137846    -0.00685946    -0.01414449
     39      2      H           0.01082965    -0.00149276    -0.02681513
     40      1      O          -0.03847410    -0.01143660     0.06201906
     41      2      H          -0.00391643    -0.04876777     0.04108786
     42      2      H          -0.00524801     0.03003908    -0.03229002
     43      1      O          -0.01988772    -0.10741784    -0.02511842
     44      2      H          -0.01215949     0.06573571    -0.06309089
     45      2      H           0.00980792     0.05760517     0.08663453
     46      1      O           0.08306153     0.04360328    -0.07548084
     47      2      H          -0.04966547     0.06711019    -0.05129241
     48      2      H          -0.02217659    -0.06278394    -0.01605916
     49      1      O          -0.13874026    -0.08560616     0.08789112
     50      2      H           0.12762184     0.05222804    -0.01152449
     51      2      H           0.00193947     0.00001633    -0.01962053
     52      1      O           0.09436057     0.00269727    -0.13992411
     53      2      H          -0.01761605    -0.03960502     0.10958818
     54      2      H          -0.10875297    -0.03040575    -0.02083898
     55      1      O          -0.07787297     0.02669143     0.03238325
     56      2      H          -0.01588574    -0.00561141     0.04073949
     57      2      H           0.04534806     0.03742103     0.03778721
     58      1      O          -0.13190730    -0.12937775    -0.15736859
     59      2      H           0.01316209     0.11000614     0.03442603
     60      2      H           0.10345989    -0.01412130     0.02258497
     61      1      O          -0.10383342     0.01516640    -0.00052389
     62      2      H           0.03923132    -0.12724512     0.00750079
     63      2      H           0.04543082     0.01039997     0.11265483
     64      1      O          -0.02406583     0.03130323    -0.03969296
     65      2      H          -0.03127164     0.04359118    -0.04208338
     66      2      H           0.04257814    -0.08853694     0.05939109
     67      1      O           0.03717698    -0.08801754    -0.01076403
     68      2      H          -0.04747765     0.03340050     0.03742300
     69      2      H           0.01974638    -0.05439477     0.10690086
     70      1      O          -0.04101832     0.00812633    -0.20074014
     71      2      H           0.08572729    -0.00508324     0.04903503
     72      2      H          -0.07277937     0.05240937     0.06421416
     73      1      O           0.02121371    -0.09421173     0.10352534
     74      2      H           0.02620264     0.09444740    -0.11554476
     75      2      H          -0.07839714     0.01366685     0.05571997
     76      1      O           0.07458493     0.01601907    -0.19029458
     77      2      H           0.00368018     0.00920969     0.03162167
     78      2      H          -0.09218092     0.04745421     0.08211322
     79      1      O          -0.00558974    -0.07359083    -0.19331325
     80      2      H          -0.06172995    -0.07444979     0.04787330
     81      2      H           0.03709498     0.10093048     0.02753184
     82      1      O          -0.00371246     0.01757540     0.06894414
     83      2      H          -0.01981972    -0.04749819     0.02391121
     84      2      H           0.01174044    -0.00899988     0.00574244
     85      1      O          -0.07355737    -0.01742567    -0.08232148
     86      2      H           0.07745746     0.05545509    -0.05449017
     87      2      H           0.00477422     0.01290210     0.01536625
     88      1      O           0.08549265    -0.02018362    -0.16245648
     89      2      H          -0.03386814     0.05128372     0.00406881
     90      2      H          -0.01735461    -0.01161165     0.10884450
     91      1      O          -0.03713095    -0.02350651    -0.01564841
     92      2      H          -0.01503451    -0.07128704     0.07323185
     93      2      H           0.00815952     0.04818779     0.05216606
     94      1      O          -0.03154358     0.09956788    -0.13522129
     95      2      H           0.04526904    -0.07496880     0.02864405
     96      2      H          -0.00010994     0.04293144     0.11969258
     97      1      O          -0.11029309     0.00953848     0.00470829
     98      2      H           0.08883290    -0.02203608     0.00015011
     99      2      H           0.01874343     0.07306657     0.05407283
    100      1      O          -0.00398075    -0.09863171    -0.05938868
    101      2      H          -0.01996595    -0.00448438    -0.01053053
    102      2      H           0.01398299     0.01635407     0.03148746
    103      1      O          -0.03923139    -0.03617101    -0.09710961
    104      2      H           0.00967391     0.10587909     0.05932045
    105      2      H           0.05996400    -0.09397557     0.00572394
    106      1      O           0.02717002    -0.07579815     0.00699863
    107      2      H           0.07016002     0.00778291     0.06825698
    108      2      H          -0.07153017    -0.06786026     0.06143930
    109      1      O          -0.10101553    -0.00916600    -0.02286285
    110      2      H           0.04234295    -0.01468468     0.08813668
    111      2      H           0.05823411     0.00802299    -0.05449454
    112      1      O           0.09257734     0.00198951    -0.13900117
    113      2      H          -0.03110240    -0.05202158     0.04235087
    114      2      H          -0.04961370     0.05899515     0.02332331
    115      1      O           0.06328725    -0.00749324    -0.17425488
    116      2      H          -0.06104832    -0.02754531     0.02567620
    117      2      H          -0.00334834     0.03411356     0.04618148
    118      1      O           0.08945339    -0.06565968     0.10278732
    119      2      H          -0.01101251     0.05661787    -0.07142119
    120      2      H          -0.05782622     0.00451423     0.01718141
    121      1      O           0.01993470    -0.10255889    -0.12360828
    122      2      H           0.03388453     0.06173895     0.05249874
    123      2      H          -0.07256335    -0.00865847     0.01112838
    124      1      O           0.04643610    -0.00597842    -0.03337371
    125      2      H          -0.00873540     0.05717905    -0.05289902
    126      2      H          -0.05793126    -0.07593539     0.01438149
    127      1      O           0.01800187     0.04628498     0.08354009
    128      2      H          -0.08131592    -0.03772083    -0.02586898
    129      2      H           0.04484439    -0.07194892    -0.03357834
    130      1      O           0.01620495    -0.11590901    -0.14299188
    131      2      H          -0.05977260    -0.01890373     0.00485780
    132      2      H           0.03536572     0.04551608     0.09719250
    133      1      O          -0.09120660     0.15021283    -0.06979292
    134      2      H           0.16043850     0.07711255     0.01916422
    135      2      H          -0.07226234    -0.12900861     0.08538210
    136      1      O          -0.10512559     0.02427611     0.12081637
    137      2      H          -0.02446921    -0.02505975    -0.11493150
    138      2      H           0.09149409     0.06074306    -0.05134121
    139      1      O          -0.06321602     0.02015682    -0.05219379
    140      2      H          -0.01838691    -0.03728044     0.10875814
    141      2      H           0.06439381    -0.01787699    -0.03961482
    142      1      O           0.03057961    -0.07357597    -0.07363674
    143      2      H           0.01330023    -0.03250207    -0.03806967
    144      2      H          -0.01433496     0.02299030    -0.04443537
    145      1      O          -0.04574511    -0.02704697     0.10830268
    146      2      H           0.04350429     0.04648120     0.03739477
    147      2      H          -0.02481224     0.06667903    -0.08985692
    148      1      O          -0.01988785    -0.12011163    -0.19010058
    149      2      H          -0.06085371     0.08980515     0.00804625
    150      2      H           0.05857473    -0.03852698     0.04951874
    151      1      O          -0.00726517     0.06844050    -0.01466797
    152      2      H           0.04610023     0.01677860     0.04842169
    153      2      H          -0.00797223     0.00371609     0.02567374
    154      1      O           0.07340199    -0.08618357     0.08616645
    155      2      H          -0.04690124    -0.02176496    -0.06342579
    156      2      H          -0.00386258     0.07971470    -0.00319525
    157      1      O           0.02829432    -0.00291068     0.10123097
    158      2      H          -0.04661905     0.07802839     0.01377245
    159      2      H          -0.00239721    -0.01992480    -0.09768223
    160      1      O           0.06699465     0.07807383     0.02214610
    161      2      H          -0.02424536    -0.05661582    -0.07991871
    162      2      H          -0.00852162    -0.00345604     0.10553676
    163      1      O          -0.15708282    -0.09541512     0.02038596
    164      2      H           0.07403252     0.00502144     0.11098734
    165      2      H           0.06435712     0.07428195    -0.18825827
    166      1      O          -0.04081470    -0.10840372     0.02917777
    167      2      H          -0.07806208     0.04973751     0.07440514
    168      2      H           0.10872525     0.05237934    -0.01699722
    169      1      O          -0.09820890     0.01298200     0.02360616
    170      2      H           0.04646710    -0.05922820    -0.04993011
    171      2      H           0.01968481    -0.00229600     0.09030355
    172      1      O           0.03712634     0.00124307    -0.16101791
    173      2      H           0.00306174     0.09193303     0.02087973
    174      2      H          -0.07052569    -0.09821419     0.05847929
    175      1      O           0.03894302     0.08933856     0.12954323
    176      2      H          -0.00754722    -0.01867055    -0.04050199
    177      2      H          -0.01379315    -0.01122700     0.02569254
    178      1      O          -0.03983136    -0.09909875     0.08818710
    179      2      H          -0.00103729     0.02681418    -0.03261926
    180      2      H           0.01803651     0.02984700    -0.06863390
    181      1      O           0.00566308    -0.01551779     0.13200223
    182      2      H          -0.02340187     0.01594948    -0.07933145
    183      2      H          -0.01082739    -0.09130016    -0.02997240
    184      1      O           0.08675052     0.00811128     0.05352715
    185      2      H          -0.00024017     0.08291718    -0.09233730
    186      2      H          -0.04047107    -0.02589283     0.01538920
    187      1      O          -0.03154796    -0.06650582    -0.15790907
    188      2      H           0.03891033     0.02084243     0.03402779
    189      2      H          -0.04886928     0.06447841     0.05063419
    190      1      O           0.22472323     0.07042721    -0.13363734
    191      2      H           0.01452854    -0.02054904     0.03211045
    192      2      H          -0.21807667    -0.03692533     0.17895844
 SUM OF ATOMIC FORCES          -0.42355917    -0.65045124    -0.24942281     0.81529193

 -------------------------------------------------------------------------------
 -                                                                             -
 -                                DBCSR STATISTICS                             -
 -                                                                             -
 -------------------------------------------------------------------------------
 COUNTER                                    TOTAL       BLAS       SMM       ACC
 flops     5 x     5 x   256           2142156800       0.0%    100.0%      0.0%
 flops     5 x    13 x   256           2253888000       0.0%    100.0%      0.0%
 flops    13 x     5 x   256           2544389120       0.0%    100.0%      0.0%
 flops    13 x    13 x   256           3776514560       0.0%    100.0%      0.0%
 flops inhomo. stacks                           0       0.0%      0.0%      0.0%
 flops total                        10.716948E+09       0.0%    100.0%      0.0%
 flops max/rank                     10.716948E+09       0.0%    100.0%      0.0%
 matmuls inhomo. stacks                         0       0.0%      0.0%      0.0%
 matmuls total                             355180       0.0%    100.0%      0.0%
 number of processed stacks                 42140       0.0%    100.0%      0.0%
 average stack size                                     0.0       8.4       0.0
 marketing flops                   333.927416E+09
 -------------------------------------------------------------------------------
 # multiplications                            301
 max memory usage/rank              30.540153E+09
 # max total images/rank                        1
 # max 3D layers                                1
 # MPI messages exchanged                       0
 MPI messages size (bytes):
  total size                         0.000000E+00
  min size                           0.000000E+00
  max size                           0.000000E+00
  average size                       0.000000E+00
 MPI breakdown and total messages size (bytes):
             size <=      128                   0                        0
       128 < size <=     8192                   0                        0
      8192 < size <=    32768                   0                        0
     32768 < size <=   131072                   0                        0
    131072 < size <=  4194304                   0                        0
   4194304 < size <= 16777216                   0                        0
  16777216 < size                               0                        0
 -------------------------------------------------------------------------------

 MEMORY| Estimated peak process memory [MiB]                               29129

 -------------------------------------------------------------------------------
 -                                                                             -
 -                           R E F E R E N C E S                               -
 -                                                                             -
 -------------------------------------------------------------------------------
 
 CP2K version 7.1, the CP2K developers group (2019).
 CP2K is freely available from https://www.cp2k.org/ .

 Schuett, Ole; Messmer, Peter; Hutter, Juerg; VandeVondele, Joost. 
 Electronic Structure Calculations on Graphics Processing Units, John
 Wiley & Sons, Ltd, 173-190 (2016). 
 GPU-Accelerated Sparse Matrix-Matrix Multiplication for
 Linear Scaling Density Functional Theory.
 https://dx.doi.org/10.1002/9781118670712.ch8

 Borstnik, U; VandeVondele, J; Weber, V; Hutter, J. 
 PARALLEL COMPUTING, 40 (5-6), 47-58 (2014). 
 Sparse matrix multiplication: The distributed block-compressed sparse
 row library.
 https://dx.doi.org/10.1016/j.parco.2014.03.012

 Hutter, J; Iannuzzi, M; Schiffmann, F; VandeVondele, J. 
 WIREs Comput Mol Sci., 4 (1), 15-25 (2014). 
 CP2K: atomistic simulations of condensed matter systems.
 https://dx.doi.org/10.1002/wcms.1159

 Krack, M. 
 THEORETICAL CHEMISTRY ACCOUNTS, 114 (1-3), 145-152 (2005). 
 Pseudopotentials for H to Kr optimized for gradient-corrected
 exchange-correlation functionals.
 https://dx.doi.org/10.1007/s00214-005-0655-y

 VandeVondele, J; Krack, M; Mohamed, F; Parrinello, M; Chassaing, T;
 Hutter, J. COMPUTER PHYSICS COMMUNICATIONS, 167 (2), 103-128 (2005). 
 QUICKSTEP: Fast and accurate density functional calculations using a
 mixed Gaussian and plane waves approach.
 https://dx.doi.org/10.1016/j.cpc.2004.12.014

 Frigo, M; Johnson, SG. 
 PROCEEDINGS OF THE IEEE, 93 (2), 216-231 (2005). 
 The design and implementation of FFTW3.
 https://dx.doi.org/10.1109/JPROC.2004.840301

 Hartwigsen, C; Goedecker, S; Hutter, J. 
 PHYSICAL REVIEW B, 58 (7), 3641-3662 (1998). 
 Relativistic separable dual-space Gaussian pseudopotentials from H to Rn.
 https://dx.doi.org/10.1103/PhysRevB.58.3641

 Lippert, G; Hutter, J; Parrinello, M. 
 MOLECULAR PHYSICS, 92 (3), 477-487 (1997). 
 A hybrid Gaussian and plane wave density functional scheme.
 https://dx.doi.org/10.1080/002689797170220

 Goedecker, S; Teter, M; Hutter, J. 
 PHYSICAL REVIEW B, 54 (3), 1703-1710 (1996). 
 Separable dual-space Gaussian pseudopotentials.
 https://dx.doi.org/10.1103/PhysRevB.54.1703


 -------------------------------------------------------------------------------
 -                                                                             -
 -                                T I M I N G                                  -
 -                                                                             -
 -------------------------------------------------------------------------------
 SUBROUTINE                       CALLS  ASD         SELF TIME        TOTAL TIME
                                MAXIMUM       AVERAGE  MAXIMUM  AVERAGE  MAXIMUM
 CP2K                                 1  1.0    1.100    1.100 7156.333 7156.333
 qs_forces                            1  2.0    0.000    0.000 7144.898 7144.898
 qs_energies                          1  3.0    0.000    0.000 7141.003 7141.003
 scf_env_do_scf                       1  4.0    0.001    0.001 7129.660 7129.660
 scf_env_do_scf_inner_loop          300  5.0    0.051    0.051 7129.659 7129.659
 gspace_mixing                      299  6.0   42.231   42.231 2994.725 2994.725
 broyden_mixing                     299  7.0 2705.756 2705.756 2705.760 2705.760
 qs_scf_new_mos                     300  6.0    0.009    0.009 1857.814 1857.814
 eigensolver                        300  7.0    0.033    0.033 1786.391 1786.391
 cp_fm_syevd                        300  8.0 1226.984 1226.984 1228.210 1228.210
 pw_transfer                       3912  9.9    0.382    0.382 1191.135 1191.135
 rebuild_ks_matrix                  301  7.0    0.001    0.001 1172.142 1172.142
 qs_ks_build_kohn_sham_matrix       301  8.0    0.104    0.104 1172.141 1172.141
 qs_ks_update_qs_env                300  6.0    0.004    0.004 1168.506 1168.506
 fft_wrap_pw1pw2                   3310 10.9    0.048    0.048 1158.739 1158.739
 qs_rho_update_rho                  301  6.0    0.003    0.003 1109.417 1109.417
 calculate_rho_elec                 301  7.0  552.942  552.942 1109.414 1109.414
 fft_wrap_pw1pw2_70                1504 11.2   91.812   91.812 1048.508 1048.508
 cp_fm_cholesky_restore             900  8.0  557.105  557.105  557.105  557.105
 fft3d_s                           3311 12.9  555.521  555.521  555.556  555.556
 density_rs2pw                      301  8.0    0.034    0.034  546.408  546.408
 pw_scatter_s                      1804 13.2  410.238  410.238  410.238  410.238
 pw_poisson_solve                   301  9.0  333.134  333.134  365.496  365.496
 sum_up_and_integrate               301  9.0   17.989   17.989  342.727  342.727
 integrate_v_rspace                 301 10.0    9.842    9.842  324.737  324.737
 potential_pw2rs                    301 11.0    2.575    2.575  288.495  288.495
 qs_vxc_create                      301  9.0    0.006    0.006  168.480  168.480
 xc_vxc_pw_create                   301 10.0   42.472   42.472  168.473  168.473
 -------------------------------------------------------------------------------

 The number of warnings for this run is : 1
 
 -------------------------------------------------------------------------------
  **** **** ******  **  PROGRAM ENDED AT                 2020-05-27 02:03:59.746
 ***** ** ***  *** **   PROGRAM RAN ON                                   gnode44
 **    ****   ******    PROGRAM RAN BY                               mayank.modi
 ***** **    ** ** **   PROGRAM PROCESS ID                                 27371
  **** **  *******  **  PROGRAM STOPPED IN /home/mayank.modi/ab-initio-thermodyn
                                           amics-of-water/mayank/cp2k_energy_cal
                                           culations
