 DBCSR| CPU Multiplication driver                                           XSMM
 DBCSR| Multrec recursion limit                                              512
 DBCSR| Multiplication stack size                                           1000
 DBCSR| Maximum elements for images                                    UNLIMITED
 DBCSR| Multiplicative factor virtual images                                   1
 DBCSR| Use multiplication densification                                       T
 DBCSR| Multiplication size stacks                                             3


  **** **** ******  **  PROGRAM STARTED AT               2020-05-27 19:37:52.824
 ***** ** ***  *** **   PROGRAM STARTED ON                               gnode44
 **    ****   ******    PROGRAM STARTED BY                           mayank.modi
 ***** **    ** ** **   PROGRAM PROCESS ID                                  2817
  **** **  *******  **  PROGRAM STARTED IN /home/mayank.modi/ab-initio-thermodyn
                                           amics-of-water/mayank/cp2k_energy_cal
                                           culations

 CP2K| version string:                                          CP2K version 7.1
 CP2K| source code revision number:                                  git:e635599
 CP2K| cp2kflags: omp libint fftw3 libxc xsmm spglib                            
 CP2K| is freely available from                            https://www.cp2k.org/
 CP2K| Program compiled at                          Mon Dec 23 19:23:12 CET 2019
 CP2K| Program compiled on                                                pc9404
 CP2K| Program compiled for                                Linux-x86-64-gfortran
 CP2K| Data directory path                                        /opt/cp2k/data
 CP2K| Input file name                                 input_training/input14.in

 GLOBAL| Force Environment number                                              1
 GLOBAL| Basis set file name                                           BASIS_SET
 GLOBAL| Potential file name                                      GTH_POTENTIALS
 GLOBAL| MM Potential file name                                     MM_POTENTIAL
 GLOBAL| Coordinate file name                                      __STD_INPUT__
 GLOBAL| Method name                                                        CP2K
 GLOBAL| Project name                                                   H2O_bulk
 GLOBAL| Preferred FFT library                                             FFTW3
 GLOBAL| Preferred diagonalization lib.                                       SL
 GLOBAL| Run type                                                   ENERGY_FORCE
 GLOBAL| All-to-all communication in single precision                          F
 GLOBAL| FFTs using library dependent lengths                                  F
 GLOBAL| Global print level                                                  LOW
 GLOBAL| MPI I/O enabled                                                       T
 GLOBAL| Total number of message passing processes                             1
 GLOBAL| Number of threads for this process                                   36
 GLOBAL| This output is from process                                           0
 GLOBAL| CPU model name                Intel(R) Xeon(R) CPU E5-2640 v4 @ 2.40GHz
 GLOBAL| CPUID                                                              1002
 GLOBAL| Compiled for CPUID                                                    0

 MEMORY| system memory details [Kb]
 MEMORY|                        rank 0           min           max       average
 MEMORY| MemTotal            131893056     131893056     131893056     131893056
 MEMORY| MemFree             119351840     119351840     119351840     119351840
 MEMORY| Buffers               2109740       2109740       2109740       2109740
 MEMORY| Cached                2946804       2946804       2946804       2946804
 MEMORY| Slab                  3306576       3306576       3306576       3306576
 MEMORY| SReclaimable          3098780       3098780       3098780       3098780
 MEMORY| MemLikelyFree       127507164     127507164     127507164     127507164


 GENERATE| WARNING:: No connections detected for Hydrogen - Atom Nr:       176 !
 GENERATE|  Preliminary Number of Bonds generated:                             0
 GENERATE|  Achieved consistency in connectivity generation.

 *******************************************************************************
 *******************************************************************************
 **                                                                           **
 **     #####                         ##              ##                      **
 **    ##   ##            ##          ##              ##                      **
 **   ##     ##                       ##            ######                    **
 **   ##     ##  ##   ##  ##   #####  ##  ##   ####   ##    #####    #####    **
 **   ##     ##  ##   ##  ##  ##      ## ##   ##      ##   ##   ##  ##   ##   **
 **   ##  ## ##  ##   ##  ##  ##      ####     ###    ##   ######   ######    **
 **    ##  ###   ##   ##  ##  ##      ## ##      ##   ##   ##       ##        **
 **     #######   #####   ##   #####  ##  ##  ####    ##    #####   ##        **
 **           ##                                                    ##        **
 **                                                                           **
 **                                                ... make the atoms dance   **
 **                                                                           **
 **            Copyright (C) by CP2K developers group (2000 - 2019)           **
 **                                                                           **
 *******************************************************************************


 TOTAL NUMBERS AND MAXIMUM NUMBERS

  Total number of            - Atomic kinds:                                   2
                             - Atoms:                                        192
                             - Shell sets:                                   384
                             - Shells:                                       704
                             - Primitive Cartesian functions:                960
                             - Cartesian basis functions:                   1536
                             - Spherical basis functions:                   1472

  Maximum angular momentum of- Orbital basis functions:                        2
                             - Local part of the GTH pseudopotential:          2
                             - Non-local part of the GTH pseudopotential:      0


 SCF PARAMETERS         Density guess:                                    ATOMIC
                        --------------------------------------------------------
                        max_scf:                                             300
                        max_scf_history:                                       0
                        max_diis:                                              4
                        --------------------------------------------------------
                        eps_scf:                                        1.00E-07
                        eps_scf_history:                                0.00E+00
                        eps_diis:                                       1.00E-01
                        eps_eigval:                                     1.00E-05
                        --------------------------------------------------------
                        level_shift [a.u.]:                                 0.00
                        --------------------------------------------------------
                        Mixing method:                            BROYDEN_MIXING
                                                charge density mixing in g-space
                        --------------------------------------------------------
                        No outer SCF

 Number of electrons:                                                        512
 Number of occupied orbitals:                                                256
 Number of molecular orbitals:                                               256

 Number of orbital functions:                                               1472
 Number of independent orbital functions:                                   1472

 Extrapolation method: initial_guess


 SCF WAVEFUNCTION OPTIMIZATION

  Step     Update method      Time    Convergence         Total energy    Change
  ------------------------------------------------------------------------------
     1 NoMix/Diag. 0.40E+00   10.7     0.68275161     -1063.9435789366 -1.06E+03
     2 Broy./Diag. 0.40E+00   16.3     1.91983039      -992.1289708807  7.18E+01
     3 Broy./Diag. 0.40E+00   17.3     1.92728373     -1277.1388768312 -2.85E+02
     4 Broy./Diag. 0.40E+00   18.2     1.58926903     -1135.5249861562  1.42E+02
     5 Broy./Diag. 0.40E+00   18.5     1.76305831     -1093.4429804211  4.21E+01
     6 Broy./Diag. 0.40E+00   19.9     1.87790242     -1104.3513770952 -1.09E+01
     7 Broy./Diag. 0.40E+00   21.5     1.68286543     -1104.4861657928 -1.35E-01
     8 Broy./Diag. 0.40E+00   21.6     1.81267711     -1088.1760888797  1.63E+01
     9 Broy./Diag. 0.40E+00   22.8     1.77817101     -1077.5127362112  1.07E+01
    10 Broy./Diag. 0.40E+00   26.1     1.91000355     -1076.3631214073  1.15E+00
    11 Broy./Diag. 0.40E+00   24.3     1.68015177     -1069.9501782464  6.41E+00
    12 Broy./Diag. 0.40E+00   24.9     1.73729505     -1072.1008676588 -2.15E+00
    13 Broy./Diag. 0.40E+00   25.0     1.54592442     -1069.9247990100  2.18E+00
    14 Broy./Diag. 0.40E+00   23.7     1.65829811     -1078.4432981358 -8.52E+00
    15 Broy./Diag. 0.40E+00   23.5     1.73585775     -1077.8060430366  6.37E-01
    16 Broy./Diag. 0.40E+00   24.4     1.75773320     -1087.4594655223 -9.65E+00
    17 Broy./Diag. 0.40E+00   25.3     1.80953627     -1076.6467604275  1.08E+01
    18 Broy./Diag. 0.40E+00   24.3     1.64963365     -1074.2457902767  2.40E+00
    19 Broy./Diag. 0.40E+00   24.3     1.60717326     -1076.6687530902 -2.42E+00
    20 Broy./Diag. 0.40E+00   23.6     1.71960335     -1073.7564922818  2.91E+00
    21 Broy./Diag. 0.40E+00   24.6     1.83524246     -1077.3747382799 -3.62E+00
    22 Broy./Diag. 0.40E+00   24.2     1.64840800     -1072.6919419722  4.68E+00
    23 Broy./Diag. 0.40E+00   24.5     1.66977800     -1075.0906239840 -2.40E+00
    24 Broy./Diag. 0.40E+00   24.4     1.61872776     -1073.6325808290  1.46E+00
    25 Broy./Diag. 0.40E+00   25.5     1.69766796     -1074.5026135357 -8.70E-01
    26 Broy./Diag. 0.40E+00   24.0     1.75645132     -1080.7489625722 -6.25E+00
    27 Broy./Diag. 0.40E+00   23.7     1.77988072     -1076.5056076606  4.24E+00
    28 Broy./Diag. 0.40E+00   24.5     1.70387609     -1075.5030719432  1.00E+00
    29 Broy./Diag. 0.40E+00   24.3     1.64157086     -1076.9891673761 -1.49E+00
    30 Broy./Diag. 0.40E+00   24.5     1.76373146     -1074.4688875531  2.52E+00
    31 Broy./Diag. 0.40E+00   24.5     1.82743637     -1074.6791902117 -2.10E-01
    32 Broy./Diag. 0.40E+00   24.6     1.85648376     -1073.2423108157  1.44E+00
    33 Broy./Diag. 0.40E+00   24.4     1.70756494     -1076.5198444358 -3.28E+00
    34 Broy./Diag. 0.40E+00   24.4     1.68495557     -1073.9538414352  2.57E+00
    35 Broy./Diag. 0.40E+00   24.4     1.67456680     -1074.3123987187 -3.59E-01
    36 Broy./Diag. 0.40E+00   25.1     1.71785857     -1077.5779980951 -3.27E+00
    37 Broy./Diag. 0.40E+00   24.4     1.54598214     -1076.3862588613  1.19E+00
    38 Broy./Diag. 0.40E+00   23.5     1.70312076     -1073.7495049546  2.64E+00
    39 Broy./Diag. 0.40E+00   24.0     1.73098305     -1079.6148338248 -5.87E+00
    40 Broy./Diag. 0.40E+00   25.2     1.65572427     -1079.2504401115  3.64E-01
    41 Broy./Diag. 0.40E+00   24.6     1.77768920     -1073.8541892874  5.40E+00
    42 Broy./Diag. 0.40E+00   24.3     1.79977100     -1078.3052726311 -4.45E+00
    43 Broy./Diag. 0.40E+00   23.3     1.70213494     -1073.4342893020  4.87E+00
    44 Broy./Diag. 0.40E+00   23.9     1.65820442     -1074.0425502690 -6.08E-01
    45 Broy./Diag. 0.40E+00   24.3     1.70856398     -1072.0425277387  2.00E+00
    46 Broy./Diag. 0.40E+00   25.3     1.73874338     -1075.1174672524 -3.07E+00
    47 Broy./Diag. 0.40E+00   24.4     1.74070184     -1079.3076848768 -4.19E+00
    48 Broy./Diag. 0.40E+00   23.8     1.77973762     -1077.5753955705  1.73E+00
    49 Broy./Diag. 0.40E+00   24.6     1.83646150     -1076.0311469390  1.54E+00
    50 Broy./Diag. 0.40E+00   25.8     1.66421576     -1071.7637608095  4.27E+00
    51 Broy./Diag. 0.40E+00   24.3     1.68616852     -1077.1950109542 -5.43E+00
    52 Broy./Diag. 0.40E+00   23.6     1.74488298     -1072.7551611409  4.44E+00
    53 Broy./Diag. 0.40E+00   23.3     1.76153148     -1077.1794933782 -4.42E+00
    54 Broy./Diag. 0.40E+00   24.2     1.75088996     -1076.1479770879  1.03E+00
    55 Broy./Diag. 0.40E+00   24.2     1.82604262     -1074.9193966975  1.23E+00
    56 Broy./Diag. 0.40E+00   24.4     1.70438981     -1075.8469353559 -9.28E-01
    57 Broy./Diag. 0.40E+00   24.3     1.75118281     -1075.8177217796  2.92E-02
    58 Broy./Diag. 0.40E+00   24.1     1.79170446     -1075.0548872430  7.63E-01
    59 Broy./Diag. 0.40E+00   24.5     1.84542813     -1074.9020494086  1.53E-01
    60 Broy./Diag. 0.40E+00   24.7     1.73548363     -1076.9115245978 -2.01E+00
    61 Broy./Diag. 0.40E+00   24.4     1.45042192     -1072.9777323301  3.93E+00
    62 Broy./Diag. 0.40E+00   24.1     1.75082054     -1070.4137729517  2.56E+00
    63 Broy./Diag. 0.40E+00   23.0     1.77384497     -1083.9525073965 -1.35E+01
    64 Broy./Diag. 0.40E+00   21.4     1.72262420     -1080.2656062957  3.69E+00
    65 Broy./Diag. 0.40E+00   24.2     1.81899948     -1074.5212919264  5.74E+00
    66 Broy./Diag. 0.40E+00   23.8     1.67374307     -1074.2640193922  2.57E-01
    67 Broy./Diag. 0.40E+00   25.5     1.78302588     -1072.9035007401  1.36E+00
    68 Broy./Diag. 0.40E+00   23.8     1.79936064     -1075.6705892913 -2.77E+00
    69 Broy./Diag. 0.40E+00   24.4     1.67079779     -1077.3312074794 -1.66E+00
    70 Broy./Diag. 0.40E+00   24.4     1.77086790     -1074.0787588454  3.25E+00
    71 Broy./Diag. 0.40E+00   24.4     1.76693213     -1077.3815409196 -3.30E+00
    72 Broy./Diag. 0.40E+00   23.1     1.80094865     -1078.0837841028 -7.02E-01
    73 Broy./Diag. 0.40E+00   24.8     1.72020796     -1071.5805270205  6.50E+00
    74 Broy./Diag. 0.40E+00   24.2     1.72038887     -1080.9491470711 -9.37E+00
    75 Broy./Diag. 0.40E+00   23.3     1.68551900     -1074.1880984933  6.76E+00
    76 Broy./Diag. 0.40E+00   24.5     1.70866538     -1076.5382034497 -2.35E+00
    77 Broy./Diag. 0.40E+00   23.5     1.69535254     -1079.9259222675 -3.39E+00
    78 Broy./Diag. 0.40E+00   23.1     1.52553405     -1070.8013666662  9.12E+00
    79 Broy./Diag. 0.40E+00   24.5     1.68141795     -1082.3579980197 -1.16E+01
    80 Broy./Diag. 0.40E+00   23.8     1.71880153     -1077.5286063823  4.83E+00
    81 Broy./Diag. 0.40E+00   23.2     1.76234785     -1076.3913599435  1.14E+00
    82 Broy./Diag. 0.40E+00   21.8     1.81899189     -1075.0824550916  1.31E+00
    83 Broy./Diag. 0.40E+00   24.4     1.74332937     -1076.8529541414 -1.77E+00
    84 Broy./Diag. 0.40E+00   23.8     1.77818976     -1075.2792914657  1.57E+00
    85 Broy./Diag. 0.40E+00   23.6     1.88334729     -1073.5231633190  1.76E+00
    86 Broy./Diag. 0.40E+00   24.6     1.75156828     -1069.9446323838  3.58E+00
    87 Broy./Diag. 0.40E+00   24.2     1.75165212     -1084.6566599192 -1.47E+01
    88 Broy./Diag. 0.40E+00   23.8     1.72448850     -1082.3085463288  2.35E+00
    89 Broy./Diag. 0.40E+00   24.1     1.82264492     -1075.8073572814  6.50E+00
    90 Broy./Diag. 0.40E+00   23.9     1.65815944     -1072.1701258756  3.64E+00
    91 Broy./Diag. 0.40E+00   23.9     1.73255576     -1072.2841538940 -1.14E-01
    92 Broy./Diag. 0.40E+00   24.4     1.82273741     -1074.7639861763 -2.48E+00
    93 Broy./Diag. 0.40E+00   24.5     1.71666668     -1078.0266184459 -3.26E+00
    94 Broy./Diag. 0.40E+00   24.5     1.58112550     -1075.5828331124  2.44E+00
    95 Broy./Diag. 0.40E+00   24.5     1.59298176     -1073.9379048081  1.64E+00
    96 Broy./Diag. 0.40E+00   24.7     1.75974655     -1072.0296081694  1.91E+00
    97 Broy./Diag. 0.40E+00   25.3     1.78823519     -1079.2218544756 -7.19E+00
    98 Broy./Diag. 0.40E+00   24.7     1.70632115     -1081.8383877082 -2.62E+00
    99 Broy./Diag. 0.40E+00   24.0     1.69549715     -1070.2793961634  1.16E+01
   100 Broy./Diag. 0.40E+00   24.5     1.77185562     -1075.2318215097 -4.95E+00
   101 Broy./Diag. 0.40E+00   25.4     1.78480250     -1078.7464406019 -3.51E+00
   102 Broy./Diag. 0.40E+00   24.3     1.81234289     -1073.9918168381  4.75E+00
   103 Broy./Diag. 0.40E+00   24.6     1.77797597     -1078.7284429345 -4.74E+00
   104 Broy./Diag. 0.40E+00   24.7     1.87541239     -1075.5846613667  3.14E+00
   105 Broy./Diag. 0.40E+00   24.0     1.62191394     -1074.6522930950  9.32E-01
   106 Broy./Diag. 0.40E+00   23.8     1.77340933     -1070.3380572679  4.31E+00
   107 Broy./Diag. 0.40E+00   24.8     1.78898867     -1078.2247141978 -7.89E+00
   108 Broy./Diag. 0.40E+00   24.2     1.68108700     -1080.8029684410 -2.58E+00
   109 Broy./Diag. 0.40E+00   22.7     1.71056647     -1070.1014071994  1.07E+01
   110 Broy./Diag. 0.40E+00   21.6     1.78733261     -1074.6515975543 -4.55E+00
   111 Broy./Diag. 0.40E+00   23.7     1.78845778     -1078.7153056777 -4.06E+00
   112 Broy./Diag. 0.40E+00   24.6     1.81729362     -1073.9820618153  4.73E+00
   113 Broy./Diag. 0.40E+00   24.6     1.80182039     -1079.2879501529 -5.31E+00
   114 Broy./Diag. 0.40E+00   23.6     1.70287036     -1075.8468826582  3.44E+00
   115 Broy./Diag. 0.40E+00   23.5     1.75850000     -1074.1076754237  1.74E+00
   116 Broy./Diag. 0.40E+00   24.3     1.78381873     -1072.3704601929  1.74E+00
   117 Broy./Diag. 0.40E+00   23.8     1.78838339     -1078.9951512653 -6.62E+00
   118 Broy./Diag. 0.40E+00   24.2     1.70075597     -1078.5782705485  4.17E-01
   119 Broy./Diag. 0.40E+00   24.7     1.35373019     -1072.9873062070  5.59E+00
   120 Broy./Diag. 0.40E+00   25.5     1.69158154     -1069.4954636926  3.49E+00
   121 Broy./Diag. 0.40E+00   24.9     1.77168822     -1085.0913491589 -1.56E+01
   122 Broy./Diag. 0.40E+00   24.9     1.83116984     -1077.1565268126  7.93E+00
   123 Broy./Diag. 0.40E+00   24.6     1.64419659     -1074.8715248417  2.29E+00
   124 Broy./Diag. 0.40E+00   24.8     1.70338886     -1072.1185314122  2.75E+00
   125 Broy./Diag. 0.40E+00   24.7     1.77026553     -1073.0880921399 -9.70E-01
   126 Broy./Diag. 0.40E+00   24.7     1.73671087     -1076.7606652101 -3.67E+00
   127 Broy./Diag. 0.40E+00   24.5     1.59703890     -1075.9170569939  8.44E-01
   128 Broy./Diag. 0.40E+00   24.7     1.64820467     -1074.7849091583  1.13E+00
   129 Broy./Diag. 0.40E+00   22.7     1.74379432     -1073.7332693271  1.05E+00
   130 Broy./Diag. 0.40E+00   24.5     1.78806617     -1076.7932447722 -3.06E+00
   131 Broy./Diag. 0.40E+00   23.9     1.84021064     -1076.3443550288  4.49E-01
   132 Broy./Diag. 0.40E+00   23.8     1.81494432     -1072.5470347622  3.80E+00
   133 Broy./Diag. 0.40E+00   24.3     1.75842037     -1077.9323954812 -5.39E+00
   134 Broy./Diag. 0.40E+00   23.9     1.84358092     -1077.3134797355  6.19E-01
   135 Broy./Diag. 0.40E+00   24.4     1.75694790     -1072.3946840952  4.92E+00
   136 Broy./Diag. 0.40E+00   24.5     1.56864182     -1073.2542748988 -8.60E-01
   137 Broy./Diag. 0.40E+00   24.5     1.68420262     -1075.1494539747 -1.90E+00
   138 Broy./Diag. 0.40E+00   24.7     1.74450667     -1075.8180412492 -6.69E-01
   139 Broy./Diag. 0.40E+00   24.9     1.76352885     -1081.1307897741 -5.31E+00
   140 Broy./Diag. 0.40E+00   24.8     1.83031117     -1077.9677548271  3.16E+00
   141 Broy./Diag. 0.40E+00   24.6     1.74283638     -1072.7570783268  5.21E+00
   142 Broy./Diag. 0.40E+00   24.7     1.68288642     -1074.7543806293 -2.00E+00
   143 Broy./Diag. 0.40E+00   24.6     1.75878840     -1075.1174816546 -3.63E-01
   144 Broy./Diag. 0.40E+00   24.5     1.80403388     -1074.8518207158  2.66E-01
   145 Broy./Diag. 0.40E+00   24.5     1.67409282     -1071.4490817511  3.40E+00
   146 Broy./Diag. 0.40E+00   24.1     1.73363655     -1081.2157287740 -9.77E+00
   147 Broy./Diag. 0.40E+00   24.1     1.79742577     -1076.9556338438  4.26E+00
   148 Broy./Diag. 0.40E+00   23.9     1.84881529     -1076.0107745181  9.45E-01
   149 Broy./Diag. 0.40E+00   23.9     1.68815003     -1075.1541603152  8.57E-01
   150 Broy./Diag. 0.40E+00   24.9     1.71618573     -1075.6321569359 -4.78E-01
   151 Broy./Diag. 0.40E+00   25.2     1.62949051     -1074.1260631333  1.51E+00
   152 Broy./Diag. 0.40E+00   23.6     1.63864193     -1070.9653555873  3.16E+00
   153 Broy./Diag. 0.40E+00   25.1     1.66762637     -1072.3625596302 -1.40E+00
   154 Broy./Diag. 0.40E+00   24.1     1.72687969     -1074.1209150199 -1.76E+00
   155 Broy./Diag. 0.40E+00   23.1     1.78494528     -1079.3453223446 -5.22E+00
   156 Broy./Diag. 0.40E+00   22.2     1.73652993     -1079.0675785700  2.78E-01
   157 Broy./Diag. 0.40E+00   23.0     1.79602344     -1074.6933800816  4.37E+00
   158 Broy./Diag. 0.40E+00   23.2     1.86792054     -1076.2747374987 -1.58E+00
   159 Broy./Diag. 0.40E+00   26.1     1.75281999     -1075.9755654581  2.99E-01
   160 Broy./Diag. 0.40E+00   24.7     1.82222109     -1076.9416890736 -9.66E-01
   161 Broy./Diag. 0.40E+00   25.0     1.65446794     -1075.2851648467  1.66E+00
   162 Broy./Diag. 0.40E+00   24.8     1.63779445     -1070.5580771246  4.73E+00
   163 Broy./Diag. 0.40E+00   24.4     1.76365530     -1072.7273779507 -2.17E+00
   164 Broy./Diag. 0.40E+00   24.6     1.84345904     -1078.9841953980 -6.26E+00
   165 Broy./Diag. 0.40E+00   24.8     1.75473870     -1078.5019763694  4.82E-01
   166 Broy./Diag. 0.40E+00   24.3     1.67069517     -1073.3613809812  5.14E+00
   167 Broy./Diag. 0.40E+00   23.9     1.72867562     -1074.3882822812 -1.03E+00
   168 Broy./Diag. 0.40E+00   23.7     1.79032024     -1074.8573992460 -4.69E-01
   169 Broy./Diag. 0.40E+00   24.0     1.76911665     -1075.3228781755 -4.65E-01
   170 Broy./Diag. 0.40E+00   24.1     1.82582325     -1076.3890654726 -1.07E+00
   171 Broy./Diag. 0.40E+00   25.6     1.71194131     -1078.8302836154 -2.44E+00
   172 Broy./Diag. 0.40E+00   22.8     1.47138673     -1072.9497561655  5.88E+00
   173 Broy./Diag. 0.40E+00   25.3     1.75280951     -1071.7669440776  1.18E+00
   174 Broy./Diag. 0.40E+00   24.3     1.84749364     -1079.2068448149 -7.44E+00
   175 Broy./Diag. 0.40E+00   24.5     1.75368418     -1074.8642091882  4.34E+00
   176 Broy./Diag. 0.40E+00   24.5     1.71915480     -1071.6323960505  3.23E+00
   177 Broy./Diag. 0.40E+00   24.3     1.77269861     -1073.6546063254 -2.02E+00
   178 Broy./Diag. 0.40E+00   22.8     1.82256033     -1075.9962490371 -2.34E+00
   179 Broy./Diag. 0.40E+00   24.5     1.67456055     -1076.1870364464 -1.91E-01
   180 Broy./Diag. 0.40E+00   25.6     1.79452869     -1074.4105111022  1.78E+00
   181 Broy./Diag. 0.40E+00   24.3     1.67417590     -1078.4583462438 -4.05E+00
   182 Broy./Diag. 0.40E+00   25.5     1.49105564     -1073.8989801651  4.56E+00
   183 Broy./Diag. 0.40E+00   24.6     1.74486069     -1072.6522483220  1.25E+00
   184 Broy./Diag. 0.40E+00   24.1     1.81557657     -1078.4181274430 -5.77E+00
   185 Broy./Diag. 0.40E+00   25.1     1.77640907     -1072.9362424448  5.48E+00
   186 Broy./Diag. 0.40E+00   24.5     1.82581727     -1077.1435499207 -4.21E+00
   187 Broy./Diag. 0.40E+00   24.6     1.77407559     -1076.4178218632  7.26E-01
   188 Broy./Diag. 0.40E+00   23.5     1.84983744     -1075.4429245475  9.75E-01
   189 Broy./Diag. 0.40E+00   22.7     1.50106238     -1076.7271511526 -1.28E+00
   190 Broy./Diag. 0.40E+00   22.1     1.68821766     -1070.7388627016  5.99E+00
   191 Broy./Diag. 0.40E+00   23.7     1.76946971     -1084.7714207435 -1.40E+01
   192 Broy./Diag. 0.40E+00   24.1     1.82563255     -1079.9496672840  4.82E+00
   193 Broy./Diag. 0.40E+00   24.4     1.72566416     -1074.0888872105  5.86E+00
   194 Broy./Diag. 0.40E+00   25.0     1.82784682     -1075.8363938763 -1.75E+00
   195 Broy./Diag. 0.40E+00   24.9     1.75161385     -1069.2797879570  6.56E+00
   196 Broy./Diag. 0.40E+00   25.0     1.76769871     -1082.0569998894 -1.28E+01
   197 Broy./Diag. 0.40E+00   24.4     1.79085615     -1080.4489059258  1.61E+00
   198 Broy./Diag. 0.40E+00   24.9     1.83884309     -1076.4918210074  3.96E+00
   199 Broy./Diag. 0.40E+00   24.2     1.80532844     -1078.7270572789 -2.24E+00
   200 Broy./Diag. 0.40E+00   26.2     1.84678566     -1073.0461808684  5.68E+00
   201 Broy./Diag. 0.40E+00   24.7     1.75904510     -1073.7588889841 -7.13E-01
   202 Broy./Diag. 0.40E+00   24.4     1.67299514     -1071.5460854034  2.21E+00
   203 Broy./Diag. 0.40E+00   23.8     1.64361316     -1074.5854270245 -3.04E+00
   204 Broy./Diag. 0.40E+00   24.5     1.75311307     -1074.8235040414 -2.38E-01
   205 Broy./Diag. 0.40E+00   23.2     1.70542908     -1077.3709339177 -2.55E+00
   206 Broy./Diag. 0.40E+00   25.5     1.74488537     -1076.7011837940  6.70E-01
   207 Broy./Diag. 0.40E+00   24.6     1.53156127     -1073.3222421611  3.38E+00
   208 Broy./Diag. 0.40E+00   25.1     1.66997973     -1074.2537623143 -9.32E-01
   209 Broy./Diag. 0.40E+00   24.9     1.71008999     -1081.2464481886 -6.99E+00
   210 Broy./Diag. 0.40E+00   24.3     1.70701021     -1072.8791227864  8.37E+00
   211 Broy./Diag. 0.40E+00   25.3     1.73303824     -1081.7757623299 -8.90E+00
   212 Broy./Diag. 0.40E+00   25.2     1.76347744     -1072.1131639438  9.66E+00
   213 Broy./Diag. 0.40E+00   25.9     1.81603055     -1078.1279254784 -6.01E+00
   214 Broy./Diag. 0.40E+00   25.3     1.74524618     -1073.6638082513  4.46E+00
   215 Broy./Diag. 0.40E+00   24.6     1.76319708     -1074.5456649186 -8.82E-01
   216 Broy./Diag. 0.40E+00   24.8     1.61520698     -1079.5913552073 -5.05E+00
   217 Broy./Diag. 0.40E+00   25.0     1.72350515     -1075.4255582146  4.17E+00
   218 Broy./Diag. 0.40E+00   23.3     1.81262631     -1075.7373230572 -3.12E-01
   219 Broy./Diag. 0.40E+00   23.9     1.81521021     -1078.5235726129 -2.79E+00
   220 Broy./Diag. 0.40E+00   24.7     1.72875052     -1072.1616228003  6.36E+00
   221 Broy./Diag. 0.40E+00   23.0     1.66607390     -1072.8818866614 -7.20E-01
   222 Broy./Diag. 0.40E+00   24.6     1.71152095     -1078.1198425287 -5.24E+00
   223 Broy./Diag. 0.40E+00   24.6     1.57452971     -1075.7219743129  2.40E+00
   224 Broy./Diag. 0.40E+00   24.1     1.68593601     -1077.1549001759 -1.43E+00
   225 Broy./Diag. 0.40E+00   24.0     1.77786477     -1074.9972881828  2.16E+00
   226 Broy./Diag. 0.40E+00   23.8     1.83532529     -1077.8155107304 -2.82E+00
   227 Broy./Diag. 0.40E+00   24.0     1.73459968     -1072.8719149892  4.94E+00
   228 Broy./Diag. 0.40E+00   24.9     1.89540411     -1076.3594947893 -3.49E+00
   229 Broy./Diag. 0.40E+00   24.5     1.77332480     -1078.2113042491 -1.85E+00
   230 Broy./Diag. 0.40E+00   24.5     1.72834555     -1075.1504189248  3.06E+00
   231 Broy./Diag. 0.40E+00   24.2     1.74106855     -1071.6552645131  3.50E+00
   232 Broy./Diag. 0.40E+00   24.6     1.83265283     -1079.8342519978 -8.18E+00
   233 Broy./Diag. 0.40E+00   25.6     1.71952560     -1077.4184657090  2.42E+00
   234 Broy./Diag. 0.40E+00   24.8     1.70087659     -1071.4747435370  5.94E+00
   235 Broy./Diag. 0.40E+00   24.7     1.70542290     -1075.9386919769 -4.46E+00
   236 Broy./Diag. 0.40E+00   24.6     1.75619621     -1077.5991679540 -1.66E+00
   237 Broy./Diag. 0.40E+00   24.8     1.81816349     -1075.0698136890  2.53E+00
   238 Broy./Diag. 0.40E+00   24.7     1.82508169     -1076.7667178272 -1.70E+00
   239 Broy./Diag. 0.40E+00   24.7     1.72236918     -1076.2235347822  5.43E-01
   240 Broy./Diag. 0.40E+00   24.7     1.65009117     -1075.1034082058  1.12E+00
   241 Broy./Diag. 0.40E+00   24.7     1.66628955     -1073.4407825640  1.66E+00
   242 Broy./Diag. 0.40E+00   24.7     1.55736288     -1074.5488358119 -1.11E+00
   243 Broy./Diag. 0.40E+00   25.7     1.75127959     -1077.6494594137 -3.10E+00
   244 Broy./Diag. 0.40E+00   24.7     1.73666298     -1074.1007437066  3.55E+00
   245 Broy./Diag. 0.40E+00   24.5     1.81759471     -1074.1644128617 -6.37E-02
   246 Broy./Diag. 0.40E+00   24.5     1.70179164     -1078.3767402297 -4.21E+00
   247 Broy./Diag. 0.40E+00   22.7     1.72120574     -1075.0159897083  3.36E+00
   248 Broy./Diag. 0.40E+00   24.2     1.76152954     -1074.3444064198  6.72E-01
   249 Broy./Diag. 0.40E+00   24.8     1.68227017     -1077.4377410600 -3.09E+00
   250 Broy./Diag. 0.40E+00   22.7     1.77428062     -1074.6106825889  2.83E+00
   251 Broy./Diag. 0.40E+00   23.0     1.77657963     -1077.2001453679 -2.59E+00
   252 Broy./Diag. 0.40E+00   22.5     1.87665637     -1075.7584633790  1.44E+00
   253 Broy./Diag. 0.40E+00   23.1     1.76125563     -1078.5582556651 -2.80E+00
   254 Broy./Diag. 0.40E+00   22.7     1.76121113     -1072.4486760978  6.11E+00
   255 Broy./Diag. 0.40E+00   23.3     1.80039532     -1076.3634922817 -3.91E+00
   256 Broy./Diag. 0.40E+00   24.1     1.77575227     -1075.7871572875  5.76E-01
   257 Broy./Diag. 0.40E+00   24.1     1.59623321     -1074.5477153461  1.24E+00
   258 Broy./Diag. 0.40E+00   24.1     1.40750641     -1073.1746452135  1.37E+00
   259 Broy./Diag. 0.40E+00   25.4     1.53790123     -1076.5284944152 -3.35E+00
   260 Broy./Diag. 0.40E+00   24.5     1.72337774     -1073.7304113489  2.80E+00
   261 Broy./Diag. 0.40E+00   24.5     1.78550687     -1081.7312171331 -8.00E+00
   262 Broy./Diag. 0.40E+00   24.5     1.85585616     -1074.8789073007  6.85E+00
   263 Broy./Diag. 0.40E+00   23.9     1.66239503     -1075.9597428168 -1.08E+00
   264 Broy./Diag. 0.40E+00   24.8     1.75443386     -1069.0110278373  6.95E+00
   265 Broy./Diag. 0.40E+00   25.0     1.84073556     -1085.3319773078 -1.63E+01
   266 Broy./Diag. 0.40E+00   24.6     1.74575652     -1082.5202053685  2.81E+00
   267 Broy./Diag. 0.40E+00   24.5     1.83053088     -1075.6683746038  6.85E+00
   268 Broy./Diag. 0.40E+00   24.8     1.81420266     -1073.6867444404  1.98E+00
   269 Broy./Diag. 0.40E+00   24.6     1.67673033     -1075.9025105773 -2.22E+00
   270 Broy./Diag. 0.40E+00   24.5     1.67804613     -1070.3828194444  5.52E+00
   271 Broy./Diag. 0.40E+00   24.6     1.71673194     -1078.4046220008 -8.02E+00
   272 Broy./Diag. 0.40E+00   25.1     1.69857913     -1078.0618662147  3.43E-01
   273 Broy./Diag. 0.40E+00   24.7     1.67223995     -1077.1181151066  9.44E-01
   274 Broy./Diag. 0.40E+00   24.7     1.70845627     -1074.8915524336  2.23E+00
   275 Broy./Diag. 0.40E+00   24.6     1.72721483     -1076.6660336727 -1.77E+00
   276 Broy./Diag. 0.40E+00   24.8     1.75520447     -1071.5002044958  5.17E+00
   277 Broy./Diag. 0.40E+00   24.8     1.72654334     -1083.8591995931 -1.24E+01
   278 Broy./Diag. 0.40E+00   24.5     1.65963488     -1075.4536515219  8.41E+00
   279 Broy./Diag. 0.40E+00   24.7     1.71394328     -1075.8809043112 -4.27E-01
   280 Broy./Diag. 0.40E+00   24.9     1.59297356     -1074.4413397887  1.44E+00
   281 Broy./Diag. 0.40E+00   24.6     1.70574188     -1075.7167783161 -1.28E+00
   282 Broy./Diag. 0.40E+00   24.8     1.76971947     -1074.0878562666  1.63E+00
   283 Broy./Diag. 0.40E+00   24.4     1.76818534     -1077.4192242895 -3.33E+00
   284 Broy./Diag. 0.40E+00   23.0     1.79859952     -1077.4647287903 -4.55E-02
   285 Broy./Diag. 0.40E+00   23.2     1.58591649     -1073.9283287203  3.54E+00
   286 Broy./Diag. 0.40E+00   24.9     1.66087354     -1071.5679479031  2.36E+00
   287 Broy./Diag. 0.40E+00   24.5     1.77789184     -1076.8019752409 -5.23E+00
   288 Broy./Diag. 0.40E+00   23.1     1.85120910     -1077.2070875741 -4.05E-01
   289 Broy./Diag. 0.40E+00   24.3     1.80275924     -1075.3799803555  1.83E+00
   290 Broy./Diag. 0.40E+00   25.5     1.77018025     -1078.8712531643 -3.49E+00
   291 Broy./Diag. 0.40E+00   25.1     1.40729573     -1077.6381792629  1.23E+00
   292 Broy./Diag. 0.40E+00   25.0     1.76990392     -1072.0658668669  5.57E+00
   293 Broy./Diag. 0.40E+00   25.2     1.66351164     -1078.9756546603 -6.91E+00
   294 Broy./Diag. 0.40E+00   25.1     1.71533436     -1072.4802446143  6.50E+00
   295 Broy./Diag. 0.40E+00   22.5     1.63205683     -1077.1012675849 -4.62E+00
   296 Broy./Diag. 0.40E+00   23.5     1.74044590     -1071.6531556420  5.45E+00
   297 Broy./Diag. 0.40E+00   23.2     1.78867643     -1080.9766035793 -9.32E+00
   298 Broy./Diag. 0.40E+00   22.5     1.84750489     -1070.6821355937  1.03E+01
   299 Broy./Diag. 0.40E+00   23.2     1.77107140     -1075.9880673783 -5.31E+00
   300 Broy./Diag. 0.40E+00   22.8     1.76134743     -1075.8203245332  1.68E-01

  Leaving inner SCF loop after reaching   300 steps.


  Electronic density on regular grids:       -512.0003375582       -0.0003375582
  Core density on regular grids:              511.9999569819       -0.0000430181
  Total charge density on r-space grids:       -0.0003805764
  Total charge density g-space grids:          -0.0003805764

  Overlap energy of the core charge distribution:               0.00000000000000
  Self energy of the core charge distribution:              -2838.21791979120962
  Core Hamiltonian energy:                                    760.29634761590069
  Hartree energy:                                            1240.36509279360894
  Exchange-correlation energy:                               -238.26384515153504

  Total energy:                                             -1075.82032453323495

 *** WARNING in qs_scf.F:542 :: SCF run NOT converged ***


 ENERGY| Total FORCE_EVAL ( QS ) energy (a.u.):            -1066.296381651067350


 ATOMIC FORCES in [a.u.]

 # Atom   Kind   Element          X              Y              Z
      1      1      O          -0.05504050    -0.01111371    -0.01240040
      2      2      H           0.00817986     0.04955572    -0.12305424
      3      2      H           0.03352477    -0.05448028     0.03015235
      4      1      O          -0.04619906    -0.06335239    -0.00113813
      5      2      H           0.02910771     0.00867380     0.04236338
      6      2      H           0.03417719     0.03849812    -0.02359403
      7      1      O          -0.06154787    -0.02881848    -0.11504375
      8      2      H           0.00099994     0.01922390     0.02694256
      9      2      H           0.04942786    -0.04811268    -0.02438506
     10      1      O          -0.02590505     0.14120458    -0.21109080
     11      2      H          -0.08107228    -0.09134557     0.08590714
     12      2      H           0.11894434     0.01356473     0.05035072
     13      1      O          -0.11999848     0.02253384    -0.07605764
     14      2      H           0.08478412     0.11416574    -0.04183956
     15      2      H           0.03048625    -0.10434514     0.04473922
     16      1      O          -0.02817385    -0.01412908     0.02821595
     17      2      H          -0.01957036     0.04920246     0.07742195
     18      2      H          -0.00075982    -0.01613902    -0.02705562
     19      1      O          -0.03228763     0.07809112     0.08822767
     20      2      H           0.00078763    -0.04299070    -0.03768298
     21      2      H           0.06779387     0.02474462    -0.01467796
     22      1      O          -0.01304969    -0.05300617    -0.13116206
     23      2      H           0.07759573    -0.00484887    -0.00298858
     24      2      H          -0.06801700     0.09686768     0.00744268
     25      1      O           0.03333491     0.08435672    -0.09519405
     26      2      H           0.00756517    -0.06576638    -0.03282958
     27      2      H          -0.01709962     0.03301703     0.05753868
     28      1      O          -0.11389939     0.15093497     0.02430797
     29      2      H          -0.01186248    -0.18838616    -0.09197017
     30      2      H           0.15015806     0.03882328     0.02075098
     31      1      O           0.00344969    -0.01799097     0.00103731
     32      2      H           0.00911232     0.07857024     0.04029798
     33      2      H          -0.01444762    -0.02350251     0.04079271
     34      1      O          -0.02665995    -0.14115500    -0.15033453
     35      2      H          -0.06758028     0.05741520     0.00787764
     36      2      H           0.09049985     0.04631187     0.01922448
     37      1      O          -0.03784152    -0.03504697    -0.07804843
     38      2      H          -0.01709925    -0.01728312    -0.03667540
     39      2      H           0.00306251    -0.01995210    -0.02070766
     40      1      O          -0.01092251    -0.08546553    -0.10156570
     41      2      H           0.09155306     0.08712678    -0.06590682
     42      2      H          -0.05061271     0.07749286     0.04657003
     43      1      O          -0.02558252     0.09944362    -0.13522902
     44      2      H          -0.02934803    -0.07702741    -0.04197050
     45      2      H           0.06608218    -0.00821005     0.04328042
     46      1      O           0.00678092     0.12615590     0.05033008
     47      2      H          -0.08289735    -0.07675949    -0.18731381
     48      2      H           0.07467189    -0.14481998     0.04395046
     49      1      O          -0.01211475     0.02525515    -0.11286197
     50      2      H           0.01513606    -0.01049817     0.03193112
     51      2      H          -0.01841737     0.02044659     0.01305040
     52      1      O          -0.07065406    -0.09160506     0.08364439
     53      2      H           0.04579938     0.00770589    -0.01542915
     54      2      H           0.01553095     0.04296532     0.05782920
     55      1      O           0.13583539     0.01552172    -0.17245103
     56      2      H          -0.05829286    -0.11613034    -0.00087997
     57      2      H          -0.06056683     0.04648735     0.09979810
     58      1      O           0.04930951     0.05503158     0.00553509
     59      2      H          -0.03539619     0.00007477    -0.02471266
     60      2      H          -0.01627421    -0.02377193     0.01639922
     61      1      O          -0.05250164    -0.06985008    -0.05075248
     62      2      H           0.03074156    -0.04534566     0.04680755
     63      2      H           0.03192308     0.02136081    -0.01928907
     64      1      O           0.03209483     0.09788421    -0.13918029
     65      2      H          -0.04135301     0.03872915    -0.01877492
     66      2      H           0.03709525    -0.04942072     0.08563216
     67      1      O          -0.08007397     0.00913928    -0.04787389
     68      2      H           0.05948658    -0.04764558     0.01540183
     69      2      H           0.04719252     0.03917593    -0.08443000
     70      1      O           0.06116482     0.05331162     0.15125267
     71      2      H           0.03052603    -0.08137117    -0.00216254
     72      2      H          -0.07175930    -0.00177283    -0.05005195
     73      1      O          -0.13546283     0.06000762    -0.10744634
     74      2      H           0.05353216     0.06805849     0.04642371
     75      2      H           0.06662113    -0.12655965    -0.05792408
     76      1      O           0.06739876    -0.09905581    -0.15699847
     77      2      H          -0.00322884    -0.05209449     0.13326596
     78      2      H          -0.05139965     0.02773677    -0.04987877
     79      1      O          -0.04221188     0.06001126     0.07822088
     80      2      H           0.05101990     0.00753351    -0.01859451
     81      2      H          -0.00491333    -0.00579315     0.01417369
     82      1      O          -0.03932008     0.02527780    -0.20597285
     83      2      H           0.09651023     0.02332681     0.02531041
     84      2      H          -0.02639996    -0.12451036     0.08792209
     85      1      O           0.09237398     0.07578649    -0.20734432
     86      2      H           0.03428123     0.00689453     0.08526559
     87      2      H          -0.11961535    -0.07998988     0.00367626
     88      1      O           0.03996908     0.05049742     0.05372962
     89      2      H           0.00021922    -0.03285398     0.02624354
     90      2      H          -0.01857302     0.00665039     0.01459823
     91      1      O          -0.07571874    -0.05699838    -0.10855520
     92      2      H           0.02241249    -0.03553220     0.11796831
     93      2      H           0.05622655     0.05872492     0.04745027
     94      1      O           0.03456840     0.06390259     0.01288092
     95      2      H          -0.03518324    -0.07850667     0.06559174
     96      2      H           0.01746171    -0.01047075    -0.11509368
     97      1      O           0.04392617     0.10185435    -0.01614408
     98      2      H           0.00019420     0.01756736    -0.04335186
     99      2      H          -0.02357027    -0.00419772    -0.00117039
    100      1      O           0.00250451     0.10715982     0.00651043
    101      2      H           0.04740658    -0.00943102    -0.00790375
    102      2      H          -0.05410466    -0.02450655    -0.02898955
    103      1      O           0.02194605     0.02994538     0.00716096
    104      2      H           0.03053806     0.06506909     0.04447464
    105      2      H          -0.06427831    -0.01430199     0.04294523
    106      1      O           0.02315803     0.08409696     0.14508324
    107      2      H          -0.04072172     0.00195115     0.00226596
    108      2      H           0.00512740    -0.06566865    -0.04079729
    109      1      O           0.08511341     0.02173114    -0.06328808
    110      2      H          -0.01675217    -0.03911495    -0.04873675
    111      2      H          -0.04256286     0.06858342     0.05186505
    112      1      O          -0.02888830     0.01339767    -0.01639742
    113      2      H           0.04586626    -0.04433523    -0.05009613
    114      2      H          -0.02328289     0.05670272    -0.00863023
    115      1      O          -0.02131838     0.06254391    -0.11988054
    116      2      H           0.03403609    -0.03451401     0.08736605
    117      2      H          -0.03126803    -0.01300588    -0.01735416
    118      1      O           0.08492291    -0.08056388    -0.22712994
    119      2      H           0.04074831     0.05579004     0.04471140
    120      2      H          -0.07426635    -0.03807485     0.04049254
    121      1      O          -0.01346844     0.08767872    -0.07758534
    122      2      H           0.00609173    -0.05640160    -0.02626637
    123      2      H           0.02736697     0.00389301     0.00887515
    124      1      O          -0.09104774     0.04871526    -0.01660936
    125      2      H           0.06577778    -0.00945235     0.00916425
    126      2      H           0.01069129    -0.07322330     0.02252847
    127      1      O          -0.00155543    -0.06890817    -0.07814141
    128      2      H          -0.03088414     0.05151616     0.08049113
    129      2      H           0.03833893    -0.05446473     0.00806204
    130      1      O          -0.06642843     0.09531589     0.11371911
    131      2      H          -0.01348952     0.00890622     0.02543158
    132      2      H           0.01981103    -0.04092576     0.04680717
    133      1      O          -0.02779629     0.08946883     0.10857263
    134      2      H           0.05537180    -0.04532492     0.00756092
    135      2      H          -0.04813036    -0.00731041    -0.06239905
    136      1      O           0.21947208     0.05681883     0.01607330
    137      2      H          -0.04044935    -0.15714409     0.13923652
    138      2      H          -0.18376006     0.10750678    -0.13018781
    139      1      O           0.08632018    -0.03152723     0.05094670
    140      2      H          -0.02538236     0.02374649     0.02995002
    141      2      H          -0.03150102     0.02800003    -0.06132666
    142      1      O           0.06312482    -0.06355626     0.02079028
    143      2      H          -0.01025446    -0.03473783     0.02555803
    144      2      H          -0.06924262     0.03107451    -0.02793966
    145      1      O           0.05469255    -0.05288315     0.11065054
    146      2      H           0.04570588     0.03844840    -0.11256930
    147      2      H          -0.07431028     0.01157789     0.02088046
    148      1      O           0.03993226    -0.00841718    -0.04437359
    149      2      H          -0.03231974     0.01946862     0.07041099
    150      2      H          -0.04299136     0.00426387    -0.05066676
    151      1      O           0.01544364     0.04977555    -0.06096073
    152      2      H           0.00307021     0.01429646    -0.01286246
    153      2      H          -0.01940206    -0.00572395     0.01019967
    154      1      O          -0.09428358    -0.06296656     0.01071021
    155      2      H           0.02410128    -0.01484358    -0.12012084
    156      2      H           0.06001704     0.01198647     0.08289156
    157      1      O           0.03192674     0.04769251     0.05932350
    158      2      H          -0.07237180    -0.00549167     0.02472756
    159      2      H           0.05648848     0.04200984    -0.09000707
    160      1      O           0.04368131     0.07753372    -0.03647363
    161      2      H           0.00152465    -0.02578474     0.01115728
    162      2      H          -0.02549846     0.01403153    -0.08790646
    163      1      O           0.07773994     0.03442565    -0.11976517
    164      2      H          -0.05736981     0.06380476    -0.00925830
    165      2      H          -0.00820172    -0.06567414     0.00490722
    166      1      O           0.01782537    -0.00107878    -0.02380315
    167      2      H           0.00663370     0.01414796    -0.06856061
    168      2      H          -0.03024684    -0.00895940    -0.01145897
    169      1      O          -0.01434089    -0.04055019    -0.04124211
    170      2      H           0.01477428     0.05930768    -0.01555924
    171      2      H          -0.01500552    -0.00885518    -0.04696581
    172      1      O           0.05304449     0.03373817     0.04514810
    173      2      H          -0.06029376    -0.01195430    -0.03041953
    174      2      H           0.01851128     0.01336232     0.08920951
    175      1      O          -0.00074175     0.06708712     0.08329219
    176      2      H          -0.02411107    -0.01613256     0.01065807
    177      2      H          -0.01210982     0.00584447    -0.04032671
    178      1      O           0.04233682     0.00372858     0.00506712
    179      2      H          -0.00386290     0.03325593    -0.06346597
    180      2      H           0.01661794    -0.06285970     0.00193271
    181      1      O          -0.13236724    -0.02211791     0.08168885
    182      2      H           0.04818121    -0.03579762     0.04787585
    183      2      H           0.04402124     0.00882719    -0.12134503
    184      1      O           0.01805499     0.00197217    -0.01323378
    185      2      H          -0.00011832     0.04373398     0.00729639
    186      2      H          -0.00471934    -0.05353307    -0.05440187
    187      1      O          -0.00272049     0.05833821    -0.02549796
    188      2      H           0.07715749     0.01075095     0.02063265
    189      2      H          -0.05289098    -0.01993475    -0.01654649
    190      1      O           0.18022512    -0.20506024    -0.05468649
    191      2      H          -0.02624567     0.22483248    -0.06787950
    192      2      H          -0.12140195    -0.01966379     0.13372826
 SUM OF ATOMIC FORCES           0.21683766     0.43795058    -1.84050117     1.90427515

 -------------------------------------------------------------------------------
 -                                                                             -
 -                                DBCSR STATISTICS                             -
 -                                                                             -
 -------------------------------------------------------------------------------
 COUNTER                                    TOTAL       BLAS       SMM       ACC
 flops     5 x     5 x   256           3798860800       0.0%    100.0%      0.0%
 flops    13 x     5 x   256           4547845120       0.0%    100.0%      0.0%
 flops     5 x    13 x   256           4688087040       0.0%    100.0%      0.0%
 flops    13 x    13 x   256           6563321856       0.0%    100.0%      0.0%
 flops inhomo. stacks                           0       0.0%      0.0%      0.0%
 flops total                        19.598115E+09       0.0%    100.0%      0.0%
 flops max/rank                     19.598115E+09       0.0%    100.0%      0.0%
 matmuls inhomo. stacks                         0       0.0%      0.0%      0.0%
 matmuls total                             650160       0.0%    100.0%      0.0%
 number of processed stacks                 42140       0.0%    100.0%      0.0%
 average stack size                                     0.0      15.4       0.0
 marketing flops                   333.927416E+09
 -------------------------------------------------------------------------------
 # multiplications                            301
 max memory usage/rank              30.564438E+09
 # max total images/rank                        1
 # max 3D layers                                1
 # MPI messages exchanged                       0
 MPI messages size (bytes):
  total size                         0.000000E+00
  min size                           0.000000E+00
  max size                           0.000000E+00
  average size                       0.000000E+00
 MPI breakdown and total messages size (bytes):
             size <=      128                   0                        0
       128 < size <=     8192                   0                        0
      8192 < size <=    32768                   0                        0
     32768 < size <=   131072                   0                        0
    131072 < size <=  4194304                   0                        0
   4194304 < size <= 16777216                   0                        0
  16777216 < size                               0                        0
 -------------------------------------------------------------------------------

 MEMORY| Estimated peak process memory [MiB]                               29153

 -------------------------------------------------------------------------------
 -                                                                             -
 -                           R E F E R E N C E S                               -
 -                                                                             -
 -------------------------------------------------------------------------------
 
 CP2K version 7.1, the CP2K developers group (2019).
 CP2K is freely available from https://www.cp2k.org/ .

 Schuett, Ole; Messmer, Peter; Hutter, Juerg; VandeVondele, Joost. 
 Electronic Structure Calculations on Graphics Processing Units, John
 Wiley & Sons, Ltd, 173-190 (2016). 
 GPU-Accelerated Sparse Matrix-Matrix Multiplication for
 Linear Scaling Density Functional Theory.
 https://dx.doi.org/10.1002/9781118670712.ch8

 Borstnik, U; VandeVondele, J; Weber, V; Hutter, J. 
 PARALLEL COMPUTING, 40 (5-6), 47-58 (2014). 
 Sparse matrix multiplication: The distributed block-compressed sparse
 row library.
 https://dx.doi.org/10.1016/j.parco.2014.03.012

 Hutter, J; Iannuzzi, M; Schiffmann, F; VandeVondele, J. 
 WIREs Comput Mol Sci., 4 (1), 15-25 (2014). 
 CP2K: atomistic simulations of condensed matter systems.
 https://dx.doi.org/10.1002/wcms.1159

 Krack, M. 
 THEORETICAL CHEMISTRY ACCOUNTS, 114 (1-3), 145-152 (2005). 
 Pseudopotentials for H to Kr optimized for gradient-corrected
 exchange-correlation functionals.
 https://dx.doi.org/10.1007/s00214-005-0655-y

 VandeVondele, J; Krack, M; Mohamed, F; Parrinello, M; Chassaing, T;
 Hutter, J. COMPUTER PHYSICS COMMUNICATIONS, 167 (2), 103-128 (2005). 
 QUICKSTEP: Fast and accurate density functional calculations using a
 mixed Gaussian and plane waves approach.
 https://dx.doi.org/10.1016/j.cpc.2004.12.014

 Frigo, M; Johnson, SG. 
 PROCEEDINGS OF THE IEEE, 93 (2), 216-231 (2005). 
 The design and implementation of FFTW3.
 https://dx.doi.org/10.1109/JPROC.2004.840301

 Hartwigsen, C; Goedecker, S; Hutter, J. 
 PHYSICAL REVIEW B, 58 (7), 3641-3662 (1998). 
 Relativistic separable dual-space Gaussian pseudopotentials from H to Rn.
 https://dx.doi.org/10.1103/PhysRevB.58.3641

 Lippert, G; Hutter, J; Parrinello, M. 
 MOLECULAR PHYSICS, 92 (3), 477-487 (1997). 
 A hybrid Gaussian and plane wave density functional scheme.
 https://dx.doi.org/10.1080/002689797170220

 Goedecker, S; Teter, M; Hutter, J. 
 PHYSICAL REVIEW B, 54 (3), 1703-1710 (1996). 
 Separable dual-space Gaussian pseudopotentials.
 https://dx.doi.org/10.1103/PhysRevB.54.1703


 -------------------------------------------------------------------------------
 -                                                                             -
 -                                T I M I N G                                  -
 -                                                                             -
 -------------------------------------------------------------------------------
 SUBROUTINE                       CALLS  ASD         SELF TIME        TOTAL TIME
                                MAXIMUM       AVERAGE  MAXIMUM  AVERAGE  MAXIMUM
 CP2K                                 1  1.0    1.043    1.043 7269.269 7269.269
 qs_forces                            1  2.0    0.000    0.000 7257.837 7257.837
 qs_energies                          1  3.0    0.000    0.000 7253.755 7253.755
 scf_env_do_scf                       1  4.0    0.001    0.001 7242.167 7242.167
 scf_env_do_scf_inner_loop          300  5.0    0.049    0.049 7242.166 7242.166
 gspace_mixing                      299  6.0   42.296   42.296 2998.174 2998.174
 broyden_mixing                     299  7.0 2709.595 2709.595 2709.599 2709.599
 qs_scf_new_mos                     300  6.0    0.008    0.008 1997.521 1997.521
 eigensolver                        300  7.0    0.034    0.034 1928.267 1928.267
 cp_fm_syevd                        300  8.0 1265.024 1265.024 1266.245 1266.245
 pw_transfer                       3912  9.9    0.387    0.387 1187.331 1187.331
 rebuild_ks_matrix                  301  7.0    0.001    0.001 1170.591 1170.591
 qs_ks_build_kohn_sham_matrix       301  8.0    0.106    0.106 1170.590 1170.590
 qs_ks_update_qs_env                300  6.0    0.003    0.003 1167.021 1167.021
 fft_wrap_pw1pw2                   3310 10.9    0.047    0.047 1155.056 1155.056
 qs_rho_update_rho                  301  6.0    0.003    0.003 1080.116 1080.116
 calculate_rho_elec                 301  7.0  526.871  526.871 1080.113 1080.113
 fft_wrap_pw1pw2_70                1504 11.2   91.699   91.699 1048.630 1048.630
 cp_fm_cholesky_restore             900  8.0  660.944  660.944  660.944  660.944
 fft3d_s                           3311 12.9  553.794  553.794  553.841  553.841
 density_rs2pw                      301  8.0    0.047    0.047  543.424  543.424
 pw_scatter_s                      1804 13.2  410.624  410.624  410.624  410.624
 pw_poisson_solve                   301  9.0  334.693  334.693  366.935  366.935
 sum_up_and_integrate               301  9.0   18.046   18.046  339.461  339.461
 integrate_v_rspace                 301 10.0   10.681   10.681  321.415  321.415
 potential_pw2rs                    301 11.0    2.565    2.565  285.622  285.622
 qs_vxc_create                      301  9.0    0.008    0.008  167.686  167.686
 xc_vxc_pw_create                   301 10.0   42.459   42.459  167.678  167.678
 -------------------------------------------------------------------------------

 The number of warnings for this run is : 1
 
 -------------------------------------------------------------------------------
  **** **** ******  **  PROGRAM ENDED AT                 2020-05-27 21:39:02.767
 ***** ** ***  *** **   PROGRAM RAN ON                                   gnode44
 **    ****   ******    PROGRAM RAN BY                               mayank.modi
 ***** **    ** ** **   PROGRAM PROCESS ID                                  2817
  **** **  *******  **  PROGRAM STOPPED IN /home/mayank.modi/ab-initio-thermodyn
                                           amics-of-water/mayank/cp2k_energy_cal
                                           culations
