 DBCSR| CPU Multiplication driver                                           XSMM
 DBCSR| Multrec recursion limit                                              512
 DBCSR| Multiplication stack size                                           1000
 DBCSR| Maximum elements for images                                    UNLIMITED
 DBCSR| Multiplicative factor virtual images                                   1
 DBCSR| Use multiplication densification                                       T
 DBCSR| Multiplication size stacks                                             3


  **** **** ******  **  PROGRAM STARTED AT               2020-05-29 19:09:53.062
 ***** ** ***  *** **   PROGRAM STARTED ON                               gnode44
 **    ****   ******    PROGRAM STARTED BY                           mayank.modi
 ***** **    ** ** **   PROGRAM PROCESS ID                                 38154
  **** **  *******  **  PROGRAM STARTED IN /home/mayank.modi/ab-initio-thermodyn
                                           amics-of-water/mayank/cp2k_energy_cal
                                           culations

 CP2K| version string:                                          CP2K version 7.1
 CP2K| source code revision number:                                  git:e635599
 CP2K| cp2kflags: omp libint fftw3 libxc xsmm spglib                            
 CP2K| is freely available from                            https://www.cp2k.org/
 CP2K| Program compiled at                          Mon Dec 23 19:23:12 CET 2019
 CP2K| Program compiled on                                                pc9404
 CP2K| Program compiled for                                Linux-x86-64-gfortran
 CP2K| Data directory path                                        /opt/cp2k/data
 CP2K| Input file name                                 input_training/input38.in

 GLOBAL| Force Environment number                                              1
 GLOBAL| Basis set file name                                           BASIS_SET
 GLOBAL| Potential file name                                      GTH_POTENTIALS
 GLOBAL| MM Potential file name                                     MM_POTENTIAL
 GLOBAL| Coordinate file name                                      __STD_INPUT__
 GLOBAL| Method name                                                        CP2K
 GLOBAL| Project name                                                   H2O_bulk
 GLOBAL| Preferred FFT library                                             FFTW3
 GLOBAL| Preferred diagonalization lib.                                       SL
 GLOBAL| Run type                                                   ENERGY_FORCE
 GLOBAL| All-to-all communication in single precision                          F
 GLOBAL| FFTs using library dependent lengths                                  F
 GLOBAL| Global print level                                                  LOW
 GLOBAL| MPI I/O enabled                                                       T
 GLOBAL| Total number of message passing processes                             1
 GLOBAL| Number of threads for this process                                   36
 GLOBAL| This output is from process                                           0
 GLOBAL| CPU model name                Intel(R) Xeon(R) CPU E5-2640 v4 @ 2.40GHz
 GLOBAL| CPUID                                                              1002
 GLOBAL| Compiled for CPUID                                                    0

 MEMORY| system memory details [Kb]
 MEMORY|                        rank 0           min           max       average
 MEMORY| MemTotal            131893056     131893056     131893056     131893056
 MEMORY| MemFree             118947552     118947552     118947552     118947552
 MEMORY| Buffers               2126512       2126512       2126512       2126512
 MEMORY| Cached                3331636       3331636       3331636       3331636
 MEMORY| Slab                  3313956       3313956       3313956       3313956
 MEMORY| SReclaimable          3101736       3101736       3101736       3101736
 MEMORY| MemLikelyFree       127507436     127507436     127507436     127507436


 GENERATE|  Preliminary Number of Bonds generated:                             0
 GENERATE|  Achieved consistency in connectivity generation.

 *******************************************************************************
 *******************************************************************************
 **                                                                           **
 **     #####                         ##              ##                      **
 **    ##   ##            ##          ##              ##                      **
 **   ##     ##                       ##            ######                    **
 **   ##     ##  ##   ##  ##   #####  ##  ##   ####   ##    #####    #####    **
 **   ##     ##  ##   ##  ##  ##      ## ##   ##      ##   ##   ##  ##   ##   **
 **   ##  ## ##  ##   ##  ##  ##      ####     ###    ##   ######   ######    **
 **    ##  ###   ##   ##  ##  ##      ## ##      ##   ##   ##       ##        **
 **     #######   #####   ##   #####  ##  ##  ####    ##    #####   ##        **
 **           ##                                                    ##        **
 **                                                                           **
 **                                                ... make the atoms dance   **
 **                                                                           **
 **            Copyright (C) by CP2K developers group (2000 - 2019)           **
 **                                                                           **
 *******************************************************************************


 TOTAL NUMBERS AND MAXIMUM NUMBERS

  Total number of            - Atomic kinds:                                   2
                             - Atoms:                                        192
                             - Shell sets:                                   384
                             - Shells:                                       704
                             - Primitive Cartesian functions:                960
                             - Cartesian basis functions:                   1536
                             - Spherical basis functions:                   1472

  Maximum angular momentum of- Orbital basis functions:                        2
                             - Local part of the GTH pseudopotential:          2
                             - Non-local part of the GTH pseudopotential:      0


 SCF PARAMETERS         Density guess:                                    ATOMIC
                        --------------------------------------------------------
                        max_scf:                                             300
                        max_scf_history:                                       0
                        max_diis:                                              4
                        --------------------------------------------------------
                        eps_scf:                                        1.00E-07
                        eps_scf_history:                                0.00E+00
                        eps_diis:                                       1.00E-01
                        eps_eigval:                                     1.00E-05
                        --------------------------------------------------------
                        level_shift [a.u.]:                                 0.00
                        --------------------------------------------------------
                        Mixing method:                            BROYDEN_MIXING
                                                charge density mixing in g-space
                        --------------------------------------------------------
                        No outer SCF

 Number of electrons:                                                        512
 Number of occupied orbitals:                                                256
 Number of molecular orbitals:                                               256

 Number of orbital functions:                                               1472
 Number of independent orbital functions:                                   1472

 Extrapolation method: initial_guess


 SCF WAVEFUNCTION OPTIMIZATION

  Step     Update method      Time    Convergence         Total energy    Change
  ------------------------------------------------------------------------------
     1 NoMix/Diag. 0.40E+00   10.6     0.68076051     -1064.2696391598 -1.06E+03
     2 Broy./Diag. 0.40E+00   16.5     1.92521092      -997.0084493869  6.73E+01
     3 Broy./Diag. 0.40E+00   17.4     1.93931999     -1260.1874524389 -2.63E+02
     4 Broy./Diag. 0.40E+00   18.4     1.72840115     -1113.7651908175  1.46E+02
     5 Broy./Diag. 0.40E+00   18.8     1.60542562     -1099.6042443241  1.42E+01
     6 Broy./Diag. 0.40E+00   19.8     1.86693285     -1099.1908374478  4.13E-01
     7 Broy./Diag. 0.40E+00   20.8     1.88812307     -1091.8833278790  7.31E+00
     8 Broy./Diag. 0.40E+00   21.7     1.24842439     -1082.7578168285  9.13E+00
     9 Broy./Diag. 0.40E+00   22.2     1.47030804     -1077.9735746724  4.78E+00
    10 Broy./Diag. 0.40E+00   24.8     1.68936049     -1079.4258980919 -1.45E+00
    11 Broy./Diag. 0.40E+00   24.3     1.17154382     -1078.8833408818  5.43E-01
    12 Broy./Diag. 0.40E+00   23.2     1.23775952     -1077.6806758900  1.20E+00
    13 Broy./Diag. 0.40E+00   24.0     1.72191434     -1069.6218295888  8.06E+00
    14 Broy./Diag. 0.40E+00   23.9     0.03420012     -1076.6341835348 -7.01E+00
    15 Broy./Diag. 0.40E+00   23.6     1.76596876     -1076.2222807878  4.12E-01
    16 Broy./Diag. 0.40E+00   24.3     1.42537701     -1074.5970549923  1.63E+00
    17 Broy./Diag. 0.40E+00   24.9     1.42474270     -1078.2928522984 -3.70E+00
    18 Broy./Diag. 0.40E+00   24.8     1.19894917     -1076.8277632901  1.47E+00
    19 Broy./Diag. 0.40E+00   23.6     1.48685302     -1074.1341649844  2.69E+00
    20 Broy./Diag. 0.40E+00   24.5     1.56019758     -1076.9187398077 -2.78E+00
    21 Broy./Diag. 0.40E+00   25.7     1.40043868     -1076.4229028645  4.96E-01
    22 Broy./Diag. 0.40E+00   25.5     1.07222965     -1077.8182163271 -1.40E+00
    23 Broy./Diag. 0.40E+00   22.0     1.08675635     -1076.3734359449  1.44E+00
    24 Broy./Diag. 0.40E+00   21.6     1.76782906     -1074.4284360199  1.94E+00
    25 Broy./Diag. 0.40E+00   22.8     1.77192727     -1080.4573234118 -6.03E+00
    26 Broy./Diag. 0.40E+00   22.9     1.74871002     -1077.7084030560  2.75E+00
    27 Broy./Diag. 0.40E+00   24.6     1.75855816     -1077.6293035705  7.91E-02
    28 Broy./Diag. 0.40E+00   24.5     1.15956026     -1077.6113895185  1.79E-02
    29 Broy./Diag. 0.40E+00   25.0     1.38244932     -1076.1713902213  1.44E+00
    30 Broy./Diag. 0.40E+00   24.8     1.38953830     -1076.7343777692 -5.63E-01
    31 Broy./Diag. 0.40E+00   24.7     1.12662663     -1076.7013664741  3.30E-02
    32 Broy./Diag. 0.40E+00   25.1     0.75461965     -1074.7437087464  1.96E+00
    33 Broy./Diag. 0.40E+00   22.3     1.76109305     -1074.3944985934  3.49E-01
    34 Broy./Diag. 0.40E+00   23.2     1.36962073     -1079.7106846427 -5.32E+00
    35 Broy./Diag. 0.40E+00   23.4     1.78442998     -1079.5189178172  1.92E-01
    36 Broy./Diag. 0.40E+00   23.5     1.63950708     -1077.7293077384  1.79E+00
    37 Broy./Diag. 0.40E+00   24.8     1.67573389     -1075.9618234062  1.77E+00
    38 Broy./Diag. 0.40E+00   24.6     1.15193004     -1076.0718874604 -1.10E-01
    39 Broy./Diag. 0.40E+00   24.7     1.76504662     -1075.0046868276  1.07E+00
    40 Broy./Diag. 0.40E+00   24.3     1.77698285     -1076.3517965389 -1.35E+00
    41 Broy./Diag. 0.40E+00   24.4     1.14974293     -1077.0840251826 -7.32E-01
    42 Broy./Diag. 0.40E+00   24.7     1.22410031     -1076.7436470529  3.40E-01
    43 Broy./Diag. 0.40E+00   25.0     1.29385484     -1076.7265661767  1.71E-02
    44 Broy./Diag. 0.40E+00   24.5     0.91481685     -1077.1136242366 -3.87E-01
    45 Broy./Diag. 0.40E+00   24.4     1.57197916     -1074.5116453826  2.60E+00
    46 Broy./Diag. 0.40E+00   24.7     1.59345330     -1079.7200664367 -5.21E+00
    47 Broy./Diag. 0.40E+00   24.5     0.95922074     -1075.0116210790  4.71E+00
    48 Broy./Diag. 0.40E+00   24.6     1.77690266     -1076.8165288198 -1.80E+00
    49 Broy./Diag. 0.40E+00   24.3     1.78326841     -1076.7338671376  8.27E-02
    50 Broy./Diag. 0.40E+00   23.9     1.67192294     -1076.7530624426 -1.92E-02
    51 Broy./Diag. 0.40E+00   24.1     1.71777661     -1076.6457986777  1.07E-01
    52 Broy./Diag. 0.40E+00   24.2     1.78235709     -1074.8235178846  1.82E+00
    53 Broy./Diag. 0.40E+00   24.3     1.78641114     -1079.8786476733 -5.06E+00
    54 Broy./Diag. 0.40E+00   24.3     1.39794923     -1077.0115816103  2.87E+00
    55 Broy./Diag. 0.40E+00   22.5     1.40355649     -1077.4686824274 -4.57E-01
    56 Broy./Diag. 0.40E+00   23.3     1.50562452     -1076.6902172842  7.78E-01
    57 Broy./Diag. 0.40E+00   23.0     1.59858181     -1078.3206087896 -1.63E+00
    58 Broy./Diag. 0.40E+00   22.2     1.07905324     -1073.6475912917  4.67E+00
    59 Broy./Diag. 0.40E+00   24.2     1.62483302     -1076.3540350952 -2.71E+00
    60 Broy./Diag. 0.40E+00   24.9     1.63668932     -1076.3277926416  2.62E-02
    61 Broy./Diag. 0.40E+00   24.0     1.77876139     -1074.9416363953  1.39E+00
    62 Broy./Diag. 0.40E+00   23.2     1.78858512     -1079.1873317353 -4.25E+00
    63 Broy./Diag. 0.40E+00   23.9     1.63972930     -1078.8348441131  3.52E-01
    64 Broy./Diag. 0.40E+00   24.6     1.70436776     -1076.2455772868  2.59E+00
    65 Broy./Diag. 0.40E+00   24.8     0.98059453     -1074.3461758689  1.90E+00
    66 Broy./Diag. 0.40E+00   25.1     1.49587411     -1077.4404434653 -3.09E+00
    67 Broy./Diag. 0.40E+00   24.4     1.57161617     -1078.7951497464 -1.35E+00
    68 Broy./Diag. 0.40E+00   24.6     1.38071812     -1074.4564500588  4.34E+00
    69 Broy./Diag. 0.40E+00   24.7     1.35728913     -1077.6398669315 -3.18E+00
    70 Broy./Diag. 0.40E+00   24.6     1.06942264     -1077.2344348746  4.05E-01
    71 Broy./Diag. 0.40E+00   24.5     1.10193928     -1076.3486067283  8.86E-01
    72 Broy./Diag. 0.40E+00   24.8     1.16350873     -1074.5612568179  1.79E+00
    73 Broy./Diag. 0.40E+00   24.9     1.15747285     -1076.8363818387 -2.28E+00
    74 Broy./Diag. 0.40E+00   24.8     1.15482173     -1077.3408978192 -5.05E-01
    75 Broy./Diag. 0.40E+00   24.5     1.22402921     -1077.2812056229  5.97E-02
    76 Broy./Diag. 0.40E+00   24.5     1.27834970     -1075.0066983922  2.27E+00
    77 Broy./Diag. 0.40E+00   24.6     1.77057126     -1077.1349284665 -2.13E+00
    78 Broy./Diag. 0.40E+00   24.7     1.79288138     -1078.9515116500 -1.82E+00
    79 Broy./Diag. 0.40E+00   24.6     1.12637353     -1076.8823503726  2.07E+00
    80 Broy./Diag. 0.40E+00   24.9     1.30243149     -1074.6979307431  2.18E+00
    81 Broy./Diag. 0.40E+00   24.4     1.37232010     -1077.6902148740 -2.99E+00
    82 Broy./Diag. 0.40E+00   24.5     1.13978315     -1074.3041818918  3.39E+00
    83 Broy./Diag. 0.40E+00   25.4     1.15894093     -1077.3409123277 -3.04E+00
    84 Broy./Diag. 0.40E+00   24.4     1.16658783     -1077.5790605941 -2.38E-01
    85 Broy./Diag. 0.40E+00   24.2     1.33543784     -1077.3676331268  2.11E-01
    86 Broy./Diag. 0.40E+00   24.6     1.67103954     -1077.2608183167  1.07E-01
    87 Broy./Diag. 0.40E+00   23.9     1.73093984     -1076.7221048373  5.39E-01
    88 Broy./Diag. 0.40E+00   24.8     1.20534532     -1074.8917821916  1.83E+00
    89 Broy./Diag. 0.40E+00   24.5     1.21126672     -1076.8690024638 -1.98E+00
    90 Broy./Diag. 0.40E+00   24.6     1.55415982     -1076.6776841355  1.91E-01
    91 Broy./Diag. 0.40E+00   24.7     1.57470660     -1078.5276947138 -1.85E+00
    92 Broy./Diag. 0.40E+00   24.9     1.47880328     -1074.1060968474  4.42E+00
    93 Broy./Diag. 0.40E+00   24.5     1.35844133     -1077.2137439028 -3.11E+00
    94 Broy./Diag. 0.40E+00   24.4     1.37118319     -1076.9686636329  2.45E-01
    95 Broy./Diag. 0.40E+00   24.6     1.05981184     -1075.2011376391  1.77E+00
    96 Broy./Diag. 0.40E+00   24.5     1.67739301     -1076.6912598897 -1.49E+00
    97 Broy./Diag. 0.40E+00   24.8     1.69020124     -1076.6882683754  2.99E-03
    98 Broy./Diag. 0.40E+00   25.0     1.66427445     -1079.0240003753 -2.34E+00
    99 Broy./Diag. 0.40E+00   24.2     1.01222209     -1074.9349222119  4.09E+00
   100 Broy./Diag. 0.40E+00   24.5     1.41562471     -1077.4447408148 -2.51E+00
   101 Broy./Diag. 0.40E+00   24.5     1.77285703     -1078.3569798980 -9.12E-01
   102 Broy./Diag. 0.40E+00   23.3     1.79857672     -1079.1127848352 -7.56E-01
   103 Broy./Diag. 0.40E+00   24.3     1.25711147     -1075.7336161313  3.38E+00
   104 Broy./Diag. 0.40E+00   22.9     0.95994495     -1073.9115223156  1.82E+00
   105 Broy./Diag. 0.40E+00   24.1     1.03615470     -1078.2590288477 -4.35E+00
   106 Broy./Diag. 0.40E+00   23.9     1.04575755     -1075.8521087162  2.41E+00
   107 Broy./Diag. 0.40E+00   24.5     1.08866760     -1076.1877643446 -3.36E-01
   108 Broy./Diag. 0.40E+00   25.2     1.59292660     -1076.1846073583  3.16E-03
   109 Broy./Diag. 0.40E+00   23.4     1.59854520     -1076.4605884149 -2.76E-01
   110 Broy./Diag. 0.40E+00   22.9     1.28894055     -1075.0067805185  1.45E+00
   111 Broy./Diag. 0.40E+00   24.1     1.78254522     -1077.9262177935 -2.92E+00
   112 Broy./Diag. 0.40E+00   24.4     1.79599155     -1079.6928203839 -1.77E+00
   113 Broy./Diag. 0.40E+00   23.4     1.13467505     -1076.6550413543  3.04E+00
   114 Broy./Diag. 0.40E+00   24.1     1.33917432     -1074.6451467791  2.01E+00
   115 Broy./Diag. 0.40E+00   24.1     1.59580100     -1079.3672080733 -4.72E+00
   116 Broy./Diag. 0.40E+00   24.6     1.79485771     -1079.2326616467  1.35E-01
   117 Broy./Diag. 0.40E+00   25.1     1.19891120     -1077.5793867785  1.65E+00
   118 Broy./Diag. 0.40E+00   23.3     1.05177964     -1075.6024906016  1.98E+00
   119 Broy./Diag. 0.40E+00   24.1     1.09896692     -1076.0670435494 -4.65E-01
   120 Broy./Diag. 0.40E+00   25.1     1.16600135     -1073.7971293913  2.27E+00
   121 Broy./Diag. 0.40E+00   22.8     1.18386368     -1077.6990539717 -3.90E+00
   122 Broy./Diag. 0.40E+00   24.3     1.64075332     -1075.6184570007  2.08E+00
   123 Broy./Diag. 0.40E+00   24.6     1.67012678     -1076.7075795532 -1.09E+00
   124 Broy./Diag. 0.40E+00   23.2     1.70617407     -1076.7734236147 -6.58E-02
   125 Broy./Diag. 0.40E+00   24.6     1.67017293     -1076.9119916249 -1.39E-01
   126 Broy./Diag. 0.40E+00   23.3     1.80115525     -1079.3769511786 -2.46E+00
   127 Broy./Diag. 0.40E+00   23.3     1.59845674     -1077.6634367517  1.71E+00
   128 Broy./Diag. 0.40E+00   24.5     1.22335364     -1077.0051502222  6.58E-01
   129 Broy./Diag. 0.40E+00   24.7     1.77815873     -1073.8953756026  3.11E+00
   130 Broy./Diag. 0.40E+00   23.8     1.79404247     -1079.3681333142 -5.47E+00
   131 Broy./Diag. 0.40E+00   23.3     1.21954852     -1076.5399411393  2.83E+00
   132 Broy./Diag. 0.40E+00   24.2     1.06249424     -1074.5530279175  1.99E+00
   133 Broy./Diag. 0.40E+00   23.8     1.09303798     -1076.8345320537 -2.28E+00
   134 Broy./Diag. 0.40E+00   24.7     1.16675668     -1074.7617713244  2.07E+00
   135 Broy./Diag. 0.40E+00   24.7     1.12456058     -1076.9768137382 -2.22E+00
   136 Broy./Diag. 0.40E+00   24.7     0.99089332     -1075.3724519525  1.60E+00
   137 Broy./Diag. 0.40E+00   24.9     1.03451626     -1076.0058421577 -6.33E-01
   138 Broy./Diag. 0.40E+00   24.5     1.06101493     -1076.0453670868 -3.95E-02
   139 Broy./Diag. 0.40E+00   25.5     1.79028971     -1074.4349928699  1.61E+00
   140 Broy./Diag. 0.40E+00   24.5     0.46798013     -1079.7069390551 -5.27E+00
   141 Broy./Diag. 0.40E+00   23.6     1.79573226     -1079.6431581924  6.38E-02
   142 Broy./Diag. 0.40E+00   23.8     1.69735837     -1078.0568805240  1.59E+00
   143 Broy./Diag. 0.40E+00   24.6     1.78818271     -1075.4044608086  2.65E+00
   144 Broy./Diag. 0.40E+00   24.3     1.79415052     -1079.2489566658 -3.84E+00
   145 Broy./Diag. 0.40E+00   24.4     1.39861712     -1077.0582224652  2.19E+00
   146 Broy./Diag. 0.40E+00   24.2     1.05014525     -1074.0867491863  2.97E+00
   147 Broy./Diag. 0.40E+00   25.2     1.08178749     -1077.2518333547 -3.17E+00
   148 Broy./Diag. 0.40E+00   24.5     1.68338298     -1075.2318633177  2.02E+00
   149 Broy./Diag. 0.40E+00   24.9     1.69351329     -1076.8388525947 -1.61E+00
   150 Broy./Diag. 0.40E+00   25.1     1.20239963     -1076.6450952058  1.94E-01
   151 Broy./Diag. 0.40E+00   24.9     0.18717815     -1074.4667296392  2.18E+00
   152 Broy./Diag. 0.40E+00   24.7     1.13320288     -1076.0985393804 -1.63E+00
   153 Broy./Diag. 0.40E+00   24.9     1.57373339     -1076.9957773554 -8.97E-01
   154 Broy./Diag. 0.40E+00   24.7     1.78336139     -1079.3559755407 -2.36E+00
   155 Broy./Diag. 0.40E+00   24.5     1.59866441     -1077.9040367861  1.45E+00
   156 Broy./Diag. 0.40E+00   24.7     1.14359792     -1078.7902617415 -8.86E-01
   157 Broy./Diag. 0.40E+00   24.4     1.58888174     -1076.7703559071  2.02E+00
   158 Broy./Diag. 0.40E+00   24.8     1.10222387     -1076.5662723514  2.04E-01
   159 Broy./Diag. 0.40E+00   25.2     1.06510269     -1076.3377036979  2.29E-01
   160 Broy./Diag. 0.40E+00   24.1     0.97646157     -1074.1664401737  2.17E+00
   161 Broy./Diag. 0.40E+00   24.5     1.14534294     -1079.0908165412 -4.92E+00
   162 Broy./Diag. 0.40E+00   24.3     1.15559978     -1078.3929541879  6.98E-01
   163 Broy./Diag. 0.40E+00   23.6     1.11198884     -1076.5920856898  1.80E+00
   164 Broy./Diag. 0.40E+00   24.2     1.67249205     -1074.7787798937  1.81E+00
   165 Broy./Diag. 0.40E+00   24.5     1.66843683     -1076.8880624175 -2.11E+00
   166 Broy./Diag. 0.40E+00   24.5     1.38541902     -1077.1971241663 -3.09E-01
   167 Broy./Diag. 0.40E+00   24.8     1.45225722     -1077.0236275435  1.73E-01
   168 Broy./Diag. 0.40E+00   24.7     1.46531306     -1077.5337925834 -5.10E-01
   169 Broy./Diag. 0.40E+00   24.4     1.27766297     -1076.2335542615  1.30E+00
   170 Broy./Diag. 0.40E+00   24.4     1.28492301     -1076.1374295443  9.61E-02
   171 Broy./Diag. 0.40E+00   25.1     0.96558353     -1075.3855997334  7.52E-01
   172 Broy./Diag. 0.40E+00   25.2     1.06225678     -1076.5224138553 -1.14E+00
   173 Broy./Diag. 0.40E+00   24.8     1.06587365     -1076.6121848763 -8.98E-02
   174 Broy./Diag. 0.40E+00   24.2     0.90993731     -1077.0214661146 -4.09E-01
   175 Broy./Diag. 0.40E+00   25.0     1.64079962     -1075.6410373753  1.38E+00
   176 Broy./Diag. 0.40E+00   23.3     1.66006761     -1077.1180044218 -1.48E+00
   177 Broy./Diag. 0.40E+00   23.4     1.77828017     -1075.1094045341  2.01E+00
   178 Broy./Diag. 0.40E+00   24.3     1.78563063     -1079.6678519738 -4.56E+00
   179 Broy./Diag. 0.40E+00   24.7     1.46407213     -1077.2460095802  2.42E+00
   180 Broy./Diag. 0.40E+00   24.5     1.24398908     -1076.7956700847  4.50E-01
   181 Broy./Diag. 0.40E+00   23.8     1.11755577     -1074.2147230110  2.58E+00
   182 Broy./Diag. 0.40E+00   24.4     1.02684148     -1079.4424634685 -5.23E+00
   183 Broy./Diag. 0.40E+00   23.6     1.78399761     -1079.2743174477  1.68E-01
   184 Broy./Diag. 0.40E+00   23.3     1.11171450     -1077.1713729409  2.10E+00
   185 Broy./Diag. 0.40E+00   23.9     1.09005866     -1075.1872918395  1.98E+00
   186 Broy./Diag. 0.40E+00   24.5     1.67105752     -1075.9426106544 -7.55E-01
   187 Broy./Diag. 0.40E+00   25.7     1.70719262     -1076.0153624700 -7.28E-02
   188 Broy./Diag. 0.40E+00   23.8     1.54962511     -1074.1732540117  1.84E+00
   189 Broy./Diag. 0.40E+00   25.0     1.55984616     -1079.2876642198 -5.11E+00
   190 Broy./Diag. 0.40E+00   24.4     1.56143465     -1077.4379983915  1.85E+00
   191 Broy./Diag. 0.40E+00   22.8     1.04169454     -1077.3899808472  4.80E-02
   192 Broy./Diag. 0.40E+00   22.9     1.06714040     -1076.3122538550  1.08E+00
   193 Broy./Diag. 0.40E+00   24.4     1.18357503     -1074.4561071869  1.86E+00
   194 Broy./Diag. 0.40E+00   24.2     1.15711566     -1076.8924381285 -2.44E+00
   195 Broy./Diag. 0.40E+00   24.7     1.77528619     -1075.3261548651  1.57E+00
   196 Broy./Diag. 0.40E+00   25.6     1.79357839     -1079.0734566897 -3.75E+00
   197 Broy./Diag. 0.40E+00   23.6     1.72517168     -1077.4310146177  1.64E+00
   198 Broy./Diag. 0.40E+00   24.9     0.32015787     -1074.8822210429  2.55E+00
   199 Broy./Diag. 0.40E+00   25.1     1.04637643     -1075.0108850800 -1.29E-01
   200 Broy./Diag. 0.40E+00   25.0     1.05606121     -1076.8439873397 -1.83E+00
   201 Broy./Diag. 0.40E+00   24.8     1.16809340     -1074.9370598143  1.91E+00
   202 Broy./Diag. 0.40E+00   24.8     1.64027513     -1077.3870902325 -2.45E+00
   203 Broy./Diag. 0.40E+00   24.7     1.67672029     -1077.8372685649 -4.50E-01
   204 Broy./Diag. 0.40E+00   24.4     1.54361752     -1078.3674729434 -5.30E-01
   205 Broy./Diag. 0.40E+00   24.4     1.79360684     -1074.3635031349  4.00E+00
   206 Broy./Diag. 0.40E+00   24.6     0.46903208     -1079.8685125683 -5.51E+00
   207 Broy./Diag. 0.40E+00   22.6     1.79161682     -1079.7386853490  1.30E-01
   208 Broy./Diag. 0.40E+00   24.1     1.27533618     -1075.4747436650  4.26E+00
   209 Broy./Diag. 0.40E+00   23.8     1.60145617     -1076.1948828460 -7.20E-01
   210 Broy./Diag. 0.40E+00   24.0     1.69097034     -1078.7683162718 -2.57E+00
   211 Broy./Diag. 0.40E+00   24.5     1.68911063     -1076.3685515512  2.40E+00
   212 Broy./Diag. 0.40E+00   24.6     1.70459057     -1076.4029468138 -3.44E-02
   213 Broy./Diag. 0.40E+00   25.1     1.17383726     -1077.1476741048 -7.45E-01
   214 Broy./Diag. 0.40E+00   23.6     1.25915435     -1076.8719012413  2.76E-01
   215 Broy./Diag. 0.40E+00   25.3     1.45866811     -1077.2366935079 -3.65E-01
   216 Broy./Diag. 0.40E+00   24.6     1.46027830     -1077.5837073885 -3.47E-01
   217 Broy./Diag. 0.40E+00   24.6     1.11914305     -1074.2233378610  3.36E+00
   218 Broy./Diag. 0.40E+00   23.1     1.29789076     -1072.3397009645  1.88E+00
   219 Broy./Diag. 0.40E+00   24.0     1.67231009     -1077.5623151590 -5.22E+00
   220 Broy./Diag. 0.40E+00   23.7     1.69065521     -1077.2814148936  2.81E-01
   221 Broy./Diag. 0.40E+00   24.3     1.57427066     -1074.4111229338  2.87E+00
   222 Broy./Diag. 0.40E+00   24.1     1.17585034     -1076.9513511993 -2.54E+00
   223 Broy./Diag. 0.40E+00   24.6     1.22451224     -1077.2450813714 -2.94E-01
   224 Broy./Diag. 0.40E+00   24.8     1.13107010     -1077.2524999325 -7.42E-03
   225 Broy./Diag. 0.40E+00   24.5     1.58975400     -1076.9994782037  2.53E-01
   226 Broy./Diag. 0.40E+00   24.5     1.60072818     -1078.2095712546 -1.21E+00
   227 Broy./Diag. 0.40E+00   23.5     1.77002685     -1074.0993720071  4.11E+00
   228 Broy./Diag. 0.40E+00   24.0     1.78937702     -1078.8401367144 -4.74E+00
   229 Broy./Diag. 0.40E+00   24.6     1.08666420     -1077.0766639867  1.76E+00
   230 Broy./Diag. 0.40E+00   24.8     1.07111403     -1074.6617934650  2.41E+00
   231 Broy./Diag. 0.40E+00   24.9     1.63866563     -1077.2917845838 -2.63E+00
   232 Broy./Diag. 0.40E+00   24.5     1.67301061     -1077.1020412477  1.90E-01
   233 Broy./Diag. 0.40E+00   24.6     1.29556373     -1075.0374392128  2.06E+00
   234 Broy./Diag. 0.40E+00   25.0     1.30990600     -1076.6644901450 -1.63E+00
   235 Broy./Diag. 0.40E+00   24.9     1.36513760     -1077.0415469353 -3.77E-01
   236 Broy./Diag. 0.40E+00   24.2     1.74779614     -1077.6419718591 -6.00E-01
   237 Broy./Diag. 0.40E+00   23.6     1.77042719     -1076.8357838625  8.06E-01
   238 Broy./Diag. 0.40E+00   24.9     1.42156930     -1074.2561617341  2.58E+00
   239 Broy./Diag. 0.40E+00   22.8     1.39626307     -1078.1167325918 -3.86E+00
   240 Broy./Diag. 0.40E+00   23.8     1.09194535     -1076.8175296496  1.30E+00
   241 Broy./Diag. 0.40E+00   24.3     1.28209562     -1074.7655436531  2.05E+00
   242 Broy./Diag. 0.40E+00   24.9     1.28100096     -1076.8958952345 -2.13E+00
   243 Broy./Diag. 0.40E+00   25.1     1.01826200     -1076.8021005724  9.38E-02
   244 Broy./Diag. 0.40E+00   24.7     1.44633264     -1076.7630653478  3.90E-02
   245 Broy./Diag. 0.40E+00   25.6     1.56343173     -1076.6899365218  7.31E-02
   246 Broy./Diag. 0.40E+00   24.1     1.71442098     -1079.1237520408 -2.43E+00
   247 Broy./Diag. 0.40E+00   23.2     1.34827995     -1077.6284327554  1.50E+00
   248 Broy./Diag. 0.40E+00   22.6     1.03202166     -1075.8781826724  1.75E+00
   249 Broy./Diag. 0.40E+00   24.8     1.78026911     -1073.9927823310  1.89E+00
   250 Broy./Diag. 0.40E+00   23.7     1.78837134     -1079.8992541590 -5.91E+00
   251 Broy./Diag. 0.40E+00   24.1     1.11514864     -1077.5084410157  2.39E+00
   252 Broy./Diag. 0.40E+00   24.9     1.05230378     -1075.1576779303  2.35E+00
   253 Broy./Diag. 0.40E+00   23.7     1.19320426     -1076.6846811295 -1.53E+00
   254 Broy./Diag. 0.40E+00   23.7     1.28713804     -1076.4759198587  2.09E-01
   255 Broy./Diag. 0.40E+00   23.9     1.28156954     -1076.6710894739 -1.95E-01
   256 Broy./Diag. 0.40E+00   24.4     1.58375748     -1076.0882908232  5.83E-01
   257 Broy./Diag. 0.40E+00   24.8     1.67075585     -1078.6068910249 -2.52E+00
   258 Broy./Diag. 0.40E+00   24.8     1.71313094     -1076.6704359072  1.94E+00
   259 Broy./Diag. 0.40E+00   24.7     0.79006453     -1074.3286808254  2.34E+00
   260 Broy./Diag. 0.40E+00   25.1     1.14947699     -1077.3738958727 -3.05E+00
   261 Broy./Diag. 0.40E+00   24.5     1.76443288     -1077.4255134214 -5.16E-02
   262 Broy./Diag. 0.40E+00   23.0     1.78074463     -1077.2566940028  1.69E-01
   263 Broy./Diag. 0.40E+00   22.3     1.68483376     -1076.9693324553  2.87E-01
   264 Broy./Diag. 0.40E+00   24.2     1.78941521     -1074.4032426450  2.57E+00
   265 Broy./Diag. 0.40E+00   24.8     1.79003979     -1079.4374658236 -5.03E+00
   266 Broy./Diag. 0.40E+00   24.7     1.54148344     -1077.0089510736  2.43E+00
   267 Broy./Diag. 0.40E+00   24.7     1.69014121     -1078.7189410316 -1.71E+00
   268 Broy./Diag. 0.40E+00   24.7     1.75535589     -1075.9458876789  2.77E+00
   269 Broy./Diag. 0.40E+00   25.8     1.33249558     -1073.8496360845  2.10E+00
   270 Broy./Diag. 0.40E+00   24.5     1.33987707     -1077.0894584327 -3.24E+00
   271 Broy./Diag. 0.40E+00   23.9     1.77477590     -1077.2189224400 -1.29E-01
   272 Broy./Diag. 0.40E+00   23.9     1.78727995     -1078.9720040721 -1.75E+00
   273 Broy./Diag. 0.40E+00   22.9     1.04744748     -1075.4285977383  3.54E+00
   274 Broy./Diag. 0.40E+00   22.0     1.07872756     -1076.0437777561 -6.15E-01
   275 Broy./Diag. 0.40E+00   25.1     1.19006943     -1074.1301966048  1.91E+00
   276 Broy./Diag. 0.40E+00   24.9     1.20327100     -1078.0066952783 -3.88E+00
   277 Broy./Diag. 0.40E+00   24.5     1.05334318     -1075.6700548730  2.34E+00
   278 Broy./Diag. 0.40E+00   22.5     1.73828982     -1076.7869350307 -1.12E+00
   279 Broy./Diag. 0.40E+00   22.9     1.70673120     -1077.3594133780 -5.72E-01
   280 Broy./Diag. 0.40E+00   24.1     1.32788554     -1077.4316601868 -7.22E-02
   281 Broy./Diag. 0.40E+00   24.4     1.15008612     -1077.0822320956  3.49E-01
   282 Broy./Diag. 0.40E+00   26.0     1.22947636     -1076.6840872122  3.98E-01
   283 Broy./Diag. 0.40E+00   25.0     1.07844289     -1075.9505008727  7.34E-01
   284 Broy./Diag. 0.40E+00   21.6     1.16109430     -1075.9149975631  3.55E-02
   285 Broy./Diag. 0.40E+00   22.4     1.47648328     -1073.6951851845  2.22E+00
   286 Broy./Diag. 0.40E+00   22.6     1.77713661     -1079.7678556857 -6.07E+00
   287 Broy./Diag. 0.40E+00   24.7     1.79936725     -1079.6760667629  9.18E-02
   288 Broy./Diag. 0.40E+00   24.5     1.19152752     -1074.6164760477  5.06E+00
   289 Broy./Diag. 0.40E+00   23.9     1.13796593     -1076.4237193724 -1.81E+00
   290 Broy./Diag. 0.40E+00   24.0     1.64216546     -1075.0242456072  1.40E+00
   291 Broy./Diag. 0.40E+00   23.7     1.65418560     -1077.0287337604 -2.00E+00
   292 Broy./Diag. 0.40E+00   22.8     1.00599828     -1075.0705783838  1.96E+00
   293 Broy./Diag. 0.40E+00   22.1     1.03375957     -1076.6180181866 -1.55E+00
   294 Broy./Diag. 0.40E+00   23.0     1.03799990     -1076.6621178617 -4.41E-02
   295 Broy./Diag. 0.40E+00   22.6     1.29156991     -1076.6560126923  6.11E-03
   296 Broy./Diag. 0.40E+00   23.3     1.72427151     -1076.4312308902  2.25E-01
   297 Broy./Diag. 0.40E+00   23.4     1.80233181     -1079.4475093188 -3.02E+00
   298 Broy./Diag. 0.40E+00   24.0     1.66118105     -1076.7482651811  2.70E+00
   299 Broy./Diag. 0.40E+00   24.9     1.72264613     -1077.7843920694 -1.04E+00
   300 Broy./Diag. 0.40E+00   23.6     1.74071849     -1075.4723510463  2.31E+00

  Leaving inner SCF loop after reaching   300 steps.


  Electronic density on regular grids:       -512.0004735989       -0.0004735989
  Core density on regular grids:              511.9999876487       -0.0000123513
  Total charge density on r-space grids:       -0.0004859501
  Total charge density g-space grids:          -0.0004859501

  Overlap energy of the core charge distribution:               0.00000000000000
  Self energy of the core charge distribution:              -2838.21791979120962
  Core Hamiltonian energy:                                    760.76030316095375
  Hartree energy:                                            1240.67773346873719
  Exchange-correlation energy:                               -238.69246788481883

  Total energy:                                             -1075.47235104633751

 *** WARNING in qs_scf.F:542 :: SCF run NOT converged ***


 ENERGY| Total FORCE_EVAL ( QS ) energy (a.u.):            -1073.873580043716629


 ATOMIC FORCES in [a.u.]

 # Atom   Kind   Element          X              Y              Z
      1      1      O           0.04549285     0.05752488    -0.00539564
      2      2      H           0.00193266    -0.07432353     0.02371052
      3      2      H          -0.02651872    -0.02554096    -0.04148158
      4      1      O          -0.04265357    -0.05062558     0.16643233
      5      2      H          -0.02785873    -0.06791566    -0.08712336
      6      2      H           0.08324103     0.01381904     0.02248556
      7      1      O          -0.03463221     0.02775004    -0.00918678
      8      2      H          -0.03245933     0.01834406     0.06142638
      9      2      H           0.07172648    -0.04697569     0.00829395
     10      1      O           0.01121440    -0.02880865    -0.02703884
     11      2      H           0.01772039     0.02380976     0.01496444
     12      2      H          -0.02045882     0.04332081    -0.09906767
     13      1      O          -0.10785766    -0.09151046    -0.08964861
     14      2      H           0.03504542     0.02155162     0.07267890
     15      2      H           0.06172088    -0.04076539    -0.05666611
     16      1      O           0.06707920     0.03200377    -0.00610912
     17      2      H          -0.05152576     0.06814902     0.04053790
     18      2      H          -0.01002274    -0.08885871    -0.04046511
     19      1      O          -0.06458827     0.10581949    -0.04596528
     20      2      H          -0.00379802    -0.05569017    -0.00422570
     21      2      H           0.08226925    -0.00621263     0.07467095
     22      1      O          -0.05212923    -0.10895118     0.04925558
     23      2      H          -0.01338892     0.06809614    -0.06814216
     24      2      H           0.02910785    -0.00079628     0.09861590
     25      1      O          -0.08032232     0.01936475     0.02512528
     26      2      H           0.09130770     0.00613859    -0.00264285
     27      2      H           0.01631124     0.03957058     0.11096382
     28      1      O          -0.07444189     0.09349075    -0.14729559
     29      2      H           0.00396844    -0.04164621     0.08413718
     30      2      H           0.05865613     0.04935318    -0.04311672
     31      1      O          -0.08070102    -0.05241170     0.03662197
     32      2      H          -0.00075896     0.08261108     0.06947113
     33      2      H           0.07288185    -0.04309344     0.00982783
     34      1      O           0.04962966    -0.00572903     0.14340543
     35      2      H          -0.06678487     0.05163360    -0.00389366
     36      2      H          -0.00566825    -0.08869680     0.01545286
     37      1      O          -0.01952953     0.11719946     0.03426604
     38      2      H          -0.02407549    -0.03796997    -0.07378095
     39      2      H           0.05781139     0.00335255     0.01734658
     40      1      O           0.01214226    -0.07090853    -0.06781852
     41      2      H          -0.05390015     0.04458756    -0.07982555
     42      2      H           0.05838547     0.05321322     0.08013978
     43      1      O           0.05425442     0.11553387     0.05207438
     44      2      H          -0.02537055     0.00294725     0.07104718
     45      2      H          -0.05909963    -0.03558521    -0.04041149
     46      1      O           0.01822574     0.02490131    -0.14893841
     47      2      H          -0.03334441    -0.02732693     0.07585501
     48      2      H           0.01148244     0.06910293     0.06052490
     49      1      O           0.04480951     0.06718202     0.03178721
     50      2      H          -0.02666924    -0.04991356    -0.00804754
     51      2      H           0.00927076    -0.02731120     0.10069788
     52      1      O          -0.03549977    -0.05173324     0.04054969
     53      2      H          -0.01034432     0.03119958     0.06453178
     54      2      H           0.02947967     0.08034682    -0.02470922
     55      1      O          -0.07133384     0.06262741     0.12624510
     56      2      H           0.02974482     0.03167159    -0.00870505
     57      2      H           0.04892838    -0.06906916     0.02316624
     58      1      O          -0.04662762     0.01430989    -0.12847304
     59      2      H          -0.01341436    -0.10063927     0.00900931
     60      2      H           0.01095632    -0.06723052     0.03609072
     61      1      O           0.08745393     0.04226655    -0.01732003
     62      2      H          -0.08085137    -0.05011629     0.01766038
     63      2      H           0.01341973     0.07167504    -0.07783611
     64      1      O          -0.05506779    -0.03223146    -0.01099686
     65      2      H           0.04324989     0.03943729     0.00239245
     66      2      H          -0.00917905    -0.01493321    -0.07693243
     67      1      O           0.05307949     0.05978912     0.14048100
     68      2      H          -0.08336120     0.06156919    -0.00350162
     69      2      H           0.01966417     0.00844052    -0.07210276
     70      1      O          -0.05141308     0.01708529     0.09406290
     71      2      H           0.08307909     0.02204967    -0.02656398
     72      2      H          -0.03179946    -0.08878261     0.03411357
     73      1      O          -0.04308662     0.13096179    -0.07555883
     74      2      H           0.01350468    -0.05739089    -0.00754474
     75      2      H           0.01886964     0.02858425     0.12139051
     76      1      O          -0.04998734     0.01327884     0.03334128
     77      2      H           0.00306997    -0.01801056    -0.03916348
     78      2      H          -0.00367980     0.03370817    -0.00687412
     79      1      O           0.00644885     0.08393562    -0.16275946
     80      2      H          -0.06388251    -0.00868891     0.02763123
     81      2      H           0.05542583    -0.04215212     0.00258605
     82      1      O           0.09803538     0.00274047    -0.10117706
     83      2      H          -0.06709424    -0.07352662     0.03127295
     84      2      H          -0.01990866     0.07807603    -0.03902577
     85      1      O          -0.07077099    -0.08879703    -0.08357673
     86      2      H          -0.02186051     0.04546055    -0.04800623
     87      2      H           0.07625294     0.01976919     0.08005664
     88      1      O          -0.04146320     0.12461639    -0.10021321
     89      2      H          -0.00592826    -0.07220434     0.03503857
     90      2      H           0.07457662     0.01635347    -0.02904524
     91      1      O          -0.00921455    -0.12484441     0.02126414
     92      2      H           0.06094632    -0.01778614     0.06156247
     93      2      H          -0.06546005     0.07726297     0.03656191
     94      1      O           0.00228038    -0.13732930    -0.13155217
     95      2      H           0.08112372     0.03039878     0.04300034
     96      2      H          -0.06744442     0.04114565     0.01231620
     97      1      O          -0.03631030     0.06240883    -0.05716582
     98      2      H          -0.00054364     0.06766198     0.10432348
     99      2      H           0.06412471    -0.04694265    -0.02224338
    100      1      O          -0.04999688     0.12481026     0.00115429
    101      2      H           0.06754977    -0.07204628    -0.05539039
    102      2      H           0.00296069     0.01368175     0.11433113
    103      1      O           0.00635611    -0.13388625    -0.02487257
    104      2      H          -0.07790533     0.02171749     0.02740936
    105      2      H           0.02884207     0.03845532     0.06080359
    106      1      O           0.03784400    -0.04541949    -0.04104938
    107      2      H          -0.04673746     0.09299756    -0.02099000
    108      2      H          -0.04012927    -0.08448551    -0.00783439
    109      1      O          -0.04335020     0.00055945     0.10689335
    110      2      H           0.02234578     0.09533231    -0.00781775
    111      2      H           0.02160506    -0.04324258    -0.02498860
    112      1      O           0.03444830    -0.08385069    -0.10019056
    113      2      H          -0.00738422    -0.00871099    -0.04916785
    114      2      H           0.02057268    -0.01941193     0.02493796
    115      1      O          -0.05351207    -0.04080482    -0.07226763
    116      2      H           0.03488162     0.06761777    -0.05546009
    117      2      H           0.03459874    -0.00263262     0.03599763
    118      1      O           0.02657606     0.04120808    -0.16227880
    119      2      H           0.03906422     0.08281218     0.00898588
    120      2      H          -0.05510734    -0.00848036     0.02739916
    121      1      O          -0.03255053    -0.01013432    -0.07007309
    122      2      H          -0.00771312     0.09045838    -0.03772550
    123      2      H           0.08771682     0.01377403    -0.07598872
    124      1      O          -0.06766375    -0.10544619     0.00951084
    125      2      H          -0.01705370    -0.02309591     0.04123376
    126      2      H           0.06484107    -0.00482208     0.03860511
    127      1      O          -0.03966601     0.10957561     0.11643115
    128      2      H           0.07500770    -0.08002245    -0.00707955
    129      2      H          -0.04320567    -0.00132090    -0.04224922
    130      1      O           0.01839842    -0.06259554     0.13432281
    131      2      H          -0.05687468    -0.01608886    -0.04374022
    132      2      H           0.03446855     0.09053130     0.03899319
    133      1      O           0.09369876    -0.16690008     0.01972832
    134      2      H           0.03698020     0.16072016     0.05151119
    135      2      H          -0.15165085    -0.02681707    -0.10460849
    136      1      O           0.10855326     0.09313760    -0.12449574
    137      2      H          -0.07440805    -0.03243923    -0.00934803
    138      2      H          -0.00690837     0.02033243     0.09351702
    139      1      O           0.04423152    -0.07740953    -0.00724579
    140      2      H           0.04834070     0.08556491    -0.01340016
    141      2      H          -0.07417829    -0.00227029     0.04767430
    142      1      O          -0.04147503    -0.02270632     0.14536983
    143      2      H           0.06212726    -0.03209737     0.00492380
    144      2      H          -0.00229848     0.05173717    -0.02059387
    145      1      O          -0.00764430     0.07259334     0.15521564
    146      2      H          -0.06404120     0.05896391    -0.07245928
    147      2      H           0.04364837    -0.05003732    -0.03798739
    148      1      O           0.03210446     0.06329155     0.00091776
    149      2      H          -0.03054224     0.01632412     0.00463089
    150      2      H           0.03861196    -0.07045378    -0.06229579
    151      1      O           0.04709813     0.06971959    -0.01741612
    152      2      H          -0.02715134    -0.05249504     0.03433359
    153      2      H          -0.02936410     0.03198707    -0.08373131
    154      1      O           0.03748432     0.04327020     0.04977073
    155      2      H          -0.05680869     0.04502970    -0.00294791
    156      2      H          -0.01493346    -0.00989185     0.03528668
    157      1      O           0.01647751     0.09001326    -0.09296804
    158      2      H           0.07822268    -0.04929358    -0.05138092
    159      2      H          -0.07081668    -0.03024434     0.00720423
    160      1      O          -0.05073215    -0.00790807     0.09180285
    161      2      H           0.05959865     0.05242365    -0.01706692
    162      2      H          -0.02376695    -0.07460486    -0.07343082
    163      1      O           0.06312726     0.01172542     0.11110591
    164      2      H           0.01058417     0.02486285    -0.08679486
    165      2      H          -0.07662598    -0.03426605     0.06323000
    166      1      O           0.06760248     0.03648848    -0.14360351
    167      2      H          -0.01188741     0.04177308     0.02473607
    168      2      H          -0.05272515    -0.07391725    -0.00874428
    169      1      O          -0.07638908     0.10653945     0.08885172
    170      2      H           0.10662166     0.01628985     0.02982704
    171      2      H          -0.02892970    -0.06245498    -0.03144391
    172      1      O           0.04506974     0.00015812    -0.07964009
    173      2      H          -0.02960987     0.04058300     0.02781673
    174      2      H          -0.06005274     0.03480338    -0.08583124
    175      1      O           0.10537068     0.05325963    -0.12412747
    176      2      H          -0.04386371     0.04971080     0.02888736
    177      2      H          -0.02584961    -0.05856718    -0.04235801
    178      1      O          -0.00857045    -0.02929709    -0.01516068
    179      2      H           0.02222990    -0.09470070     0.04380102
    180      2      H           0.02673805     0.04872624     0.02419168
    181      1      O          -0.09888394     0.06365603     0.03671465
    182      2      H           0.02060911    -0.08987360    -0.00744783
    183      2      H           0.04191562     0.04974450    -0.00200955
    184      1      O           0.01424489    -0.06037981     0.12056212
    185      2      H           0.05586834    -0.03545234    -0.06317504
    186      2      H          -0.05580980     0.08473747    -0.06857433
    187      1      O          -0.01375931    -0.03000513    -0.04209259
    188      2      H           0.00134433    -0.00235697    -0.05564858
    189      2      H           0.04689758     0.05544853    -0.00918314
    190      1      O          -0.02286465    -0.07628627    -0.17012708
    191      2      H          -0.02836053     0.02826230     0.02288725
    192      2      H           0.07081751    -0.02420762     0.00015411
 SUM OF ATOMIC FORCES           0.04986113     0.75080383    -0.27171012     0.80001182

 -------------------------------------------------------------------------------
 -                                                                             -
 -                                DBCSR STATISTICS                             -
 -                                                                             -
 -------------------------------------------------------------------------------
 COUNTER                                    TOTAL       BLAS       SMM       ACC
 flops     5 x     5 x   256           3679424000       0.0%    100.0%      0.0%
 flops    13 x     5 x   256           4317447680       0.0%    100.0%      0.0%
 flops     5 x    13 x   256           4327464960       0.0%    100.0%      0.0%
 flops    13 x    13 x   256           6224737792       0.0%    100.0%      0.0%
 flops inhomo. stacks                           0       0.0%      0.0%      0.0%
 flops total                        18.549074E+09       0.0%    100.0%      0.0%
 flops max/rank                     18.549074E+09       0.0%    100.0%      0.0%
 matmuls inhomo. stacks                         0       0.0%      0.0%      0.0%
 matmuls total                             619157       0.0%    100.0%      0.0%
 number of processed stacks                 42140       0.0%    100.0%      0.0%
 average stack size                                     0.0      14.7       0.0
 marketing flops                   333.927416E+09
 -------------------------------------------------------------------------------
 # multiplications                            301
 max memory usage/rank              30.559908E+09
 # max total images/rank                        1
 # max 3D layers                                1
 # MPI messages exchanged                       0
 MPI messages size (bytes):
  total size                         0.000000E+00
  min size                           0.000000E+00
  max size                           0.000000E+00
  average size                       0.000000E+00
 MPI breakdown and total messages size (bytes):
             size <=      128                   0                        0
       128 < size <=     8192                   0                        0
      8192 < size <=    32768                   0                        0
     32768 < size <=   131072                   0                        0
    131072 < size <=  4194304                   0                        0
   4194304 < size <= 16777216                   0                        0
  16777216 < size                               0                        0
 -------------------------------------------------------------------------------

 MEMORY| Estimated peak process memory [MiB]                               29148

 -------------------------------------------------------------------------------
 -                                                                             -
 -                           R E F E R E N C E S                               -
 -                                                                             -
 -------------------------------------------------------------------------------
 
 CP2K version 7.1, the CP2K developers group (2019).
 CP2K is freely available from https://www.cp2k.org/ .

 Schuett, Ole; Messmer, Peter; Hutter, Juerg; VandeVondele, Joost. 
 Electronic Structure Calculations on Graphics Processing Units, John
 Wiley & Sons, Ltd, 173-190 (2016). 
 GPU-Accelerated Sparse Matrix-Matrix Multiplication for
 Linear Scaling Density Functional Theory.
 https://dx.doi.org/10.1002/9781118670712.ch8

 Borstnik, U; VandeVondele, J; Weber, V; Hutter, J. 
 PARALLEL COMPUTING, 40 (5-6), 47-58 (2014). 
 Sparse matrix multiplication: The distributed block-compressed sparse
 row library.
 https://dx.doi.org/10.1016/j.parco.2014.03.012

 Hutter, J; Iannuzzi, M; Schiffmann, F; VandeVondele, J. 
 WIREs Comput Mol Sci., 4 (1), 15-25 (2014). 
 CP2K: atomistic simulations of condensed matter systems.
 https://dx.doi.org/10.1002/wcms.1159

 Krack, M. 
 THEORETICAL CHEMISTRY ACCOUNTS, 114 (1-3), 145-152 (2005). 
 Pseudopotentials for H to Kr optimized for gradient-corrected
 exchange-correlation functionals.
 https://dx.doi.org/10.1007/s00214-005-0655-y

 VandeVondele, J; Krack, M; Mohamed, F; Parrinello, M; Chassaing, T;
 Hutter, J. COMPUTER PHYSICS COMMUNICATIONS, 167 (2), 103-128 (2005). 
 QUICKSTEP: Fast and accurate density functional calculations using a
 mixed Gaussian and plane waves approach.
 https://dx.doi.org/10.1016/j.cpc.2004.12.014

 Frigo, M; Johnson, SG. 
 PROCEEDINGS OF THE IEEE, 93 (2), 216-231 (2005). 
 The design and implementation of FFTW3.
 https://dx.doi.org/10.1109/JPROC.2004.840301

 Hartwigsen, C; Goedecker, S; Hutter, J. 
 PHYSICAL REVIEW B, 58 (7), 3641-3662 (1998). 
 Relativistic separable dual-space Gaussian pseudopotentials from H to Rn.
 https://dx.doi.org/10.1103/PhysRevB.58.3641

 Lippert, G; Hutter, J; Parrinello, M. 
 MOLECULAR PHYSICS, 92 (3), 477-487 (1997). 
 A hybrid Gaussian and plane wave density functional scheme.
 https://dx.doi.org/10.1080/002689797170220

 Goedecker, S; Teter, M; Hutter, J. 
 PHYSICAL REVIEW B, 54 (3), 1703-1710 (1996). 
 Separable dual-space Gaussian pseudopotentials.
 https://dx.doi.org/10.1103/PhysRevB.54.1703


 -------------------------------------------------------------------------------
 -                                                                             -
 -                                T I M I N G                                  -
 -                                                                             -
 -------------------------------------------------------------------------------
 SUBROUTINE                       CALLS  ASD         SELF TIME        TOTAL TIME
                                MAXIMUM       AVERAGE  MAXIMUM  AVERAGE  MAXIMUM
 CP2K                                 1  1.0    1.028    1.028 7249.913 7249.913
 qs_forces                            1  2.0    0.000    0.000 7238.645 7238.645
 qs_energies                          1  3.0    0.000    0.000 7235.013 7235.013
 scf_env_do_scf                       1  4.0    0.001    0.001 7222.968 7222.968
 scf_env_do_scf_inner_loop          300  5.0    0.056    0.056 7222.967 7222.967
 gspace_mixing                      299  6.0   42.270   42.270 2990.470 2990.470
 broyden_mixing                     299  7.0 2700.985 2700.985 2700.988 2700.988
 qs_scf_new_mos                     300  6.0    0.009    0.009 1964.257 1964.257
 eigensolver                        300  7.0    0.034    0.034 1897.071 1897.071
 cp_fm_syevd                        300  8.0 1270.798 1270.798 1271.979 1271.979
 pw_transfer                       3912  9.9    0.389    0.389 1186.049 1186.049
 rebuild_ks_matrix                  301  7.0    0.001    0.001 1164.347 1164.347
 qs_ks_build_kohn_sham_matrix       301  8.0    0.102    0.102 1164.346 1164.346
 qs_ks_update_qs_env                300  6.0    0.004    0.004 1161.079 1161.079
 fft_wrap_pw1pw2                   3310 10.9    0.048    0.048 1153.966 1153.966
 qs_rho_update_rho                  301  6.0    0.003    0.003 1108.072 1108.072
 calculate_rho_elec                 301  7.0  558.748  558.748 1108.069 1108.069
 fft_wrap_pw1pw2_70                1504 11.2   91.319   91.319 1048.509 1048.509
 cp_fm_cholesky_restore             900  8.0  624.000  624.000  624.000  624.000
 fft3d_s                           3311 12.9  554.466  554.466  554.536  554.536
 density_rs2pw                      301  8.0    0.033    0.033  539.882  539.882
 pw_scatter_s                      1804 13.2  409.698  409.698  409.698  409.698
 pw_poisson_solve                   301  9.0  335.391  335.391  367.436  367.436
 sum_up_and_integrate               301  9.0   18.184   18.184  335.438  335.438
 integrate_v_rspace                 301 10.0   10.084   10.084  317.254  317.254
 potential_pw2rs                    301 11.0    2.541    2.541  285.589  285.589
 qs_vxc_create                      301  9.0    0.007    0.007  166.778  166.778
 xc_vxc_pw_create                   301 10.0   42.336   42.336  166.771  166.771
 -------------------------------------------------------------------------------

 The number of warnings for this run is : 1
 
 -------------------------------------------------------------------------------
  **** **** ******  **  PROGRAM ENDED AT                 2020-05-29 21:10:43.311
 ***** ** ***  *** **   PROGRAM RAN ON                                   gnode44
 **    ****   ******    PROGRAM RAN BY                               mayank.modi
 ***** **    ** ** **   PROGRAM PROCESS ID                                 38154
  **** **  *******  **  PROGRAM STOPPED IN /home/mayank.modi/ab-initio-thermodyn
                                           amics-of-water/mayank/cp2k_energy_cal
                                           culations
