 DBCSR| CPU Multiplication driver                                           XSMM
 DBCSR| Multrec recursion limit                                              512
 DBCSR| Multiplication stack size                                           1000
 DBCSR| Maximum elements for images                                    UNLIMITED
 DBCSR| Multiplicative factor virtual images                                   1
 DBCSR| Use multiplication densification                                       T
 DBCSR| Multiplication size stacks                                             3


  **** **** ******  **  PROGRAM STARTED AT               2020-05-27 17:39:59.651
 ***** ** ***  *** **   PROGRAM STARTED ON                               gnode44
 **    ****   ******    PROGRAM STARTED BY                           mayank.modi
 ***** **    ** ** **   PROGRAM PROCESS ID                                  1456
  **** **  *******  **  PROGRAM STARTED IN /home/mayank.modi/ab-initio-thermodyn
                                           amics-of-water/mayank/cp2k_energy_cal
                                           culations

 CP2K| version string:                                          CP2K version 7.1
 CP2K| source code revision number:                                  git:e635599
 CP2K| cp2kflags: omp libint fftw3 libxc xsmm spglib                            
 CP2K| is freely available from                            https://www.cp2k.org/
 CP2K| Program compiled at                          Mon Dec 23 19:23:12 CET 2019
 CP2K| Program compiled on                                                pc9404
 CP2K| Program compiled for                                Linux-x86-64-gfortran
 CP2K| Data directory path                                        /opt/cp2k/data
 CP2K| Input file name                                 input_training/input13.in

 GLOBAL| Force Environment number                                              1
 GLOBAL| Basis set file name                                           BASIS_SET
 GLOBAL| Potential file name                                      GTH_POTENTIALS
 GLOBAL| MM Potential file name                                     MM_POTENTIAL
 GLOBAL| Coordinate file name                                      __STD_INPUT__
 GLOBAL| Method name                                                        CP2K
 GLOBAL| Project name                                                   H2O_bulk
 GLOBAL| Preferred FFT library                                             FFTW3
 GLOBAL| Preferred diagonalization lib.                                       SL
 GLOBAL| Run type                                                   ENERGY_FORCE
 GLOBAL| All-to-all communication in single precision                          F
 GLOBAL| FFTs using library dependent lengths                                  F
 GLOBAL| Global print level                                                  LOW
 GLOBAL| MPI I/O enabled                                                       T
 GLOBAL| Total number of message passing processes                             1
 GLOBAL| Number of threads for this process                                   36
 GLOBAL| This output is from process                                           0
 GLOBAL| CPU model name                Intel(R) Xeon(R) CPU E5-2640 v4 @ 2.40GHz
 GLOBAL| CPUID                                                              1002
 GLOBAL| Compiled for CPUID                                                    0

 MEMORY| system memory details [Kb]
 MEMORY|                        rank 0           min           max       average
 MEMORY| MemTotal            131893056     131893056     131893056     131893056
 MEMORY| MemFree             121295104     121295104     121295104     121295104
 MEMORY| Buffers               2109012       2109012       2109012       2109012
 MEMORY| Cached                2934424       2934424       2934424       2934424
 MEMORY| Slab                  3302144       3302144       3302144       3302144
 MEMORY| SReclaimable          3098532       3098532       3098532       3098532
 MEMORY| MemLikelyFree       129437072     129437072     129437072     129437072


 GENERATE| WARNING:: No connections detected for Hydrogen - Atom Nr:        59 !
 GENERATE|  Preliminary Number of Bonds generated:                             0
 GENERATE|  Achieved consistency in connectivity generation.

 *******************************************************************************
 *******************************************************************************
 **                                                                           **
 **     #####                         ##              ##                      **
 **    ##   ##            ##          ##              ##                      **
 **   ##     ##                       ##            ######                    **
 **   ##     ##  ##   ##  ##   #####  ##  ##   ####   ##    #####    #####    **
 **   ##     ##  ##   ##  ##  ##      ## ##   ##      ##   ##   ##  ##   ##   **
 **   ##  ## ##  ##   ##  ##  ##      ####     ###    ##   ######   ######    **
 **    ##  ###   ##   ##  ##  ##      ## ##      ##   ##   ##       ##        **
 **     #######   #####   ##   #####  ##  ##  ####    ##    #####   ##        **
 **           ##                                                    ##        **
 **                                                                           **
 **                                                ... make the atoms dance   **
 **                                                                           **
 **            Copyright (C) by CP2K developers group (2000 - 2019)           **
 **                                                                           **
 *******************************************************************************


 TOTAL NUMBERS AND MAXIMUM NUMBERS

  Total number of            - Atomic kinds:                                   2
                             - Atoms:                                        192
                             - Shell sets:                                   384
                             - Shells:                                       704
                             - Primitive Cartesian functions:                960
                             - Cartesian basis functions:                   1536
                             - Spherical basis functions:                   1472

  Maximum angular momentum of- Orbital basis functions:                        2
                             - Local part of the GTH pseudopotential:          2
                             - Non-local part of the GTH pseudopotential:      0


 SCF PARAMETERS         Density guess:                                    ATOMIC
                        --------------------------------------------------------
                        max_scf:                                             300
                        max_scf_history:                                       0
                        max_diis:                                              4
                        --------------------------------------------------------
                        eps_scf:                                        1.00E-07
                        eps_scf_history:                                0.00E+00
                        eps_diis:                                       1.00E-01
                        eps_eigval:                                     1.00E-05
                        --------------------------------------------------------
                        level_shift [a.u.]:                                 0.00
                        --------------------------------------------------------
                        Mixing method:                            BROYDEN_MIXING
                                                charge density mixing in g-space
                        --------------------------------------------------------
                        No outer SCF

 Number of electrons:                                                        512
 Number of occupied orbitals:                                                256
 Number of molecular orbitals:                                               256

 Number of orbital functions:                                               1472
 Number of independent orbital functions:                                   1472

 Extrapolation method: initial_guess


 SCF WAVEFUNCTION OPTIMIZATION

  Step     Update method      Time    Convergence         Total energy    Change
  ------------------------------------------------------------------------------
     1 NoMix/Diag. 0.40E+00   10.1     0.68605124     -1064.1952812987 -1.06E+03
     2 Broy./Diag. 0.40E+00   16.2     1.80452792      -997.0057221762  6.72E+01
     3 Broy./Diag. 0.40E+00   16.6     1.83131787     -1260.1547928725 -2.63E+02
     4 Broy./Diag. 0.40E+00   17.8     1.80090369     -1112.6012854103  1.48E+02
     5 Broy./Diag. 0.40E+00   17.9     1.91751557     -1101.6498164345  1.10E+01
     6 Broy./Diag. 0.40E+00   18.7     1.76771152     -1100.9039301693  7.46E-01
     7 Broy./Diag. 0.40E+00   20.0     1.80717090     -1087.9897540555  1.29E+01
     8 Broy./Diag. 0.40E+00   21.1     1.75038147     -1084.9182216640  3.07E+00
     9 Broy./Diag. 0.40E+00   23.9     1.42251409     -1084.2500405217  6.68E-01
    10 Broy./Diag. 0.40E+00   21.6     1.40670397     -1076.0953184935  8.15E+00
    11 Broy./Diag. 0.40E+00   22.4     1.66812933     -1080.1627627192 -4.07E+00
    12 Broy./Diag. 0.40E+00   23.1     1.72540225     -1079.1395979960  1.02E+00
    13 Broy./Diag. 0.40E+00   23.7     1.74665588     -1074.5047422022  4.63E+00
    14 Broy./Diag. 0.40E+00   23.9     1.64433622     -1074.8985971312 -3.94E-01
    15 Broy./Diag. 0.40E+00   24.6     1.69237583     -1074.3560184999  5.43E-01
    16 Broy./Diag. 0.40E+00   23.7     0.29205535     -1072.2918147535  2.06E+00
    17 Broy./Diag. 0.40E+00   23.6     1.56422718     -1075.5528109622 -3.26E+00
    18 Broy./Diag. 0.40E+00   23.2     1.60843439     -1079.2467807597 -3.69E+00
    19 Broy./Diag. 0.40E+00   23.0     1.27147433     -1078.6247668362  6.22E-01
    20 Broy./Diag. 0.40E+00   23.6     0.89941859     -1075.1270069362  3.50E+00
    21 Broy./Diag. 0.40E+00   23.3     0.76148508     -1076.5047181960 -1.38E+00
    22 Broy./Diag. 0.40E+00   23.7     0.22690128     -1074.2465060091  2.26E+00
    23 Broy./Diag. 0.40E+00   24.1     0.33338483     -1076.4959500094 -2.25E+00
    24 Broy./Diag. 0.40E+00   23.8     0.91528425     -1076.3015167662  1.94E-01
    25 Broy./Diag. 0.40E+00   24.0     1.12479014     -1077.6952312731 -1.39E+00
    26 Broy./Diag. 0.40E+00   23.7     0.12679657     -1075.8942013362  1.80E+00
    27 Broy./Diag. 0.40E+00   23.9     1.40759950     -1075.7805618711  1.14E-01
    28 Broy./Diag. 0.40E+00   23.4     1.66825622     -1079.3144588597 -3.53E+00
    29 Broy./Diag. 0.40E+00   22.6     1.70265667     -1078.9855848966  3.29E-01
    30 Broy./Diag. 0.40E+00   23.6     0.88624977     -1076.4731278733  2.51E+00
    31 Broy./Diag. 0.40E+00   24.0     0.84785971     -1076.0616048240  4.12E-01
    32 Broy./Diag. 0.40E+00   23.5     0.12815860     -1074.9559555158  1.11E+00
    33 Broy./Diag. 0.40E+00   23.2     0.76608863     -1076.1787123370 -1.22E+00
    34 Broy./Diag. 0.40E+00   23.6     0.83629818     -1077.5497165339 -1.37E+00
    35 Broy./Diag. 0.40E+00   23.7     1.09691051     -1077.8386423520 -2.89E-01
    36 Broy./Diag. 0.40E+00   23.9     1.21861347     -1075.6503367993  2.19E+00
    37 Broy./Diag. 0.40E+00   23.7     0.24868305     -1078.3425412405 -2.69E+00
    38 Broy./Diag. 0.40E+00   23.9     1.41212960     -1078.5163215985 -1.74E-01
    39 Broy./Diag. 0.40E+00   23.8     1.66538495     -1078.2176628517  2.99E-01
    40 Broy./Diag. 0.40E+00   21.7     1.69560791     -1077.9710548431  2.47E-01
    41 Broy./Diag. 0.40E+00   24.5     1.00450564     -1077.8044526887  1.67E-01
    42 Broy./Diag. 0.40E+00   24.1     1.56184053     -1076.9032157268  9.01E-01
    43 Broy./Diag. 0.40E+00   23.8     1.59215798     -1077.8558897733 -9.53E-01
    44 Broy./Diag. 0.40E+00   23.5     1.68326652     -1075.1182292274  2.74E+00
    45 Broy./Diag. 0.40E+00   22.9     1.68879908     -1077.7434251320 -2.63E+00
    46 Broy./Diag. 0.40E+00   23.5     1.77697580     -1076.2948219550  1.45E+00
    47 Broy./Diag. 0.40E+00   23.9     1.79670179     -1077.6362334875 -1.34E+00
    48 Broy./Diag. 0.40E+00   24.7     1.41792456     -1076.3623109782  1.27E+00
    49 Broy./Diag. 0.40E+00   23.6     1.44204473     -1077.8583448244 -1.50E+00
    50 Broy./Diag. 0.40E+00   23.7     1.20941602     -1075.6021200218  2.26E+00
    51 Broy./Diag. 0.40E+00   23.1     1.51380957     -1077.9606064328 -2.36E+00
    52 Broy./Diag. 0.40E+00   23.6     1.54283650     -1077.7538054619  2.07E-01
    53 Broy./Diag. 0.40E+00   24.2     1.67708110     -1075.8235860529  1.93E+00
    54 Broy./Diag. 0.40E+00   23.8     1.67974489     -1077.7131576084 -1.89E+00
    55 Broy./Diag. 0.40E+00   22.3     1.18095098     -1075.6336222761  2.08E+00
    56 Broy./Diag. 0.40E+00   23.7     1.17019815     -1077.8855321458 -2.25E+00
    57 Broy./Diag. 0.40E+00   23.6     0.43897773     -1076.1605756962  1.72E+00
    58 Broy./Diag. 0.40E+00   23.6     1.67157489     -1074.8336983320  1.33E+00
    59 Broy./Diag. 0.40E+00   23.8     1.68330453     -1077.9284651352 -3.09E+00
    60 Broy./Diag. 0.40E+00   23.8     1.58728075     -1077.7916259410  1.37E-01
    61 Broy./Diag. 0.40E+00   22.8     1.52514653     -1075.6349555548  2.16E+00
    62 Broy./Diag. 0.40E+00   23.1     1.54174741     -1077.9545548092 -2.32E+00
    63 Broy./Diag. 0.40E+00   23.0     1.43029142     -1075.9976241713  1.96E+00
    64 Broy./Diag. 0.40E+00   23.5     1.43207293     -1077.8253513988 -1.83E+00
    65 Broy./Diag. 0.40E+00   23.4     1.12039798     -1076.0100752155  1.82E+00
    66 Broy./Diag. 0.40E+00   23.7     1.23023131     -1077.7139261387 -1.70E+00
    67 Broy./Diag. 0.40E+00   24.9     1.17895904     -1075.0750047046  2.64E+00
    68 Broy./Diag. 0.40E+00   22.3     1.60522416     -1077.9856098701 -2.91E+00
    69 Broy./Diag. 0.40E+00   22.6     1.67514000     -1077.5331954384  4.52E-01
    70 Broy./Diag. 0.40E+00   22.9     1.70311156     -1077.4834302904  4.98E-02
    71 Broy./Diag. 0.40E+00   23.3     1.53116721     -1075.7660273689  1.72E+00
    72 Broy./Diag. 0.40E+00   23.6     1.54698186     -1078.1832394864 -2.42E+00
    73 Broy./Diag. 0.40E+00   23.8     1.41674146     -1075.5177112531  2.67E+00
    74 Broy./Diag. 0.40E+00   24.5     1.43159560     -1077.6822206396 -2.16E+00
    75 Broy./Diag. 0.40E+00   24.2     0.40000865     -1076.0285524513  1.65E+00
    76 Broy./Diag. 0.40E+00   24.5     1.18487749     -1075.0673877302  9.61E-01
    77 Broy./Diag. 0.40E+00   23.2     1.17106229     -1077.9283486823 -2.86E+00
    78 Broy./Diag. 0.40E+00   21.2     0.11042228     -1075.7462603491  2.18E+00
    79 Broy./Diag. 0.40E+00   24.0     1.68709479     -1075.6776249056  6.86E-02
    80 Broy./Diag. 0.40E+00   23.6     1.69035284     -1077.7657293345 -2.09E+00
    81 Broy./Diag. 0.40E+00   23.1     1.56520820     -1075.7627080320  2.00E+00
    82 Broy./Diag. 0.40E+00   23.1     1.77687522     -1077.9103295726 -2.15E+00
    83 Broy./Diag. 0.40E+00   23.2     1.79982372     -1077.8140131106  9.63E-02
    84 Broy./Diag. 0.40E+00   24.5     0.11612051     -1075.7026134460  2.11E+00
    85 Broy./Diag. 0.40E+00   23.5     1.53812723     -1075.6816494973  2.10E-02
    86 Broy./Diag. 0.40E+00   23.4     1.53966907     -1077.9594279191 -2.28E+00
    87 Broy./Diag. 0.40E+00   23.9     1.46669860     -1079.2285952224 -1.27E+00
    88 Broy./Diag. 0.40E+00   24.0     1.48772550     -1077.1812024131  2.05E+00
    89 Broy./Diag. 0.40E+00   24.9     1.19537830     -1074.5490917315  2.63E+00
    90 Broy./Diag. 0.40E+00   22.3     1.66517126     -1078.2526498399 -3.70E+00
    91 Broy./Diag. 0.40E+00   24.8     1.70114593     -1078.2286006149  2.40E-02
    92 Broy./Diag. 0.40E+00   23.9     1.61951124     -1078.0632468577  1.65E-01
    93 Broy./Diag. 0.40E+00   24.2     0.84972763     -1077.7520380136  3.11E-01
    94 Broy./Diag. 0.40E+00   23.9     0.56538222     -1076.9407451183  8.11E-01
    95 Broy./Diag. 0.40E+00   22.1     0.99640390     -1075.4901812544  1.45E+00
    96 Broy./Diag. 0.40E+00   23.5     0.97552607     -1077.5337899197 -2.04E+00
    97 Broy./Diag. 0.40E+00   23.8     0.42774220     -1076.1947543494  1.34E+00
    98 Broy./Diag. 0.40E+00   23.2     0.33968896     -1075.2409649985  9.54E-01
    99 Broy./Diag. 0.40E+00   25.0     1.51758916     -1075.9574435980 -7.16E-01
   100 Broy./Diag. 0.40E+00   22.3     1.66884871     -1077.8358174780 -1.88E+00
   101 Broy./Diag. 0.40E+00   24.1     1.77087552     -1077.8935095150 -5.77E-02
   102 Broy./Diag. 0.40E+00   23.9     1.80617502     -1077.8911535760  2.36E-03
   103 Broy./Diag. 0.40E+00   24.3     0.13751060     -1075.7668812513  2.12E+00
   104 Broy./Diag. 0.40E+00   23.9     0.20987631     -1076.0080305839 -2.41E-01
   105 Broy./Diag. 0.40E+00   23.8     1.23782719     -1075.9284237719  7.96E-02
   106 Broy./Diag. 0.40E+00   24.7     1.24001669     -1077.7245751493 -1.80E+00
   107 Broy./Diag. 0.40E+00   24.1     1.42662963     -1075.8284807828  1.90E+00
   108 Broy./Diag. 0.40E+00   24.7     1.42565451     -1077.6223782793 -1.79E+00
   109 Broy./Diag. 0.40E+00   23.9     1.22322170     -1075.4174463520  2.20E+00
   110 Broy./Diag. 0.40E+00   24.8     1.60450175     -1078.2470017150 -2.83E+00
   111 Broy./Diag. 0.40E+00   24.0     1.66779747     -1077.4930892691  7.54E-01
   112 Broy./Diag. 0.40E+00   23.9     1.69618695     -1077.4438620368  4.92E-02
   113 Broy./Diag. 0.40E+00   24.0     1.54161808     -1075.9588667267  1.48E+00
   114 Broy./Diag. 0.40E+00   23.8     1.54933425     -1078.1655213679 -2.21E+00
   115 Broy./Diag. 0.40E+00   23.8     1.11592837     -1075.2800692021  2.89E+00
   116 Broy./Diag. 0.40E+00   24.4     0.91885163     -1077.6779620701 -2.40E+00
   117 Broy./Diag. 0.40E+00   21.9     1.67515885     -1076.7241390641  9.54E-01
   118 Broy./Diag. 0.40E+00   22.5     1.68842688     -1077.9623226965 -1.24E+00
   119 Broy./Diag. 0.40E+00   21.3     0.39475615     -1075.3030373383  2.66E+00
   120 Broy./Diag. 0.40E+00   24.0     1.41313833     -1076.4927996444 -1.19E+00
   121 Broy./Diag. 0.40E+00   24.3     1.62668374     -1077.7050410711 -1.21E+00
   122 Broy./Diag. 0.40E+00   23.2     1.65526921     -1077.6465999908  5.84E-02
   123 Broy./Diag. 0.40E+00   22.1     1.53009300     -1075.6245776659  2.02E+00
   124 Broy./Diag. 0.40E+00   22.4     1.54035837     -1078.0800881034 -2.46E+00
   125 Broy./Diag. 0.40E+00   22.8     1.20854466     -1077.8497295253  2.30E-01
   126 Broy./Diag. 0.40E+00   23.7     1.61379583     -1075.5981231877  2.25E+00
   127 Broy./Diag. 0.40E+00   23.2     1.68023683     -1077.6872584083 -2.09E+00
   128 Broy./Diag. 0.40E+00   23.6     1.69899075     -1077.6735209996  1.37E-02
   129 Broy./Diag. 0.40E+00   23.4     0.61151117     -1076.3469745340  1.33E+00
   130 Broy./Diag. 0.40E+00   23.9     0.54031433     -1074.5750313907  1.77E+00
   131 Broy./Diag. 0.40E+00   22.5     1.40321823     -1076.2515956821 -1.68E+00
   132 Broy./Diag. 0.40E+00   23.2     1.42540987     -1077.8602166937 -1.61E+00
   133 Broy./Diag. 0.40E+00   23.0     1.52945713     -1075.4816447421  2.38E+00
   134 Broy./Diag. 0.40E+00   21.2     1.55624572     -1077.7312816823 -2.25E+00
   135 Broy./Diag. 0.40E+00   23.5     1.56222503     -1078.5961944317 -8.65E-01
   136 Broy./Diag. 0.40E+00   24.7     1.63111443     -1077.4860434508  1.11E+00
   137 Broy./Diag. 0.40E+00   23.6     1.69201768     -1077.2982067875  1.88E-01
   138 Broy./Diag. 0.40E+00   23.9     0.30199123     -1075.1256246318  2.17E+00
   139 Broy./Diag. 0.40E+00   24.7     0.49134257     -1076.2808009695 -1.16E+00
   140 Broy./Diag. 0.40E+00   23.6     1.14144745     -1075.3033972767  9.77E-01
   141 Broy./Diag. 0.40E+00   24.3     1.42721188     -1077.7812594377 -2.48E+00
   142 Broy./Diag. 0.40E+00   24.7     1.44472474     -1077.8757456763 -9.45E-02
   143 Broy./Diag. 0.40E+00   22.3     0.91680056     -1077.1669085000  7.09E-01
   144 Broy./Diag. 0.40E+00   22.7     0.53872456     -1074.8158570762  2.35E+00
   145 Broy./Diag. 0.40E+00   24.8     1.52429711     -1076.5409063139 -1.73E+00
   146 Broy./Diag. 0.40E+00   23.9     1.54536777     -1077.9778703925 -1.44E+00
   147 Broy./Diag. 0.40E+00   25.1     1.66800722     -1075.7142620532  2.26E+00
   148 Broy./Diag. 0.40E+00   24.1     1.67793130     -1077.5382061684 -1.82E+00
   149 Broy./Diag. 0.40E+00   23.8     1.67534215     -1075.8457742912  1.69E+00
   150 Broy./Diag. 0.40E+00   24.3     1.69054425     -1078.1217000052 -2.28E+00
   151 Broy./Diag. 0.40E+00   25.2     1.16607775     -1075.6792558760  2.44E+00
   152 Broy./Diag. 0.40E+00   24.0     0.29537867     -1077.7439592737 -2.06E+00
   153 Broy./Diag. 0.40E+00   23.9     1.77659792     -1077.8064587616 -6.25E-02
   154 Broy./Diag. 0.40E+00   23.5     1.79721080     -1077.8198556028 -1.34E-02
   155 Broy./Diag. 0.40E+00   23.4     1.53401829     -1076.9940330855  8.26E-01
   156 Broy./Diag. 0.40E+00   23.5     1.56247379     -1077.3432931711 -3.49E-01
   157 Broy./Diag. 0.40E+00   23.4     1.13922863     -1074.8388236603  2.50E+00
   158 Broy./Diag. 0.40E+00   22.8     0.16804156     -1078.3039982191 -3.47E+00
   159 Broy./Diag. 0.40E+00   23.9     1.67432283     -1077.7968591650  5.07E-01
   160 Broy./Diag. 0.40E+00   24.2     1.69524738     -1078.0748545062 -2.78E-01
   161 Broy./Diag. 0.40E+00   24.8     0.85351498     -1076.7651944611  1.31E+00
   162 Broy./Diag. 0.40E+00   24.0     0.30798642     -1075.0405659927  1.72E+00
   163 Broy./Diag. 0.40E+00   25.2     1.66880291     -1075.9112406475 -8.71E-01
   164 Broy./Diag. 0.40E+00   22.0     1.67829939     -1077.7336621785 -1.82E+00
   165 Broy./Diag. 0.40E+00   21.8     1.41218763     -1075.7592399018  1.97E+00
   166 Broy./Diag. 0.40E+00   23.1     1.51045351     -1077.8748371049 -2.12E+00
   167 Broy./Diag. 0.40E+00   22.6     1.56514075     -1077.8948160458 -2.00E-02
   168 Broy./Diag. 0.40E+00   22.5     1.21454538     -1076.1686142648  1.73E+00
   169 Broy./Diag. 0.40E+00   23.1     1.68734757     -1078.8807219895 -2.71E+00
   170 Broy./Diag. 0.40E+00   23.5     1.76433101     -1077.6230738948  1.26E+00
   171 Broy./Diag. 0.40E+00   23.7     1.83743308     -1077.2132283583  4.10E-01
   172 Broy./Diag. 0.40E+00   24.9     1.21874812     -1073.9491462898  3.26E+00
   173 Broy./Diag. 0.40E+00   23.8     1.18660102     -1078.2991784694 -4.35E+00
   174 Broy./Diag. 0.40E+00   25.1     0.23470755     -1076.3525289317  1.95E+00
   175 Broy./Diag. 0.40E+00   23.9     0.42194156     -1075.2298629822  1.12E+00
   176 Broy./Diag. 0.40E+00   23.7     0.45181323     -1076.5710055485 -1.34E+00
   177 Broy./Diag. 0.40E+00   24.6     1.41618231     -1076.0607285843  5.10E-01
   178 Broy./Diag. 0.40E+00   24.3     1.42345664     -1077.9400013811 -1.88E+00
   179 Broy./Diag. 0.40E+00   23.5     1.56633517     -1076.0026757938  1.94E+00
   180 Broy./Diag. 0.40E+00   24.0     1.60131120     -1077.8641315613 -1.86E+00
   181 Broy./Diag. 0.40E+00   24.1     1.63594735     -1077.7849457753  7.92E-02
   182 Broy./Diag. 0.40E+00   22.0     1.66495408     -1077.6063311932  1.79E-01
   183 Broy./Diag. 0.40E+00   22.2     1.69987933     -1077.8304349264 -2.24E-01
   184 Broy./Diag. 0.40E+00   23.6     1.52108685     -1075.7758327987  2.05E+00
   185 Broy./Diag. 0.40E+00   23.8     1.53549060     -1077.7796875701 -2.00E+00
   186 Broy./Diag. 0.40E+00   24.3     1.19331945     -1075.4887949988  2.29E+00
   187 Broy./Diag. 0.40E+00   23.7     1.41245302     -1078.2390311577 -2.75E+00
   188 Broy./Diag. 0.40E+00   24.4     1.43773717     -1077.7255228786  5.14E-01
   189 Broy./Diag. 0.40E+00   24.2     0.87893418     -1077.3891740962  3.36E-01
   190 Broy./Diag. 0.40E+00   23.6     0.49916789     -1075.3394188112  2.05E+00
   191 Broy./Diag. 0.40E+00   23.2     0.50338157     -1077.1290027350 -1.79E+00
   192 Broy./Diag. 0.40E+00   22.4     1.67507928     -1075.7969302890  1.33E+00
   193 Broy./Diag. 0.40E+00   24.7     1.68713362     -1077.7294940507 -1.93E+00
   194 Broy./Diag. 0.40E+00   24.0     1.52833984     -1075.9871748471  1.74E+00
   195 Broy./Diag. 0.40E+00   24.0     1.56394101     -1077.8217093145 -1.83E+00
   196 Broy./Diag. 0.40E+00   23.0     1.59343123     -1077.6286041838  1.93E-01
   197 Broy./Diag. 0.40E+00   23.8     0.27586999     -1075.2065878693  2.42E+00
   198 Broy./Diag. 0.40E+00   24.0     1.17356493     -1076.3984989959 -1.19E+00
   199 Broy./Diag. 0.40E+00   25.1     1.66538464     -1078.8098765175 -2.41E+00
   200 Broy./Diag. 0.40E+00   23.9     1.71296136     -1077.5391512799  1.27E+00
   201 Broy./Diag. 0.40E+00   23.9     1.19308719     -1077.3859317834  1.53E-01
   202 Broy./Diag. 0.40E+00   24.9     1.66806262     -1075.3965935494  1.99E+00
   203 Broy./Diag. 0.40E+00   23.9     1.69377736     -1077.7568600324 -2.36E+00
   204 Broy./Diag. 0.40E+00   23.0     0.43512970     -1076.0487775169  1.71E+00
   205 Broy./Diag. 0.40E+00   22.1     1.40808933     -1075.4146329031  6.34E-01
   206 Broy./Diag. 0.40E+00   23.9     1.56172420     -1077.9071334929 -2.49E+00
   207 Broy./Diag. 0.40E+00   22.1     1.59811604     -1077.8962965973  1.08E-02
   208 Broy./Diag. 0.40E+00   22.8     0.38080827     -1075.8393972439  2.06E+00
   209 Broy./Diag. 0.40E+00   23.8     1.51222558     -1075.8831693679 -4.38E-02
   210 Broy./Diag. 0.40E+00   23.6     1.53580188     -1077.8833883373 -2.00E+00
   211 Broy./Diag. 0.40E+00   23.8     1.24800552     -1077.7701265938  1.13E-01
   212 Broy./Diag. 0.40E+00   23.6     1.68501415     -1075.4146550313  2.36E+00
   213 Broy./Diag. 0.40E+00   23.5     1.69419924     -1078.0844739409 -2.67E+00
   214 Broy./Diag. 0.40E+00   23.3     1.19707763     -1077.9597600383  1.25E-01
   215 Broy./Diag. 0.40E+00   23.8     1.41385142     -1076.9014005409  1.06E+00
   216 Broy./Diag. 0.40E+00   24.2     1.44080865     -1077.4765237929 -5.75E-01
   217 Broy./Diag. 0.40E+00   24.3     1.53251777     -1075.0343536284  2.44E+00
   218 Broy./Diag. 0.40E+00   24.3     1.52564273     -1078.0197007604 -2.99E+00
   219 Broy./Diag. 0.40E+00   25.0     0.21238915     -1076.2293343953  1.79E+00
   220 Broy./Diag. 0.40E+00   23.7     1.60847479     -1075.7798827962  4.49E-01
   221 Broy./Diag. 0.40E+00   23.3     1.61848501     -1077.7013149110 -1.92E+00
   222 Broy./Diag. 0.40E+00   24.3     1.68280162     -1076.0493970828  1.65E+00
   223 Broy./Diag. 0.40E+00   25.9     1.70260560     -1077.9352429196 -1.89E+00
   224 Broy./Diag. 0.40E+00   21.4     1.28341114     -1078.8514166715 -9.16E-01
   225 Broy./Diag. 0.40E+00   23.2     1.57484518     -1074.8086453159  4.04E+00
   226 Broy./Diag. 0.40E+00   23.2     1.77680448     -1077.8415936975 -3.03E+00
   227 Broy./Diag. 0.40E+00   23.7     1.81214718     -1077.8196177634  2.20E-02
   228 Broy./Diag. 0.40E+00   23.8     1.58576109     -1077.7151418744  1.04E-01
   229 Broy./Diag. 0.40E+00   24.2     1.17998586     -1077.4612745541  2.54E-01
   230 Broy./Diag. 0.40E+00   25.0     0.13983533     -1075.8440765184  1.62E+00
   231 Broy./Diag. 0.40E+00   23.0     0.23400431     -1076.0081986616 -1.64E-01
   232 Broy./Diag. 0.40E+00   24.0     1.41173796     -1075.4807516162  5.27E-01
   233 Broy./Diag. 0.40E+00   24.2     1.42533479     -1077.8656151022 -2.38E+00
   234 Broy./Diag. 0.40E+00   24.0     1.66556914     -1076.2296391227  1.64E+00
   235 Broy./Diag. 0.40E+00   23.4     1.67665933     -1077.7972088978 -1.57E+00
   236 Broy./Diag. 0.40E+00   21.5     1.14909792     -1075.7509189416  2.05E+00
   237 Broy./Diag. 0.40E+00   23.5     1.67523595     -1077.8851270272 -2.13E+00
   238 Broy./Diag. 0.40E+00   24.6     1.69957247     -1077.7045859862  1.81E-01
   239 Broy./Diag. 0.40E+00   23.9     1.64823148     -1077.7262159078 -2.16E-02
   240 Broy./Diag. 0.40E+00   23.6     1.10731008     -1075.4330139645  2.29E+00
   241 Broy./Diag. 0.40E+00   23.8     1.09208816     -1077.9019864909 -2.47E+00
   242 Broy./Diag. 0.40E+00   24.0     1.54179717     -1075.8632952973  2.04E+00
   243 Broy./Diag. 0.40E+00   23.4     1.53625073     -1077.7569285119 -1.89E+00
   244 Broy./Diag. 0.40E+00   24.1     1.44165969     -1077.5969790477  1.60E-01
   245 Broy./Diag. 0.40E+00   22.1     0.50292307     -1075.7932942136  1.80E+00
   246 Broy./Diag. 0.40E+00   22.9     0.78437604     -1074.7467161713  1.05E+00
   247 Broy./Diag. 0.40E+00   22.8     0.65987561     -1077.0826816171 -2.34E+00
   248 Broy./Diag. 0.40E+00   21.8     1.66818830     -1075.8234008407  1.26E+00
   249 Broy./Diag. 0.40E+00   23.8     1.68081930     -1077.5372680077 -1.71E+00
   250 Broy./Diag. 0.40E+00   23.6     1.68232213     -1075.7903284019  1.75E+00
   251 Broy./Diag. 0.40E+00   23.7     1.68451672     -1077.8699327833 -2.08E+00
   252 Broy./Diag. 0.40E+00   22.8     1.15480523     -1075.6226271513  2.25E+00
   253 Broy./Diag. 0.40E+00   23.1     1.60273025     -1077.9697986322 -2.35E+00
   254 Broy./Diag. 0.40E+00   23.7     1.63841531     -1077.9330642823  3.67E-02
   255 Broy./Diag. 0.40E+00   22.9     1.59758105     -1077.6987381357  2.34E-01
   256 Broy./Diag. 0.40E+00   24.6     1.19631347     -1077.8028542984 -1.04E-01
   257 Broy./Diag. 0.40E+00   24.5     1.43526854     -1075.8504189229  1.95E+00
   258 Broy./Diag. 0.40E+00   23.5     1.43053714     -1077.5966744524 -1.75E+00
   259 Broy./Diag. 0.40E+00   23.4     0.61759709     -1076.3516756198  1.24E+00
   260 Broy./Diag. 0.40E+00   21.3     1.52622646     -1074.7980178692  1.55E+00
   261 Broy./Diag. 0.40E+00   23.4     1.53177424     -1078.3155248659 -3.52E+00
   262 Broy./Diag. 0.40E+00   24.0     0.54739900     -1076.7856865027  1.53E+00
   263 Broy./Diag. 0.40E+00   24.4     1.77681285     -1075.4712167023  1.31E+00
   264 Broy./Diag. 0.40E+00   24.4     1.79208735     -1077.6272407029 -2.16E+00
   265 Broy./Diag. 0.40E+00   24.1     1.70557582     -1077.6243835773  2.86E-03
   266 Broy./Diag. 0.40E+00   24.1     1.22593483     -1077.4918142648  1.33E-01
   267 Broy./Diag. 0.40E+00   24.2     0.27330507     -1075.3668778521  2.12E+00
   268 Broy./Diag. 0.40E+00   23.8     1.66445909     -1076.4338800730 -1.07E+00
   269 Broy./Diag. 0.40E+00   21.3     1.67729796     -1077.8693928073 -1.44E+00
   270 Broy./Diag. 0.40E+00   24.1     1.52810016     -1075.8182305053  2.05E+00
   271 Broy./Diag. 0.40E+00   24.0     1.54165604     -1077.8832997080 -2.07E+00
   272 Broy./Diag. 0.40E+00   22.7     1.10211970     -1075.9559606316  1.93E+00
   273 Broy./Diag. 0.40E+00   23.7     1.39916229     -1077.9797291934 -2.02E+00
   274 Broy./Diag. 0.40E+00   23.7     1.68530723     -1077.7276076570  2.52E-01
   275 Broy./Diag. 0.40E+00   23.4     1.70680771     -1077.7163721027  1.12E-02
   276 Broy./Diag. 0.40E+00   23.3     0.36128167     -1075.7799629014  1.94E+00
   277 Broy./Diag. 0.40E+00   24.0     1.13891602     -1074.9591702422  8.21E-01
   278 Broy./Diag. 0.40E+00   24.7     1.11960881     -1077.9059168318 -2.95E+00
   279 Broy./Diag. 0.40E+00   23.2     0.16146310     -1075.9084248432  2.00E+00
   280 Broy./Diag. 0.40E+00   24.1     1.52619439     -1075.5222256801  3.86E-01
   281 Broy./Diag. 0.40E+00   24.9     1.53971233     -1077.8226343748 -2.30E+00
   282 Broy./Diag. 0.40E+00   25.2     0.23019423     -1075.8070139002  2.02E+00
   283 Broy./Diag. 0.40E+00   22.2     1.42227118     -1075.8433264304 -3.63E-02
   284 Broy./Diag. 0.40E+00   23.6     1.66260539     -1077.8603979898 -2.02E+00
   285 Broy./Diag. 0.40E+00   23.5     1.68943656     -1077.8544475370  5.95E-03
   286 Broy./Diag. 0.40E+00   23.8     1.18711471     -1075.7628976779  2.09E+00
   287 Broy./Diag. 0.40E+00   23.4     1.20140489     -1077.6607735509 -1.90E+00
   288 Broy./Diag. 0.40E+00   23.4     1.20719230     -1075.5541504149  2.11E+00
   289 Broy./Diag. 0.40E+00   23.7     1.77509937     -1078.0202237861 -2.47E+00
   290 Broy./Diag. 0.40E+00   23.7     1.79452378     -1077.7421395486  2.78E-01
   291 Broy./Diag. 0.40E+00   23.8     1.56915667     -1077.7397663437  2.37E-03
   292 Broy./Diag. 0.40E+00   25.2     0.86917295     -1077.5469125748  1.93E-01
   293 Broy./Diag. 0.40E+00   24.1     0.88822509     -1077.1684162539  3.78E-01
   294 Broy./Diag. 0.40E+00   26.3     0.99053233     -1075.1566155698  2.01E+00
   295 Broy./Diag. 0.40E+00   23.7     1.66960457     -1077.7244873369 -2.57E+00
   296 Broy./Diag. 0.40E+00   23.4     1.68875634     -1077.4651854984  2.59E-01
   297 Broy./Diag. 0.40E+00   22.5     1.41431143     -1075.1906051063  2.27E+00
   298 Broy./Diag. 0.40E+00   26.2     1.42560110     -1078.0557974033 -2.87E+00
   299 Broy./Diag. 0.40E+00   24.8     1.56351990     -1076.0876635358  1.97E+00
   300 Broy./Diag. 0.40E+00   24.4     1.60273445     -1077.7112769832 -1.62E+00

  Leaving inner SCF loop after reaching   300 steps.


  Electronic density on regular grids:       -512.0002182488       -0.0002182488
  Core density on regular grids:              512.0002570554        0.0002570554
  Total charge density on r-space grids:        0.0000388065
  Total charge density g-space grids:           0.0000388065

  Overlap energy of the core charge distribution:               0.00000000000000
  Self energy of the core charge distribution:              -2838.21791979120962
  Core Hamiltonian energy:                                    758.24192561271423
  Hartree energy:                                            1240.93243181780440
  Exchange-correlation energy:                               -238.66771462250867

  Total energy:                                             -1077.71127698319970

 *** WARNING in qs_scf.F:542 :: SCF run NOT converged ***


 ENERGY| Total FORCE_EVAL ( QS ) energy (a.u.):            -1074.345508909087130


 ATOMIC FORCES in [a.u.]

 # Atom   Kind   Element          X              Y              Z
      1      1      O          -0.07627829     0.03114897    -0.02823805
      2      2      H           0.06553696    -0.02762640    -0.00210636
      3      2      H           0.00780480     0.03247988    -0.01710502
      4      1      O           0.01773687    -0.03823491    -0.15771903
      5      2      H           0.06882001    -0.02651515     0.09756623
      6      2      H          -0.05362904     0.05866776     0.05421289
      7      1      O          -0.06157077    -0.07733289    -0.13029362
      8      2      H           0.03240938    -0.00383702     0.02147683
      9      2      H          -0.02760889     0.05004821     0.02742010
     10      1      O           0.04611635    -0.00241784    -0.02770800
     11      2      H          -0.04163896    -0.02826410    -0.02612459
     12      2      H          -0.04882967    -0.00169181     0.02083699
     13      1      O          -0.06826548    -0.00748630    -0.05277469
     14      2      H           0.02399914     0.06573732     0.00874068
     15      2      H           0.01009941    -0.05487983    -0.06150183
     16      1      O          -0.08068521     0.07284084     0.08166880
     17      2      H           0.06126728     0.04730850    -0.00342614
     18      2      H           0.00479714    -0.02242055    -0.03633024
     19      1      O          -0.02039960     0.10121357    -0.02173959
     20      2      H          -0.02792886    -0.06266248     0.01533159
     21      2      H           0.06404603    -0.00799290    -0.01743825
     22      1      O          -0.00589237    -0.01608837    -0.05699515
     23      2      H           0.06334783     0.05532615    -0.06770682
     24      2      H          -0.01385924     0.05287767     0.05374745
     25      1      O           0.05700389     0.13691395    -0.10665524
     26      2      H          -0.06959927     0.01265117     0.02284011
     27      2      H           0.02793935    -0.02323299     0.05911509
     28      1      O           0.00515567     0.10017625    -0.13804598
     29      2      H           0.05128801    -0.02757465     0.03489124
     30      2      H          -0.03848873    -0.04004789     0.01020985
     31      1      O          -0.08151455     0.07203624     0.01497354
     32      2      H           0.03238684     0.00973478     0.11152930
     33      2      H           0.03259111    -0.09892755    -0.03347940
     34      1      O           0.10149829    -0.10383191    -0.07488729
     35      2      H          -0.03513769    -0.00534230    -0.06464302
     36      2      H          -0.02337275     0.02949963     0.07631631
     37      1      O           0.04921011    -0.10387833    -0.14521658
     38      2      H          -0.08313746     0.01738534    -0.00834034
     39      2      H           0.02429161     0.01625982     0.03991998
     40      1      O           0.07043888    -0.06175771    -0.02334765
     41      2      H          -0.07647574     0.01662083     0.01877727
     42      2      H          -0.01588049     0.06438756    -0.09384302
     43      1      O           0.04151035     0.00080751    -0.02965462
     44      2      H          -0.02258529     0.07956177     0.03642400
     45      2      H           0.00232211    -0.09608879     0.04856473
     46      1      O           0.05066763     0.03110820     0.10853702
     47      2      H           0.01452484     0.02046032    -0.07299128
     48      2      H          -0.06661345     0.03800305     0.03924665
     49      1      O           0.08860420     0.09668722    -0.04889506
     50      2      H          -0.00386202    -0.04511553    -0.04817776
     51      2      H          -0.05161666     0.00258286     0.02641304
     52      1      O          -0.07155114    -0.08788879    -0.13193788
     53      2      H          -0.00890635     0.00752259     0.06118169
     54      2      H           0.06823343    -0.01278223    -0.00194758
     55      1      O          -0.07157689    -0.07435036     0.04748046
     56      2      H           0.02449481    -0.03545631    -0.10079525
     57      2      H           0.04033858     0.05534881     0.00783268
     58      1      O           0.01208936     0.06066969    -0.00272623
     59      2      H          -0.01972331     0.00434070    -0.02431651
     60      2      H          -0.01407836     0.02875229    -0.03532886
     61      1      O          -0.10011107    -0.08860835    -0.12242846
     62      2      H           0.05449237     0.04816108    -0.06754906
     63      2      H           0.06100354    -0.03781194     0.08179015
     64      1      O           0.06017670     0.11995231     0.05470969
     65      2      H          -0.09106369     0.01043894     0.04968020
     66      2      H           0.00997233    -0.04891041    -0.09741802
     67      1      O           0.09729160     0.09452216    -0.14524841
     68      2      H          -0.02072609    -0.05509962    -0.02691290
     69      2      H          -0.05358242     0.03971400     0.04491163
     70      1      O          -0.03321373    -0.09827122    -0.14408664
     71      2      H          -0.02736352    -0.00851909     0.03982117
     72      2      H           0.09068096     0.02928691     0.00452597
     73      1      O           0.01713390    -0.03921020     0.11929023
     74      2      H           0.03732830    -0.04003461    -0.05537407
     75      2      H          -0.01044720     0.02842225    -0.04478225
     76      1      O          -0.06969983    -0.14932664    -0.10753042
     77      2      H           0.02263604    -0.08369172     0.14349707
     78      2      H           0.02388300     0.19629894    -0.04165945
     79      1      O           0.09188797     0.05443995    -0.09160128
     80      2      H          -0.05392460     0.03230396     0.00542938
     81      2      H          -0.01881239    -0.08230648     0.07690260
     82      1      O          -0.01240997     0.02020614     0.09740237
     83      2      H          -0.04065163    -0.04478615    -0.02817047
     84      2      H           0.07141674     0.01612463     0.05316896
     85      1      O           0.08160890    -0.03074840     0.08954610
     86      2      H          -0.07343495     0.04848796     0.09557355
     87      2      H          -0.05201756    -0.01796805    -0.05545321
     88      1      O           0.02669427    -0.00406546     0.12453338
     89      2      H           0.02155743     0.06886649     0.04988531
     90      2      H          -0.05725918    -0.00170461    -0.00512902
     91      1      O           0.04845135    -0.04756651    -0.03512382
     92      2      H          -0.07917843     0.01965661     0.00417794
     93      2      H           0.04276409    -0.01726183     0.03838990
     94      1      O          -0.04415322    -0.00139193     0.09399490
     95      2      H           0.00119635     0.01305870    -0.06411184
     96      2      H           0.03204405    -0.03726160     0.01437050
     97      1      O           0.09530933     0.04460526     0.14121313
     98      2      H          -0.03051001     0.09109280    -0.07054140
     99      2      H          -0.05209524    -0.09311204    -0.02523625
    100      1      O           0.08744809    -0.07170787    -0.13006762
    101      2      H           0.01244712    -0.01387136     0.07390146
    102      2      H          -0.08083127     0.06924856    -0.02234435
    103      1      O          -0.02054792     0.10433964     0.06495572
    104      2      H           0.03369851    -0.00044978    -0.06182661
    105      2      H          -0.01627821    -0.08565486     0.04771279
    106      1      O          -0.05636096     0.10227439     0.09272056
    107      2      H           0.00316184    -0.05610056     0.01802628
    108      2      H           0.07616532     0.05840233     0.02464352
    109      1      O           0.01773266     0.06082371    -0.17536766
    110      2      H           0.06583828     0.03697678     0.04672852
    111      2      H          -0.05680010    -0.03832688     0.04214355
    112      1      O           0.03019389    -0.06007951    -0.07417099
    113      2      H           0.04514942    -0.00324653    -0.03071496
    114      2      H          -0.03741712     0.03296290     0.05683828
    115      1      O           0.09695495    -0.08742900    -0.13710198
    116      2      H          -0.01741571     0.10138951    -0.05186521
    117      2      H          -0.05200576    -0.05956418    -0.01156537
    118      1      O           0.01770556     0.00394862    -0.13260416
    119      2      H           0.05927551     0.06741024     0.04694540
    120      2      H          -0.06478403     0.04232585     0.05873532
    121      1      O          -0.05093409     0.05763975    -0.00848083
    122      2      H          -0.02119438    -0.00525212     0.03624952
    123      2      H           0.03972689    -0.05959975    -0.06736779
    124      1      O          -0.09071542     0.08405724     0.06587825
    125      2      H           0.03238313    -0.01103215    -0.02514201
    126      2      H           0.02522753     0.01404682     0.07409775
    127      1      O           0.04036345     0.03619242    -0.04800445
    128      2      H          -0.04075454    -0.09934849    -0.03207046
    129      2      H           0.03946535    -0.00175725     0.03958611
    130      1      O           0.09271587     0.01388235     0.06008298
    131      2      H           0.00939726     0.09361790     0.03512004
    132      2      H          -0.07376731    -0.03095371    -0.01533507
    133      1      O           0.06186242     0.05925928    -0.03977516
    134      2      H          -0.06470534     0.04798480    -0.02177313
    135      2      H          -0.03742401    -0.09535658     0.02831692
    136      1      O          -0.06585318    -0.07353292     0.10985441
    137      2      H           0.02133373     0.09018462     0.00795762
    138      2      H           0.04622005    -0.04741625    -0.06995534
    139      1      O          -0.05995506    -0.10146100     0.08142317
    140      2      H           0.03371796     0.06379960    -0.08886360
    141      2      H           0.03896944    -0.02339523     0.07663074
    142      1      O           0.07657507     0.01621159    -0.00759390
    143      2      H          -0.04795824     0.04434728    -0.03672383
    144      2      H          -0.05939139    -0.07603722     0.05182251
    145      1      O           0.02640845     0.00665594     0.10502972
    146      2      H           0.03338816     0.00256178    -0.04317346
    147      2      H          -0.04119867    -0.08080150     0.00395972
    148      1      O          -0.04234471    -0.10854332    -0.12679126
    149      2      H          -0.03911629     0.07522073     0.02615408
    150      2      H           0.05612895     0.00517248     0.00894633
    151      1      O          -0.04297484     0.12690841    -0.10466847
    152      2      H          -0.00656901    -0.02703997     0.05041808
    153      2      H           0.02359802    -0.06815262     0.00112769
    154      1      O           0.02992069    -0.12310008    -0.07537376
    155      2      H           0.04633499     0.08646721    -0.03809357
    156      2      H          -0.03774849    -0.03388264     0.05055834
    157      1      O           0.05660509     0.03880683     0.10142674
    158      2      H          -0.07243366     0.03303669     0.02288714
    159      2      H           0.01410108    -0.08728265    -0.01330678
    160      1      O           0.01751453     0.02182929     0.00824858
    161      2      H          -0.02249659    -0.09797089    -0.05516135
    162      2      H           0.01337507    -0.00824156     0.04839789
    163      1      O          -0.01187945     0.14920827    -0.11268849
    164      2      H           0.09329305    -0.04551380     0.02999114
    165      2      H          -0.07258972    -0.04568012     0.02574599
    166      1      O          -0.07058978     0.10960224    -0.12833516
    167      2      H           0.01441669     0.03254570     0.04239054
    168      2      H           0.04227126    -0.05688427    -0.01891996
    169      1      O          -0.04595482     0.11281400    -0.06187462
    170      2      H          -0.05257842    -0.09204902     0.01596551
    171      2      H           0.04908727    -0.03382198     0.02377473
    172      1      O           0.04033242    -0.14805558     0.02728608
    173      2      H          -0.07337983     0.05098103    -0.03231183
    174      2      H           0.07620008     0.09957165     0.04500875
    175      1      O           0.06061591     0.03870632     0.09844991
    176      2      H          -0.03668854     0.02224815    -0.05398867
    177      2      H          -0.01375312    -0.05217135    -0.01082018
    178      1      O           0.07938909     0.04933646    -0.03724767
    179      2      H          -0.01247598    -0.02547043     0.01758351
    180      2      H          -0.06116225     0.04815613     0.01173753
    181      1      O          -0.04028620    -0.14430529    -0.02952911
    182      2      H          -0.04646500     0.09187232    -0.04766248
    183      2      H           0.10129002     0.00403532     0.00001010
    184      1      O           0.01397051     0.06700684     0.14580467
    185      2      H           0.00786007     0.07927447    -0.02440094
    186      2      H          -0.01633369    -0.09423288    -0.06946819
    187      1      O          -0.11150969    -0.04539183     0.07450044
    188      2      H           0.03886633    -0.05073871     0.05597623
    189      2      H           0.04531808     0.00240201    -0.05002373
    190      1      O           0.08546120     0.04968551    -0.15597543
    191      2      H          -0.05253345    -0.04396340     0.03783657
    192      2      H          -0.00013689     0.07512441     0.08408729
 SUM OF ATOMIC FORCES           0.17792133     0.38910508    -0.72758010     0.84405661

 -------------------------------------------------------------------------------
 -                                                                             -
 -                                DBCSR STATISTICS                             -
 -                                                                             -
 -------------------------------------------------------------------------------
 COUNTER                                    TOTAL       BLAS       SMM       ACC
 flops     5 x     5 x   256           3698688000       0.0%    100.0%      0.0%
 flops     5 x    13 x   256           4387568640       0.0%    100.0%      0.0%
 flops    13 x     5 x   256           4648017920       0.0%    100.0%      0.0%
 flops    13 x    13 x   256           6537276928       0.0%    100.0%      0.0%
 flops inhomo. stacks                           0       0.0%      0.0%      0.0%
 flops total                        19.271551E+09       0.0%    100.0%      0.0%
 flops max/rank                     19.271551E+09       0.0%    100.0%      0.0%
 matmuls inhomo. stacks                         0       0.0%      0.0%      0.0%
 matmuls total                             636013       0.0%    100.0%      0.0%
 number of processed stacks                 42140       0.0%    100.0%      0.0%
 average stack size                                     0.0      15.1       0.0
 marketing flops                   333.927416E+09
 -------------------------------------------------------------------------------
 # multiplications                            301
 max memory usage/rank              30.525710E+09
 # max total images/rank                        1
 # max 3D layers                                1
 # MPI messages exchanged                       0
 MPI messages size (bytes):
  total size                         0.000000E+00
  min size                           0.000000E+00
  max size                           0.000000E+00
  average size                       0.000000E+00
 MPI breakdown and total messages size (bytes):
             size <=      128                   0                        0
       128 < size <=     8192                   0                        0
      8192 < size <=    32768                   0                        0
     32768 < size <=   131072                   0                        0
    131072 < size <=  4194304                   0                        0
   4194304 < size <= 16777216                   0                        0
  16777216 < size                               0                        0
 -------------------------------------------------------------------------------

 MEMORY| Estimated peak process memory [MiB]                               29106

 -------------------------------------------------------------------------------
 -                                                                             -
 -                           R E F E R E N C E S                               -
 -                                                                             -
 -------------------------------------------------------------------------------
 
 CP2K version 7.1, the CP2K developers group (2019).
 CP2K is freely available from https://www.cp2k.org/ .

 Schuett, Ole; Messmer, Peter; Hutter, Juerg; VandeVondele, Joost. 
 Electronic Structure Calculations on Graphics Processing Units, John
 Wiley & Sons, Ltd, 173-190 (2016). 
 GPU-Accelerated Sparse Matrix-Matrix Multiplication for
 Linear Scaling Density Functional Theory.
 https://dx.doi.org/10.1002/9781118670712.ch8

 Borstnik, U; VandeVondele, J; Weber, V; Hutter, J. 
 PARALLEL COMPUTING, 40 (5-6), 47-58 (2014). 
 Sparse matrix multiplication: The distributed block-compressed sparse
 row library.
 https://dx.doi.org/10.1016/j.parco.2014.03.012

 Hutter, J; Iannuzzi, M; Schiffmann, F; VandeVondele, J. 
 WIREs Comput Mol Sci., 4 (1), 15-25 (2014). 
 CP2K: atomistic simulations of condensed matter systems.
 https://dx.doi.org/10.1002/wcms.1159

 Krack, M. 
 THEORETICAL CHEMISTRY ACCOUNTS, 114 (1-3), 145-152 (2005). 
 Pseudopotentials for H to Kr optimized for gradient-corrected
 exchange-correlation functionals.
 https://dx.doi.org/10.1007/s00214-005-0655-y

 VandeVondele, J; Krack, M; Mohamed, F; Parrinello, M; Chassaing, T;
 Hutter, J. COMPUTER PHYSICS COMMUNICATIONS, 167 (2), 103-128 (2005). 
 QUICKSTEP: Fast and accurate density functional calculations using a
 mixed Gaussian and plane waves approach.
 https://dx.doi.org/10.1016/j.cpc.2004.12.014

 Frigo, M; Johnson, SG. 
 PROCEEDINGS OF THE IEEE, 93 (2), 216-231 (2005). 
 The design and implementation of FFTW3.
 https://dx.doi.org/10.1109/JPROC.2004.840301

 Hartwigsen, C; Goedecker, S; Hutter, J. 
 PHYSICAL REVIEW B, 58 (7), 3641-3662 (1998). 
 Relativistic separable dual-space Gaussian pseudopotentials from H to Rn.
 https://dx.doi.org/10.1103/PhysRevB.58.3641

 Lippert, G; Hutter, J; Parrinello, M. 
 MOLECULAR PHYSICS, 92 (3), 477-487 (1997). 
 A hybrid Gaussian and plane wave density functional scheme.
 https://dx.doi.org/10.1080/002689797170220

 Goedecker, S; Teter, M; Hutter, J. 
 PHYSICAL REVIEW B, 54 (3), 1703-1710 (1996). 
 Separable dual-space Gaussian pseudopotentials.
 https://dx.doi.org/10.1103/PhysRevB.54.1703


 -------------------------------------------------------------------------------
 -                                                                             -
 -                                T I M I N G                                  -
 -                                                                             -
 -------------------------------------------------------------------------------
 SUBROUTINE                       CALLS  ASD         SELF TIME        TOTAL TIME
                                MAXIMUM       AVERAGE  MAXIMUM  AVERAGE  MAXIMUM
 CP2K                                 1  1.0    1.130    1.130 7072.667 7072.667
 qs_forces                            1  2.0    0.000    0.000 7061.477 7061.477
 qs_energies                          1  3.0    0.000    0.000 7057.649 7057.649
 scf_env_do_scf                       1  4.0    0.001    0.001 7046.267 7046.267
 scf_env_do_scf_inner_loop          300  5.0    0.050    0.050 7046.266 7046.266
 gspace_mixing                      299  6.0   42.329   42.329 2960.989 2960.989
 broyden_mixing                     299  7.0 2678.629 2678.629 2678.633 2678.633
 qs_scf_new_mos                     300  6.0    0.010    0.010 1960.987 1960.987
 eigensolver                        300  7.0    0.037    0.037 1927.085 1927.085
 cp_fm_syevd                        300  8.0 1277.661 1277.661 1278.805 1278.805
 pw_transfer                       3912  9.9    0.379    0.379 1128.917 1128.917
 fft_wrap_pw1pw2                   3310 10.9    0.052    0.052 1102.489 1102.489
 rebuild_ks_matrix                  301  7.0    0.001    0.001 1100.215 1100.215
 qs_ks_build_kohn_sham_matrix       301  8.0    0.086    0.086 1100.214 1100.214
 qs_ks_update_qs_env                300  6.0    0.004    0.004 1096.771 1096.771
 qs_rho_update_rho                  301  6.0    0.003    0.003 1029.134 1029.134
 calculate_rho_elec                 301  7.0  503.619  503.619 1029.132 1029.132
 fft_wrap_pw1pw2_70                1504 11.2   87.479   87.479 1012.547 1012.547
 cp_fm_cholesky_restore             900  8.0  647.152  647.152  647.152  647.152
 fft3d_s                           3311 12.9  518.939  518.939  518.982  518.982
 density_rs2pw                      301  8.0    0.031    0.031  517.813  517.813
 pw_scatter_s                      1804 13.2  410.398  410.398  410.398  410.398
 pw_poisson_solve                   301  9.0  335.883  335.883  362.285  362.285
 sum_up_and_integrate               301  9.0   18.285   18.285  289.955  289.955
 integrate_v_rspace                 301 10.0    7.740    7.740  271.669  271.669
 potential_pw2rs                    301 11.0    2.516    2.516  262.147  262.147
 qs_vxc_create                      301  9.0    0.008    0.008  162.404  162.404
 xc_vxc_pw_create                   301 10.0   42.317   42.317  162.397  162.397
 -------------------------------------------------------------------------------

 The number of warnings for this run is : 1
 
 -------------------------------------------------------------------------------
  **** **** ******  **  PROGRAM ENDED AT                 2020-05-27 19:37:52.731
 ***** ** ***  *** **   PROGRAM RAN ON                                   gnode44
 **    ****   ******    PROGRAM RAN BY                               mayank.modi
 ***** **    ** ** **   PROGRAM PROCESS ID                                  1456
  **** **  *******  **  PROGRAM STOPPED IN /home/mayank.modi/ab-initio-thermodyn
                                           amics-of-water/mayank/cp2k_energy_cal
                                           culations
