 DBCSR| CPU Multiplication driver                                           XSMM
 DBCSR| Multrec recursion limit                                              512
 DBCSR| Multiplication stack size                                           1000
 DBCSR| Maximum elements for images                                    UNLIMITED
 DBCSR| Multiplicative factor virtual images                                   1
 DBCSR| Use multiplication densification                                       T
 DBCSR| Multiplication size stacks                                             3


  **** **** ******  **  PROGRAM STARTED AT               2020-05-27 15:42:48.143
 ***** ** ***  *** **   PROGRAM STARTED ON                               gnode44
 **    ****   ******    PROGRAM STARTED BY                           mayank.modi
 ***** **    ** ** **   PROGRAM PROCESS ID                                 40655
  **** **  *******  **  PROGRAM STARTED IN /home/mayank.modi/ab-initio-thermodyn
                                           amics-of-water/mayank/cp2k_energy_cal
                                           culations

 CP2K| version string:                                          CP2K version 7.1
 CP2K| source code revision number:                                  git:e635599
 CP2K| cp2kflags: omp libint fftw3 libxc xsmm spglib                            
 CP2K| is freely available from                            https://www.cp2k.org/
 CP2K| Program compiled at                          Mon Dec 23 19:23:12 CET 2019
 CP2K| Program compiled on                                                pc9404
 CP2K| Program compiled for                                Linux-x86-64-gfortran
 CP2K| Data directory path                                        /opt/cp2k/data
 CP2K| Input file name                                 input_training/input12.in

 GLOBAL| Force Environment number                                              1
 GLOBAL| Basis set file name                                           BASIS_SET
 GLOBAL| Potential file name                                      GTH_POTENTIALS
 GLOBAL| MM Potential file name                                     MM_POTENTIAL
 GLOBAL| Coordinate file name                                      __STD_INPUT__
 GLOBAL| Method name                                                        CP2K
 GLOBAL| Project name                                                   H2O_bulk
 GLOBAL| Preferred FFT library                                             FFTW3
 GLOBAL| Preferred diagonalization lib.                                       SL
 GLOBAL| Run type                                                   ENERGY_FORCE
 GLOBAL| All-to-all communication in single precision                          F
 GLOBAL| FFTs using library dependent lengths                                  F
 GLOBAL| Global print level                                                  LOW
 GLOBAL| MPI I/O enabled                                                       T
 GLOBAL| Total number of message passing processes                             1
 GLOBAL| Number of threads for this process                                   36
 GLOBAL| This output is from process                                           0
 GLOBAL| CPU model name                Intel(R) Xeon(R) CPU E5-2640 v4 @ 2.40GHz
 GLOBAL| CPUID                                                              1002
 GLOBAL| Compiled for CPUID                                                    0

 MEMORY| system memory details [Kb]
 MEMORY|                        rank 0           min           max       average
 MEMORY| MemTotal            131893056     131893056     131893056     131893056
 MEMORY| MemFree             119357640     119357640     119357640     119357640
 MEMORY| Buffers               2108176       2108176       2108176       2108176
 MEMORY| Cached                2946120       2946120       2946120       2946120
 MEMORY| Slab                  3305836       3305836       3305836       3305836
 MEMORY| SReclaimable          3098076       3098076       3098076       3098076
 MEMORY| MemLikelyFree       127510012     127510012     127510012     127510012


 GENERATE|  Preliminary Number of Bonds generated:                             0
 GENERATE|  Achieved consistency in connectivity generation.

 *******************************************************************************
 *******************************************************************************
 **                                                                           **
 **     #####                         ##              ##                      **
 **    ##   ##            ##          ##              ##                      **
 **   ##     ##                       ##            ######                    **
 **   ##     ##  ##   ##  ##   #####  ##  ##   ####   ##    #####    #####    **
 **   ##     ##  ##   ##  ##  ##      ## ##   ##      ##   ##   ##  ##   ##   **
 **   ##  ## ##  ##   ##  ##  ##      ####     ###    ##   ######   ######    **
 **    ##  ###   ##   ##  ##  ##      ## ##      ##   ##   ##       ##        **
 **     #######   #####   ##   #####  ##  ##  ####    ##    #####   ##        **
 **           ##                                                    ##        **
 **                                                                           **
 **                                                ... make the atoms dance   **
 **                                                                           **
 **            Copyright (C) by CP2K developers group (2000 - 2019)           **
 **                                                                           **
 *******************************************************************************


 TOTAL NUMBERS AND MAXIMUM NUMBERS

  Total number of            - Atomic kinds:                                   2
                             - Atoms:                                        192
                             - Shell sets:                                   384
                             - Shells:                                       704
                             - Primitive Cartesian functions:                960
                             - Cartesian basis functions:                   1536
                             - Spherical basis functions:                   1472

  Maximum angular momentum of- Orbital basis functions:                        2
                             - Local part of the GTH pseudopotential:          2
                             - Non-local part of the GTH pseudopotential:      0


 SCF PARAMETERS         Density guess:                                    ATOMIC
                        --------------------------------------------------------
                        max_scf:                                             300
                        max_scf_history:                                       0
                        max_diis:                                              4
                        --------------------------------------------------------
                        eps_scf:                                        1.00E-07
                        eps_scf_history:                                0.00E+00
                        eps_diis:                                       1.00E-01
                        eps_eigval:                                     1.00E-05
                        --------------------------------------------------------
                        level_shift [a.u.]:                                 0.00
                        --------------------------------------------------------
                        Mixing method:                            BROYDEN_MIXING
                                                charge density mixing in g-space
                        --------------------------------------------------------
                        No outer SCF

 Number of electrons:                                                        512
 Number of occupied orbitals:                                                256
 Number of molecular orbitals:                                               256

 Number of orbital functions:                                               1472
 Number of independent orbital functions:                                   1472

 Extrapolation method: initial_guess


 SCF WAVEFUNCTION OPTIMIZATION

  Step     Update method      Time    Convergence         Total energy    Change
  ------------------------------------------------------------------------------
     1 NoMix/Diag. 0.40E+00   10.6     0.68175509     -1063.9677750962 -1.06E+03
     2 Broy./Diag. 0.40E+00   16.3     1.93776111      -992.2654701176  7.17E+01
     3 Broy./Diag. 0.40E+00   18.2     1.94257001     -1276.7241504112 -2.84E+02
     4 Broy./Diag. 0.40E+00   17.9     1.63910603     -1135.6336207427  1.41E+02
     5 Broy./Diag. 0.40E+00   18.0     1.75322420     -1092.9557392842  4.27E+01
     6 Broy./Diag. 0.40E+00   18.6     1.90686525     -1105.7231151191 -1.28E+01
     7 Broy./Diag. 0.40E+00   20.9     1.85726886     -1104.7896250533  9.33E-01
     8 Broy./Diag. 0.40E+00   21.2     1.91312663     -1093.3687535617  1.14E+01
     9 Broy./Diag. 0.40E+00   22.0     1.49699136     -1078.3009122978  1.51E+01
    10 Broy./Diag. 0.40E+00   23.0     1.58881091     -1074.5830803377  3.72E+00
    11 Broy./Diag. 0.40E+00   22.3     1.24298482     -1071.5052138601  3.08E+00
    12 Broy./Diag. 0.40E+00   23.7     0.92971558     -1066.9918044186  4.51E+00
    13 Broy./Diag. 0.40E+00   24.3     1.76358766     -1066.2454832457  7.46E-01
    14 Broy./Diag. 0.40E+00   24.3     1.80784360     -1080.8537292851 -1.46E+01
    15 Broy./Diag. 0.40E+00   23.5     1.80775882     -1084.1694606378 -3.32E+00
    16 Broy./Diag. 0.40E+00   24.1     1.75282329     -1088.2213240868 -4.05E+00
    17 Broy./Diag. 0.40E+00   24.1     1.71775209     -1070.2219671848  1.80E+01
    18 Broy./Diag. 0.40E+00   24.0     1.79096065     -1084.3990245895 -1.42E+01
    19 Broy./Diag. 0.40E+00   24.3     1.77630694     -1082.5715369260  1.83E+00
    20 Broy./Diag. 0.40E+00   22.9     1.71783497     -1077.4393717237  5.13E+00
    21 Broy./Diag. 0.40E+00   24.1     1.73204900     -1072.1848546785  5.25E+00
    22 Broy./Diag. 0.40E+00   24.3     1.75458646     -1079.1241294776 -6.94E+00
    23 Broy./Diag. 0.40E+00   23.3     1.76726462     -1073.1458991488  5.98E+00
    24 Broy./Diag. 0.40E+00   24.7     1.81483399     -1078.3187951808 -5.17E+00
    25 Broy./Diag. 0.40E+00   24.2     1.73762242     -1079.3928517267 -1.07E+00
    26 Broy./Diag. 0.40E+00   24.1     1.78514594     -1079.0359786825  3.57E-01
    27 Broy./Diag. 0.40E+00   24.6     1.15504534     -1077.2273443511  1.81E+00
    28 Broy./Diag. 0.40E+00   24.3     1.35424560     -1073.1263627126  4.10E+00
    29 Broy./Diag. 0.40E+00   24.6     1.72532989     -1074.6507974465 -1.52E+00
    30 Broy./Diag. 0.40E+00   24.9     1.74620023     -1079.4249053025 -4.77E+00
    31 Broy./Diag. 0.40E+00   24.6     0.54777367     -1073.6224674054  5.80E+00
    32 Broy./Diag. 0.40E+00   24.6     1.74273483     -1074.1543777480 -5.32E-01
    33 Broy./Diag. 0.40E+00   24.6     1.74127886     -1078.6019429252 -4.45E+00
    34 Broy./Diag. 0.40E+00   24.8     1.51568022     -1079.3968353948 -7.95E-01
    35 Broy./Diag. 0.40E+00   25.0     1.74049889     -1075.8987936941  3.50E+00
    36 Broy./Diag. 0.40E+00   24.6     1.79835262     -1075.0912609194  8.08E-01
    37 Broy./Diag. 0.40E+00   24.7     1.81197197     -1080.2876446987 -5.20E+00
    38 Broy./Diag. 0.40E+00   24.8     1.90053393     -1074.4092652566  5.88E+00
    39 Broy./Diag. 0.40E+00   24.5     1.38450414     -1073.5621136486  8.47E-01
    40 Broy./Diag. 0.40E+00   24.5     1.29081436     -1071.4313833484  2.13E+00
    41 Broy./Diag. 0.40E+00   24.3     1.32638395     -1076.6950097104 -5.26E+00
    42 Broy./Diag. 0.40E+00   24.4     1.66750707     -1077.1961414046 -5.01E-01
    43 Broy./Diag. 0.40E+00   24.5     1.79342306     -1075.1251135004  2.07E+00
    44 Broy./Diag. 0.40E+00   24.6     1.58074099     -1074.2367617420  8.88E-01
    45 Broy./Diag. 0.40E+00   24.6     1.66431607     -1075.4420776717 -1.21E+00
    46 Broy./Diag. 0.40E+00   24.2     1.43573421     -1074.9557634154  4.86E-01
    47 Broy./Diag. 0.40E+00   25.2     1.46484580     -1076.2961511687 -1.34E+00
    48 Broy./Diag. 0.40E+00   24.9     1.71810629     -1072.7598285344  3.54E+00
    49 Broy./Diag. 0.40E+00   24.5     1.77768557     -1083.1722003932 -1.04E+01
    50 Broy./Diag. 0.40E+00   24.2     1.79563179     -1080.8251363186  2.35E+00
    51 Broy./Diag. 0.40E+00   25.0     1.53327360     -1075.6648126520  5.16E+00
    52 Broy./Diag. 0.40E+00   24.6     1.82210431     -1078.5291325758 -2.86E+00
    53 Broy./Diag. 0.40E+00   23.7     1.79280124     -1076.3526665422  2.18E+00
    54 Broy./Diag. 0.40E+00   24.5     1.59447738     -1074.8187276052  1.53E+00
    55 Broy./Diag. 0.40E+00   24.8     1.58125599     -1077.5212829225 -2.70E+00
    56 Broy./Diag. 0.40E+00   24.8     1.35610508     -1076.0844879335  1.44E+00
    57 Broy./Diag. 0.40E+00   24.4     1.34648411     -1074.7816686812  1.30E+00
    58 Broy./Diag. 0.40E+00   23.6     1.44296968     -1074.8870145117 -1.05E-01
    59 Broy./Diag. 0.40E+00   25.5     1.73988537     -1072.5916374841  2.30E+00
    60 Broy./Diag. 0.40E+00   24.7     1.81474809     -1081.6160207445 -9.02E+00
    61 Broy./Diag. 0.40E+00   25.9     1.82522102     -1079.8993039426  1.72E+00
    62 Broy./Diag. 0.40E+00   25.0     1.73663886     -1074.8773916596  5.02E+00
    63 Broy./Diag. 0.40E+00   24.3     1.77152931     -1076.1732477765 -1.30E+00
    64 Broy./Diag. 0.40E+00   24.8     1.73544219     -1078.7855535138 -2.61E+00
    65 Broy./Diag. 0.40E+00   22.5     1.51328220     -1073.9169490777  4.87E+00
    66 Broy./Diag. 0.40E+00   24.1     1.71234500     -1078.4292586164 -4.51E+00
    67 Broy./Diag. 0.40E+00   24.0     1.50050783     -1075.3038190643  3.13E+00
    68 Broy./Diag. 0.40E+00   23.8     1.20575456     -1074.3939691047  9.10E-01
    69 Broy./Diag. 0.40E+00   24.2     1.42064907     -1076.4188264261 -2.02E+00
    70 Broy./Diag. 0.40E+00   23.2     1.79971077     -1076.7990266486 -3.80E-01
    71 Broy./Diag. 0.40E+00   23.6     1.88151965     -1074.7635814996  2.04E+00
    72 Broy./Diag. 0.40E+00   24.3     1.78347761     -1075.1375380491 -3.74E-01
    73 Broy./Diag. 0.40E+00   24.7     1.79278515     -1078.7073982329 -3.57E+00
    74 Broy./Diag. 0.40E+00   24.4     1.14587159     -1074.5935276802  4.11E+00
    75 Broy./Diag. 0.40E+00   24.2     1.75490584     -1071.8135537948  2.78E+00
    76 Broy./Diag. 0.40E+00   23.0     1.78022896     -1081.4438642186 -9.63E+00
    77 Broy./Diag. 0.40E+00   21.9     1.80395072     -1080.9393787450  5.04E-01
    78 Broy./Diag. 0.40E+00   21.5     1.74168511     -1073.6674131376  7.27E+00
    79 Broy./Diag. 0.40E+00   21.4     1.84537427     -1079.5931924770 -5.93E+00
    80 Broy./Diag. 0.40E+00   22.8     1.83427355     -1074.8714485603  4.72E+00
    81 Broy./Diag. 0.40E+00   23.7     1.90059243     -1073.8349339385  1.04E+00
    82 Broy./Diag. 0.40E+00   23.6     1.49433543     -1074.4887320611 -6.54E-01
    83 Broy./Diag. 0.40E+00   23.3     1.74889813     -1074.1251166194  3.64E-01
    84 Broy./Diag. 0.40E+00   23.1     1.79172587     -1077.1781336024 -3.05E+00
    85 Broy./Diag. 0.40E+00   22.5     1.73557328     -1074.4570548875  2.72E+00
    86 Broy./Diag. 0.40E+00   21.4     1.80558514     -1081.3760463493 -6.92E+00
    87 Broy./Diag. 0.40E+00   21.7     1.84961884     -1073.4455355744  7.93E+00
    88 Broy./Diag. 0.40E+00   21.5     1.76591661     -1075.0462262025 -1.60E+00
    89 Broy./Diag. 0.40E+00   23.4     1.79188067     -1074.8123688032  2.34E-01
    90 Broy./Diag. 0.40E+00   23.4     1.82342925     -1076.2410004260 -1.43E+00
    91 Broy./Diag. 0.40E+00   22.8     1.88474532     -1077.9347757278 -1.69E+00
    92 Broy./Diag. 0.40E+00   22.9     1.59269927     -1076.6225178481  1.31E+00
    93 Broy./Diag. 0.40E+00   22.3     1.74952055     -1075.1108872812  1.51E+00
    94 Broy./Diag. 0.40E+00   23.0     1.81918028     -1074.9574385721  1.53E-01
    95 Broy./Diag. 0.40E+00   23.8     1.71955826     -1072.7490941326  2.21E+00
    96 Broy./Diag. 0.40E+00   23.6     1.71017827     -1079.5994657000 -6.85E+00
    97 Broy./Diag. 0.40E+00   23.6     1.82806121     -1074.2288638413  5.37E+00
    98 Broy./Diag. 0.40E+00   23.8     1.59158121     -1075.4645024780 -1.24E+00
    99 Broy./Diag. 0.40E+00   23.2     1.70446288     -1079.7057289472 -4.24E+00
   100 Broy./Diag. 0.40E+00   22.1     1.73862705     -1071.6164315857  8.09E+00
   101 Broy./Diag. 0.40E+00   23.2     1.76800132     -1081.9145740509 -1.03E+01
   102 Broy./Diag. 0.40E+00   23.5     1.76252804     -1076.4498003758  5.46E+00
   103 Broy./Diag. 0.40E+00   22.1     1.80738085     -1081.6006846347 -5.15E+00
   104 Broy./Diag. 0.40E+00   23.6     1.81796614     -1079.6469412822  1.95E+00
   105 Broy./Diag. 0.40E+00   23.6     1.69123723     -1070.8148889939  8.83E+00
   106 Broy./Diag. 0.40E+00   22.8     1.21796079     -1078.5660108667 -7.75E+00
   107 Broy./Diag. 0.40E+00   23.9     1.77785982     -1077.8248199883  7.41E-01
   108 Broy./Diag. 0.40E+00   24.2     1.48940872     -1080.9571637694 -3.13E+00
   109 Broy./Diag. 0.40E+00   23.6     1.22603550     -1073.0272340043  7.93E+00
   110 Broy./Diag. 0.40E+00   22.4     1.34133517     -1074.0004807245 -9.73E-01
   111 Broy./Diag. 0.40E+00   23.9     1.62046210     -1071.8906895281  2.11E+00
   112 Broy./Diag. 0.40E+00   23.2     1.75816976     -1080.0519481216 -8.16E+00
   113 Broy./Diag. 0.40E+00   22.1     1.72397044     -1075.3463216760  4.71E+00
   114 Broy./Diag. 0.40E+00   23.6     1.73088033     -1077.7654325448 -2.42E+00
   115 Broy./Diag. 0.40E+00   24.5     1.49328541     -1073.6459935940  4.12E+00
   116 Broy./Diag. 0.40E+00   21.5     1.73308133     -1075.8258637804 -2.18E+00
   117 Broy./Diag. 0.40E+00   22.2     1.81756371     -1074.4496891610  1.38E+00
   118 Broy./Diag. 0.40E+00   23.9     1.84279309     -1080.1205214063 -5.67E+00
   119 Broy./Diag. 0.40E+00   24.9     1.43710466     -1071.9893555457  8.13E+00
   120 Broy./Diag. 0.40E+00   23.0     1.53888686     -1075.7895916794 -3.80E+00
   121 Broy./Diag. 0.40E+00   22.4     1.70303733     -1075.6393372803  1.50E-01
   122 Broy./Diag. 0.40E+00   23.1     1.74414007     -1081.1554103791 -5.52E+00
   123 Broy./Diag. 0.40E+00   23.9     1.38793084     -1074.1056326056  7.05E+00
   124 Broy./Diag. 0.40E+00   23.7     1.31879289     -1077.0667935853 -2.96E+00
   125 Broy./Diag. 0.40E+00   22.9     1.42047877     -1073.1998302809  3.87E+00
   126 Broy./Diag. 0.40E+00   23.0     1.74531404     -1076.8965772929 -3.70E+00
   127 Broy./Diag. 0.40E+00   22.3     1.81051487     -1074.8660327657  2.03E+00
   128 Broy./Diag. 0.40E+00   24.8     1.61683967     -1075.2520387433 -3.86E-01
   129 Broy./Diag. 0.40E+00   23.8     1.46676906     -1080.0191783391 -4.77E+00
   130 Broy./Diag. 0.40E+00   24.8     1.51539319     -1075.4870823330  4.53E+00
   131 Broy./Diag. 0.40E+00   23.3     1.53749213     -1080.4359076675 -4.95E+00
   132 Broy./Diag. 0.40E+00   24.0     1.67671448     -1070.5124842790  9.92E+00
   133 Broy./Diag. 0.40E+00   24.7     1.54447016     -1079.2518755397 -8.74E+00
   134 Broy./Diag. 0.40E+00   23.8     1.72506516     -1073.5026386205  5.75E+00
   135 Broy./Diag. 0.40E+00   23.7     1.75440594     -1077.5306632607 -4.03E+00
   136 Broy./Diag. 0.40E+00   23.7     1.53443536     -1075.0048065778  2.53E+00
   137 Broy./Diag. 0.40E+00   24.5     1.47253148     -1074.9660165768  3.88E-02
   138 Broy./Diag. 0.40E+00   22.2     1.08540242     -1072.9253911627  2.04E+00
   139 Broy./Diag. 0.40E+00   21.8     1.71927255     -1078.0486352930 -5.12E+00
   140 Broy./Diag. 0.40E+00   22.7     1.71505809     -1076.1490913564  1.90E+00
   141 Broy./Diag. 0.40E+00   23.2     1.46008926     -1079.1098447162 -2.96E+00
   142 Broy./Diag. 0.40E+00   24.0     1.49116110     -1072.8226430953  6.29E+00
   143 Broy./Diag. 0.40E+00   25.6     1.40085142     -1071.5891836275  1.23E+00
   144 Broy./Diag. 0.40E+00   23.6     1.73086144     -1079.2808382550 -7.69E+00
   145 Broy./Diag. 0.40E+00   23.1     1.76696955     -1076.7258627595  2.55E+00
   146 Broy./Diag. 0.40E+00   23.6     1.76757279     -1077.3049075460 -5.79E-01
   147 Broy./Diag. 0.40E+00   23.6     1.70968605     -1076.4525909444  8.52E-01
   148 Broy./Diag. 0.40E+00   25.5     1.81478878     -1073.5377432488  2.91E+00
   149 Broy./Diag. 0.40E+00   23.4     1.83749354     -1077.4145986593 -3.88E+00
   150 Broy./Diag. 0.40E+00   22.9     1.75436381     -1073.1982656879  4.22E+00
   151 Broy./Diag. 0.40E+00   23.1     1.51452314     -1075.1664231276 -1.97E+00
   152 Broy./Diag. 0.40E+00   22.0     1.38553929     -1072.9140128003  2.25E+00
   153 Broy./Diag. 0.40E+00   21.8     1.46718523     -1074.8087103609 -1.89E+00
   154 Broy./Diag. 0.40E+00   22.7     1.51352257     -1078.8248994515 -4.02E+00
   155 Broy./Diag. 0.40E+00   23.5     1.13299069     -1073.1064400518  5.72E+00
   156 Broy./Diag. 0.40E+00   23.8     1.66452993     -1075.0627944567 -1.96E+00
   157 Broy./Diag. 0.40E+00   24.0     1.85679955     -1076.9049320738 -1.84E+00
   158 Broy./Diag. 0.40E+00   23.0     1.78797917     -1078.4741848588 -1.57E+00
   159 Broy./Diag. 0.40E+00   21.9     1.88766337     -1075.6503789435  2.82E+00
   160 Broy./Diag. 0.40E+00   21.9     1.81262816     -1073.5600523768  2.09E+00
   161 Broy./Diag. 0.40E+00   23.6     1.84536651     -1072.8518294002  7.08E-01
   162 Broy./Diag. 0.40E+00   23.5     1.46310965     -1072.6575695241  1.94E-01
   163 Broy./Diag. 0.40E+00   23.7     1.61680885     -1077.3983901149 -4.74E+00
   164 Broy./Diag. 0.40E+00   22.2     1.46526545     -1077.6361968465 -2.38E-01
   165 Broy./Diag. 0.40E+00   23.4     1.40683285     -1074.2565277027  3.38E+00
   166 Broy./Diag. 0.40E+00   23.6     1.35791475     -1075.7770132273 -1.52E+00
   167 Broy./Diag. 0.40E+00   23.7     1.75399453     -1074.6960905658  1.08E+00
   168 Broy./Diag. 0.40E+00   23.8     1.79293103     -1077.6241946545 -2.93E+00
   169 Broy./Diag. 0.40E+00   22.0     1.85089381     -1076.0621498823  1.56E+00
   170 Broy./Diag. 0.40E+00   23.2     1.68666450     -1073.7451617748  2.32E+00
   171 Broy./Diag. 0.40E+00   23.0     1.35413914     -1073.9180379955 -1.73E-01
   172 Broy./Diag. 0.40E+00   21.7     1.68192968     -1073.8083640817  1.10E-01
   173 Broy./Diag. 0.40E+00   22.3     1.81530155     -1076.3574079598 -2.55E+00
   174 Broy./Diag. 0.40E+00   23.0     1.57519444     -1076.8148761849 -4.57E-01
   175 Broy./Diag. 0.40E+00   23.3     1.73731421     -1073.4891134754  3.33E+00
   176 Broy./Diag. 0.40E+00   24.1     1.81947050     -1077.7581237422 -4.27E+00
   177 Broy./Diag. 0.40E+00   23.9     1.74149180     -1073.0948742449  4.66E+00
   178 Broy./Diag. 0.40E+00   22.2     1.82522800     -1082.2372668500 -9.14E+00
   179 Broy./Diag. 0.40E+00   23.5     1.85678247     -1079.3885583197  2.85E+00
   180 Broy./Diag. 0.40E+00   22.8     1.82544525     -1074.7574825950  4.63E+00
   181 Broy./Diag. 0.40E+00   23.5     1.86522818     -1076.8577581319 -2.10E+00
   182 Broy./Diag. 0.40E+00   22.6     1.73708712     -1074.3990895450  2.46E+00
   183 Broy./Diag. 0.40E+00   23.0     1.80081308     -1074.6295098079 -2.30E-01
   184 Broy./Diag. 0.40E+00   24.0     1.54849091     -1075.5044870743 -8.75E-01
   185 Broy./Diag. 0.40E+00   23.8     1.76353742     -1077.4663215849 -1.96E+00
   186 Broy./Diag. 0.40E+00   24.9     1.83612483     -1073.7966819829  3.67E+00
   187 Broy./Diag. 0.40E+00   23.0     1.22451149     -1075.0252491006 -1.23E+00
   188 Broy./Diag. 0.40E+00   24.3     1.81146791     -1077.2943357465 -2.27E+00
   189 Broy./Diag. 0.40E+00   23.2     1.85499566     -1076.4747164857  8.20E-01
   190 Broy./Diag. 0.40E+00   21.3     1.63582723     -1074.8367139438  1.64E+00
   191 Broy./Diag. 0.40E+00   23.5     1.71731680     -1077.0401784238 -2.20E+00
   192 Broy./Diag. 0.40E+00   22.8     1.74780720     -1076.0025313709  1.04E+00
   193 Broy./Diag. 0.40E+00   22.5     1.51625683     -1075.8779396456  1.25E-01
   194 Broy./Diag. 0.40E+00   22.6     1.43937291     -1073.7348295726  2.14E+00
   195 Broy./Diag. 0.40E+00   20.8     1.72310637     -1075.0793123347 -1.34E+00
   196 Broy./Diag. 0.40E+00   23.2     1.73156655     -1075.4167102432 -3.37E-01
   197 Broy./Diag. 0.40E+00   23.4     1.52016987     -1075.4699301021 -5.32E-02
   198 Broy./Diag. 0.40E+00   23.4     1.81707868     -1075.8141745287 -3.44E-01
   199 Broy./Diag. 0.40E+00   23.3     1.84613149     -1077.9240823775 -2.11E+00
   200 Broy./Diag. 0.40E+00   23.5     1.75141397     -1073.4313943518  4.49E+00
   201 Broy./Diag. 0.40E+00   23.7     1.73633039     -1084.9522969171 -1.15E+01
   202 Broy./Diag. 0.40E+00   24.0     1.73362624     -1076.8767979605  8.08E+00
   203 Broy./Diag. 0.40E+00   23.5     1.79970457     -1074.7356958095  2.14E+00
   204 Broy./Diag. 0.40E+00   22.9     1.84761010     -1076.5291941190 -1.79E+00
   205 Broy./Diag. 0.40E+00   21.0     1.85884478     -1076.1375181622  3.92E-01
   206 Broy./Diag. 0.40E+00   23.6     1.46383017     -1071.9932087444  4.14E+00
   207 Broy./Diag. 0.40E+00   25.3     1.55791308     -1075.0990642222 -3.11E+00
   208 Broy./Diag. 0.40E+00   22.0     1.82502872     -1072.1857826162  2.91E+00
   209 Broy./Diag. 0.40E+00   24.8     1.83666055     -1077.8082567276 -5.62E+00
   210 Broy./Diag. 0.40E+00   24.9     1.72925836     -1073.7352911468  4.07E+00
   211 Broy./Diag. 0.40E+00   21.4     1.73477721     -1082.4788073097 -8.74E+00
   212 Broy./Diag. 0.40E+00   22.0     1.73557769     -1076.7143257142  5.76E+00
   213 Broy./Diag. 0.40E+00   20.9     1.79811341     -1076.0162215320  6.98E-01
   214 Broy./Diag. 0.40E+00   23.2     1.61392285     -1077.3519366660 -1.34E+00
   215 Broy./Diag. 0.40E+00   23.3     1.63881093     -1078.4696883717 -1.12E+00
   216 Broy./Diag. 0.40E+00   23.5     1.50234794     -1074.3377310133  4.13E+00
   217 Broy./Diag. 0.40E+00   22.7     1.42058992     -1077.4027150285 -3.06E+00
   218 Broy./Diag. 0.40E+00   23.6     1.80909004     -1074.4058304836  3.00E+00
   219 Broy./Diag. 0.40E+00   23.5     1.85394402     -1076.3887007710 -1.98E+00
   220 Broy./Diag. 0.40E+00   23.9     1.73388557     -1071.1494410024  5.24E+00
   221 Broy./Diag. 0.40E+00   23.8     1.75573108     -1081.3051931924 -1.02E+01
   222 Broy./Diag. 0.40E+00   23.4     1.66999063     -1075.4393078957  5.87E+00
   223 Broy./Diag. 0.40E+00   23.9     1.76668048     -1076.6973030394 -1.26E+00
   224 Broy./Diag. 0.40E+00   22.6     1.73488013     -1077.1534887602 -4.56E-01
   225 Broy./Diag. 0.40E+00   23.8     1.66419905     -1070.9648414705  6.19E+00
   226 Broy./Diag. 0.40E+00   22.7     1.57238052     -1079.5124762359 -8.55E+00
   227 Broy./Diag. 0.40E+00   23.5     1.27286255     -1074.7073302100  4.81E+00
   228 Broy./Diag. 0.40E+00   23.0     1.81484417     -1076.5948121413 -1.89E+00
   229 Broy./Diag. 0.40E+00   23.6     1.85034188     -1076.8116666029 -2.17E-01
   230 Broy./Diag. 0.40E+00   23.6     1.73390870     -1072.7879917622  4.02E+00
   231 Broy./Diag. 0.40E+00   24.3     1.77270755     -1076.8919164914 -4.10E+00
   232 Broy./Diag. 0.40E+00   22.8     1.49535261     -1075.0147598317  1.88E+00
   233 Broy./Diag. 0.40E+00   23.6     1.43867764     -1076.0875346679 -1.07E+00
   234 Broy./Diag. 0.40E+00   23.5     1.58945184     -1074.1721584437  1.92E+00
   235 Broy./Diag. 0.40E+00   22.8     1.72690812     -1073.8578808746  3.14E-01
   236 Broy./Diag. 0.40E+00   21.9     1.71201600     -1078.3040096441 -4.45E+00
   237 Broy./Diag. 0.40E+00   22.7     1.46429035     -1073.8055309869  4.50E+00
   238 Broy./Diag. 0.40E+00   23.7     1.72207099     -1073.1281902264  6.77E-01
   239 Broy./Diag. 0.40E+00   24.7     1.73321364     -1081.0284804226 -7.90E+00
   240 Broy./Diag. 0.40E+00   24.6     1.41209861     -1077.4126774992  3.62E+00
   241 Broy./Diag. 0.40E+00   23.0     1.54504344     -1076.0646529676  1.35E+00
   242 Broy./Diag. 0.40E+00   22.4     1.73426609     -1075.2887353210  7.76E-01
   243 Broy./Diag. 0.40E+00   23.1     1.79411347     -1076.2628986172 -9.74E-01
   244 Broy./Diag. 0.40E+00   23.7     1.86160710     -1077.9719263623 -1.71E+00
   245 Broy./Diag. 0.40E+00   23.5     1.81460453     -1075.5548829456  2.42E+00
   246 Broy./Diag. 0.40E+00   23.7     1.89796865     -1073.2387017756  2.32E+00
   247 Broy./Diag. 0.40E+00   23.5     1.87150288     -1077.6448714910 -4.41E+00
   248 Broy./Diag. 0.40E+00   23.3     1.88992903     -1072.2344599054  5.41E+00
   249 Broy./Diag. 0.40E+00   24.3     1.74612819     -1073.2198635975 -9.85E-01
   250 Broy./Diag. 0.40E+00   23.3     1.73878129     -1077.2912208847 -4.07E+00
   251 Broy./Diag. 0.40E+00   23.5     1.46879143     -1074.7928271331  2.50E+00
   252 Broy./Diag. 0.40E+00   23.6     1.73748632     -1077.6320499468 -2.84E+00
   253 Broy./Diag. 0.40E+00   23.4     1.81020230     -1074.9340843304  2.70E+00
   254 Broy./Diag. 0.40E+00   22.7     1.79050643     -1077.0282994994 -2.09E+00
   255 Broy./Diag. 0.40E+00   24.0     1.71303912     -1078.0927474459 -1.06E+00
   256 Broy./Diag. 0.40E+00   23.8     1.80177315     -1076.8298748550  1.26E+00
   257 Broy./Diag. 0.40E+00   24.6     1.82772575     -1072.5706401395  4.26E+00
   258 Broy./Diag. 0.40E+00   24.0     1.86692386     -1078.2943445492 -5.72E+00
   259 Broy./Diag. 0.40E+00   23.9     1.66251792     -1072.8714702915  5.42E+00
   260 Broy./Diag. 0.40E+00   23.4     1.74430458     -1072.1403396464  7.31E-01
   261 Broy./Diag. 0.40E+00   22.3     1.76025926     -1081.4813470040 -9.34E+00
   262 Broy./Diag. 0.40E+00   21.6     1.55213180     -1077.5722181345  3.91E+00
   263 Broy./Diag. 0.40E+00   23.3     1.38526634     -1074.7797402659  2.79E+00
   264 Broy./Diag. 0.40E+00   22.9     1.19226220     -1074.8986304934 -1.19E-01
   265 Broy./Diag. 0.40E+00   22.5     1.45752241     -1077.0302967508 -2.13E+00
   266 Broy./Diag. 0.40E+00   24.3     1.74956439     -1076.4300100482  6.00E-01
   267 Broy./Diag. 0.40E+00   24.3     1.81523327     -1075.6657847795  7.64E-01
   268 Broy./Diag. 0.40E+00   23.4     1.87400353     -1080.1293423094 -4.46E+00
   269 Broy./Diag. 0.40E+00   22.3     1.87273360     -1071.6129518933  8.52E+00
   270 Broy./Diag. 0.40E+00   24.6     1.75375624     -1069.7551441417  1.86E+00
   271 Broy./Diag. 0.40E+00   24.2     1.77284973     -1083.6890510967 -1.39E+01
   272 Broy./Diag. 0.40E+00   23.5     1.58121576     -1079.7433743130  3.95E+00
   273 Broy./Diag. 0.40E+00   22.0     1.70446301     -1073.9662115532  5.78E+00
   274 Broy./Diag. 0.40E+00   22.8     1.32087558     -1072.1230962918  1.84E+00
   275 Broy./Diag. 0.40E+00   23.6     1.71984572     -1075.3856294228 -3.26E+00
   276 Broy./Diag. 0.40E+00   21.2     1.80317593     -1072.4202893230  2.97E+00
   277 Broy./Diag. 0.40E+00   22.7     1.81951105     -1075.8619091025 -3.44E+00
   278 Broy./Diag. 0.40E+00   24.0     1.88621749     -1080.7554874969 -4.89E+00
   279 Broy./Diag. 0.40E+00   23.3     1.83290035     -1075.4724533886  5.28E+00
   280 Broy./Diag. 0.40E+00   23.4     1.79982975     -1076.2225212347 -7.50E-01
   281 Broy./Diag. 0.40E+00   23.7     1.48967750     -1070.7371982424  5.49E+00
   282 Broy./Diag. 0.40E+00   23.4     1.58113021     -1080.8304983736 -1.01E+01
   283 Broy./Diag. 0.40E+00   24.3     1.57896559     -1076.1646016309  4.67E+00
   284 Broy./Diag. 0.40E+00   22.9     1.53854094     -1076.1213064685  4.33E-02
   285 Broy./Diag. 0.40E+00   23.3     1.74310857     -1073.9336378736  2.19E+00
   286 Broy./Diag. 0.40E+00   23.6     1.82166551     -1074.9855799509 -1.05E+00
   287 Broy./Diag. 0.40E+00   23.2     1.81864410     -1075.3402273891 -3.55E-01
   288 Broy./Diag. 0.40E+00   23.3     1.56050266     -1073.9142848420  1.43E+00
   289 Broy./Diag. 0.40E+00   23.5     1.73529027     -1074.6634809109 -7.49E-01
   290 Broy./Diag. 0.40E+00   23.1     1.76663252     -1074.9078543377 -2.44E-01
   291 Broy./Diag. 0.40E+00   22.8     1.41887683     -1075.4249848402 -5.17E-01
   292 Broy./Diag. 0.40E+00   24.4     1.52305751     -1079.1304637995 -3.71E+00
   293 Broy./Diag. 0.40E+00   24.6     1.56366182     -1075.5246703004  3.61E+00
   294 Broy./Diag. 0.40E+00   24.3     1.22169821     -1074.5473371285  9.77E-01
   295 Broy./Diag. 0.40E+00   23.4     1.74131336     -1074.0541151447  4.93E-01
   296 Broy./Diag. 0.40E+00   23.5     1.83055730     -1078.6626193126 -4.61E+00
   297 Broy./Diag. 0.40E+00   25.0     1.88537784     -1072.6137593146  6.05E+00
   298 Broy./Diag. 0.40E+00   23.8     1.49035560     -1073.6285493694 -1.01E+00
   299 Broy./Diag. 0.40E+00   23.1     1.73977645     -1076.0412024031 -2.41E+00
   300 Broy./Diag. 0.40E+00   23.5     1.78646948     -1080.4700159043 -4.43E+00

  Leaving inner SCF loop after reaching   300 steps.


  Electronic density on regular grids:       -512.0005477945       -0.0005477945
  Core density on regular grids:              511.9999845979       -0.0000154021
  Total charge density on r-space grids:       -0.0005631966
  Total charge density g-space grids:          -0.0005631966

  Overlap energy of the core charge distribution:               0.00000000000000
  Self energy of the core charge distribution:              -2838.21791979120962
  Core Hamiltonian energy:                                    755.45940932875135
  Hartree energy:                                            1240.58119246775482
  Exchange-correlation energy:                               -238.29269790954686

  Total energy:                                             -1080.47001590425020

 *** WARNING in qs_scf.F:542 :: SCF run NOT converged ***


 ENERGY| Total FORCE_EVAL ( QS ) energy (a.u.):            -1072.030275053132982


 ATOMIC FORCES in [a.u.]

 # Atom   Kind   Element          X              Y              Z
      1      1      O          -0.09775415     0.04442599    -0.17293705
      2      2      H           0.03143273     0.04593700     0.04655242
      3      2      H           0.04766059    -0.05874834    -0.00255545
      4      1      O          -0.03553469     0.03731599     0.00730330
      5      2      H           0.09701969     0.00588670     0.01430192
      6      2      H          -0.04486900    -0.06251442     0.06642762
      7      1      O           0.04116743     0.00020170    -0.03507006
      8      2      H          -0.00878727     0.03001709    -0.10196112
      9      2      H          -0.05778562     0.02293993     0.01579267
     10      1      O          -0.04099086     0.10986635    -0.14937802
     11      2      H           0.09540678    -0.05949344     0.11395139
     12      2      H          -0.06292968    -0.07622290    -0.05643873
     13      1      O           0.01345143     0.11103755    -0.12698448
     14      2      H          -0.00707645     0.01219120     0.03025664
     15      2      H           0.02464372    -0.03163165    -0.05527944
     16      1      O          -0.03357579     0.02700962     0.00751435
     17      2      H          -0.02594233    -0.08354653     0.04279105
     18      2      H           0.02015888     0.00674533    -0.03158204
     19      1      O           0.08685962    -0.11861159    -0.15007554
     20      2      H          -0.09004220     0.00446715     0.02014583
     21      2      H           0.03258829     0.00786344     0.02957670
     22      1      O           0.07774237    -0.03620525     0.11408771
     23      2      H          -0.06772359    -0.02683150    -0.00385501
     24      2      H          -0.01634258     0.01791470    -0.09700842
     25      1      O           0.07926310    -0.02453964    -0.11737959
     26      2      H          -0.04439510     0.04225648    -0.06232535
     27      2      H           0.00910357    -0.05896977     0.09008642
     28      1      O           0.05059414     0.04848485    -0.14165645
     29      2      H          -0.08322400    -0.01211820    -0.01836434
     30      2      H           0.01344873    -0.11197086     0.04214707
     31      1      O           0.03644658    -0.00851225     0.01286471
     32      2      H           0.00405984     0.01590439     0.02238763
     33      2      H          -0.01567133    -0.05223299    -0.00641984
     34      1      O           0.00323326     0.00119230     0.15415490
     35      2      H          -0.05549396    -0.03913308    -0.04458182
     36      2      H           0.06455205    -0.07343749    -0.05576134
     37      1      O           0.02972686     0.03449405     0.11233273
     38      2      H           0.01234173    -0.04954689    -0.00455858
     39      2      H          -0.06553111    -0.03957271     0.04927665
     40      1      O           0.06334453     0.08659864     0.07327406
     41      2      H          -0.03645808    -0.07770181     0.09621845
     42      2      H          -0.02160294    -0.04073788    -0.06392686
     43      1      O          -0.00108395    -0.05246696     0.00428568
     44      2      H           0.00888502    -0.00837263     0.01698825
     45      2      H           0.00741865     0.01555085    -0.01539439
     46      1      O           0.01999260    -0.10784525    -0.13994921
     47      2      H          -0.05031069     0.02309659     0.05391153
     48      2      H           0.04761675    -0.03098425     0.09947653
     49      1      O           0.07300269    -0.06683431    -0.13948672
     50      2      H           0.01643854     0.11266781    -0.02577249
     51      2      H          -0.06131083    -0.01675439     0.04725942
     52      1      O           0.01817268    -0.04984464     0.14873732
     53      2      H           0.00668253     0.07850374     0.01514786
     54      2      H          -0.01128943    -0.05383934    -0.01405528
     55      1      O          -0.07261320     0.06042966     0.06749433
     56      2      H           0.05855849     0.00073920    -0.02285437
     57      2      H           0.05404786    -0.00676210     0.02180266
     58      1      O           0.06691913     0.03081494    -0.03489918
     59      2      H          -0.02555772    -0.02409659     0.00857301
     60      2      H          -0.02126629    -0.01938539     0.03839222
     61      1      O          -0.06576264     0.03134332     0.01812868
     62      2      H           0.02856286     0.02474466     0.00857311
     63      2      H           0.05474876    -0.02490955    -0.05690660
     64      1      O           0.01359997     0.04262607    -0.17564686
     65      2      H           0.02729393    -0.05013318     0.03505656
     66      2      H          -0.07986977     0.03297833     0.02460542
     67      1      O           0.04503477     0.07929155     0.07049683
     68      2      H          -0.04188021    -0.01510623    -0.02071607
     69      2      H           0.04500340    -0.10438641     0.00991347
     70      1      O           0.02426380     0.11249342    -0.05074735
     71      2      H          -0.04405214    -0.03057102     0.03014570
     72      2      H           0.00605826    -0.00860902    -0.02725835
     73      1      O           0.01659978     0.14822137     0.12712176
     74      2      H           0.06605229    -0.05576066     0.06887560
     75      2      H          -0.03297795    -0.05347673    -0.09540230
     76      1      O          -0.05593822     0.11371599    -0.12362687
     77      2      H           0.04684628    -0.01671630     0.07545682
     78      2      H           0.00548617    -0.06242297    -0.01400465
     79      1      O          -0.02439742     0.04023261     0.12964431
     80      2      H          -0.03019736    -0.02781141    -0.02564718
     81      2      H           0.06969556    -0.04936311     0.06493744
     82      1      O          -0.06464764    -0.10313002    -0.01774163
     83      2      H           0.06389617    -0.02243652    -0.01634859
     84      2      H          -0.00779489     0.02779833    -0.03074248
     85      1      O           0.04899415    -0.04497771    -0.08811529
     86      2      H          -0.08234936     0.01460630     0.09797884
     87      2      H           0.04159195     0.10575963     0.02157479
     88      1      O           0.00438092     0.02586143     0.15568179
     89      2      H          -0.03852646    -0.09132092    -0.00324987
     90      2      H           0.00020279    -0.00362301    -0.08320701
     91      1      O           0.07893352    -0.02481766     0.00596951
     92      2      H          -0.06499639    -0.01679407    -0.09142430
     93      2      H          -0.01441484    -0.06238575     0.03449251
     94      1      O           0.07774749    -0.00197239     0.03389759
     95      2      H           0.00864229     0.06212068     0.05625470
     96      2      H          -0.05817702    -0.04680313     0.06931297
     97      1      O          -0.11981409     0.08946169     0.04982307
     98      2      H           0.07145370     0.02039067    -0.08159518
     99      2      H           0.05713932    -0.02654668     0.08428554
    100      1      O           0.06301165     0.04056089    -0.09950517
    101      2      H          -0.01942191    -0.06590154    -0.06362513
    102      2      H           0.00008592    -0.01977700     0.08706331
    103      1      O          -0.00162676    -0.14811120    -0.07696427
    104      2      H          -0.04344900     0.04199745    -0.07697484
    105      2      H           0.06686176     0.05077889     0.00977886
    106      1      O           0.00459239    -0.03652836    -0.02206685
    107      2      H           0.06514336     0.05808626     0.10717559
    108      2      H          -0.06991051     0.06234583    -0.03684992
    109      1      O           0.00998925     0.05796089     0.03738978
    110      2      H           0.05740254     0.01907535    -0.07244749
    111      2      H          -0.05077251    -0.01941559    -0.06354409
    112      1      O           0.08272402     0.08551835     0.09290792
    113      2      H           0.01193263    -0.03958989    -0.07193027
    114      2      H          -0.09631625     0.00827768     0.01753366
    115      1      O           0.04858951     0.00765705     0.08327170
    116      2      H           0.02553813    -0.06966150    -0.09018570
    117      2      H          -0.05062155     0.04180607    -0.02621357
    118      1      O           0.07182720     0.00158091     0.07153815
    119      2      H           0.00206463     0.02334035    -0.07378647
    120      2      H          -0.04877253    -0.01412755     0.03884286
    121      1      O          -0.06732458     0.10340214     0.04527532
    122      2      H           0.00480994    -0.04176497    -0.07750562
    123      2      H           0.06453353     0.00555764     0.01499605
    124      1      O           0.02827428    -0.07843786    -0.06726320
    125      2      H          -0.01417619     0.03440738     0.07896396
    126      2      H           0.00638251     0.03502472     0.03315395
    127      1      O          -0.02511249    -0.04837194     0.04469501
    128      2      H           0.03403541    -0.08416803    -0.01992260
    129      2      H          -0.02332991     0.07713187    -0.08593561
    130      1      O           0.09622371     0.05046316     0.00506879
    131      2      H          -0.05584246    -0.05851284     0.02507152
    132      2      H          -0.00185169     0.02658235     0.04616624
    133      1      O          -0.06089688    -0.12615967    -0.01169585
    134      2      H           0.03316508    -0.00744655    -0.05645268
    135      2      H          -0.01589038     0.10579758     0.03296651
    136      1      O           0.01934474    -0.01540437     0.03401030
    137      2      H          -0.01411466    -0.03652946    -0.01081111
    138      2      H          -0.00777489     0.07680039     0.02444413
    139      1      O          -0.09545573     0.01122235     0.14494533
    140      2      H           0.01839554    -0.03677744    -0.04907800
    141      2      H           0.03660518     0.02280868    -0.01384233
    142      1      O           0.04886445     0.04645816     0.07796679
    143      2      H           0.00680326     0.02311153    -0.07896479
    144      2      H          -0.06143384    -0.01089918     0.04194995
    145      1      O           0.03721481    -0.01942805    -0.03013902
    146      2      H          -0.02992401    -0.04468047     0.01732095
    147      2      H           0.04346648    -0.00247071     0.07135053
    148      1      O           0.01469658    -0.06152779    -0.09407565
    149      2      H           0.02269492     0.04624643    -0.02683828
    150      2      H          -0.00160243    -0.03281527     0.03607515
    151      1      O          -0.10663521     0.26936978     0.08522273
    152      2      H          -0.03235305     0.01408913    -0.00742480
    153      2      H           0.14473652    -0.20574966     0.02421509
    154      1      O          -0.03379531     0.00296286     0.07011331
    155      2      H           0.02502415     0.04613115    -0.03330432
    156      2      H           0.00656891     0.05285516     0.00955705
    157      1      O           0.06075495    -0.08732665     0.00695783
    158      2      H          -0.01116073     0.04597867     0.01711786
    159      2      H          -0.05389740    -0.01577397    -0.00858171
    160      1      O          -0.00676431    -0.06372730     0.15658021
    161      2      H          -0.03796117    -0.06950880    -0.01801070
    162      2      H           0.02484453     0.02032617    -0.01458725
    163      1      O           0.08021649     0.04971725    -0.10567881
    164      2      H          -0.07119216    -0.03840798    -0.07190651
    165      2      H           0.03364802    -0.05205260     0.04212249
    166      1      O          -0.03308561     0.00659918    -0.11451986
    167      2      H           0.01633376    -0.01884408    -0.02398917
    168      2      H           0.00464467     0.00638307     0.00481165
    169      1      O          -0.06222122    -0.02797437    -0.09703791
    170      2      H           0.02252029    -0.09515288     0.01221450
    171      2      H           0.03244216     0.04258669    -0.01036862
    172      1      O          -0.09443123    -0.02222847     0.02717663
    173      2      H           0.06908030     0.00576376    -0.03673719
    174      2      H          -0.01982472     0.07144979     0.10863872
    175      1      O          -0.01247559     0.01413052     0.05385004
    176      2      H          -0.02472038     0.04028713    -0.02013966
    177      2      H           0.01965222    -0.01593904    -0.02572149
    178      1      O          -0.00061239     0.12535121     0.08055505
    179      2      H           0.04880626    -0.09765412    -0.03182086
    180      2      H          -0.07551511    -0.00876748    -0.04124458
    181      1      O           0.05115729    -0.05908498    -0.02002829
    182      2      H           0.02839359     0.08566910    -0.01366689
    183      2      H          -0.07179889    -0.03453996    -0.06663533
    184      1      O           0.00455263     0.07950704    -0.02347346
    185      2      H          -0.02272412    -0.05708603    -0.03610368
    186      2      H          -0.02616118     0.03323423    -0.00440658
    187      1      O          -0.04626671     0.14272583    -0.01526369
    188      2      H           0.06564571    -0.04604419    -0.00984916
    189      2      H          -0.03467178    -0.01953787    -0.00807758
    190      1      O           0.05040530    -0.11186894    -0.05661720
    191      2      H          -0.02204471     0.03488251    -0.03873531
    192      2      H          -0.03978233    -0.01280810     0.07711895
 SUM OF ATOMIC FORCES           0.25223445    -0.44192431    -0.19152635     0.54369261

 -------------------------------------------------------------------------------
 -                                                                             -
 -                                DBCSR STATISTICS                             -
 -                                                                             -
 -------------------------------------------------------------------------------
 COUNTER                                    TOTAL       BLAS       SMM       ACC
 flops     5 x     5 x   256           3509900800       0.0%    100.0%      0.0%
 flops    13 x     5 x   256           4257344000       0.0%    100.0%      0.0%
 flops     5 x    13 x   256           4347499520       0.0%    100.0%      0.0%
 flops    13 x    13 x   256           6146603008       0.0%    100.0%      0.0%
 flops inhomo. stacks                           0       0.0%      0.0%      0.0%
 flops total                        18.261347E+09       0.0%    100.0%      0.0%
 flops max/rank                     18.261347E+09       0.0%    100.0%      0.0%
 matmuls inhomo. stacks                         0       0.0%      0.0%      0.0%
 matmuls total                             603806       0.0%    100.0%      0.0%
 number of processed stacks                 42140       0.0%    100.0%      0.0%
 average stack size                                     0.0      14.3       0.0
 marketing flops                   333.927416E+09
 -------------------------------------------------------------------------------
 # multiplications                            301
 max memory usage/rank              30.520214E+09
 # max total images/rank                        1
 # max 3D layers                                1
 # MPI messages exchanged                       0
 MPI messages size (bytes):
  total size                         0.000000E+00
  min size                           0.000000E+00
  max size                           0.000000E+00
  average size                       0.000000E+00
 MPI breakdown and total messages size (bytes):
             size <=      128                   0                        0
       128 < size <=     8192                   0                        0
      8192 < size <=    32768                   0                        0
     32768 < size <=   131072                   0                        0
    131072 < size <=  4194304                   0                        0
   4194304 < size <= 16777216                   0                        0
  16777216 < size                               0                        0
 -------------------------------------------------------------------------------

 MEMORY| Estimated peak process memory [MiB]                               29101

 -------------------------------------------------------------------------------
 -                                                                             -
 -                           R E F E R E N C E S                               -
 -                                                                             -
 -------------------------------------------------------------------------------
 
 CP2K version 7.1, the CP2K developers group (2019).
 CP2K is freely available from https://www.cp2k.org/ .

 Schuett, Ole; Messmer, Peter; Hutter, Juerg; VandeVondele, Joost. 
 Electronic Structure Calculations on Graphics Processing Units, John
 Wiley & Sons, Ltd, 173-190 (2016). 
 GPU-Accelerated Sparse Matrix-Matrix Multiplication for
 Linear Scaling Density Functional Theory.
 https://dx.doi.org/10.1002/9781118670712.ch8

 Borstnik, U; VandeVondele, J; Weber, V; Hutter, J. 
 PARALLEL COMPUTING, 40 (5-6), 47-58 (2014). 
 Sparse matrix multiplication: The distributed block-compressed sparse
 row library.
 https://dx.doi.org/10.1016/j.parco.2014.03.012

 Hutter, J; Iannuzzi, M; Schiffmann, F; VandeVondele, J. 
 WIREs Comput Mol Sci., 4 (1), 15-25 (2014). 
 CP2K: atomistic simulations of condensed matter systems.
 https://dx.doi.org/10.1002/wcms.1159

 Krack, M. 
 THEORETICAL CHEMISTRY ACCOUNTS, 114 (1-3), 145-152 (2005). 
 Pseudopotentials for H to Kr optimized for gradient-corrected
 exchange-correlation functionals.
 https://dx.doi.org/10.1007/s00214-005-0655-y

 VandeVondele, J; Krack, M; Mohamed, F; Parrinello, M; Chassaing, T;
 Hutter, J. COMPUTER PHYSICS COMMUNICATIONS, 167 (2), 103-128 (2005). 
 QUICKSTEP: Fast and accurate density functional calculations using a
 mixed Gaussian and plane waves approach.
 https://dx.doi.org/10.1016/j.cpc.2004.12.014

 Frigo, M; Johnson, SG. 
 PROCEEDINGS OF THE IEEE, 93 (2), 216-231 (2005). 
 The design and implementation of FFTW3.
 https://dx.doi.org/10.1109/JPROC.2004.840301

 Hartwigsen, C; Goedecker, S; Hutter, J. 
 PHYSICAL REVIEW B, 58 (7), 3641-3662 (1998). 
 Relativistic separable dual-space Gaussian pseudopotentials from H to Rn.
 https://dx.doi.org/10.1103/PhysRevB.58.3641

 Lippert, G; Hutter, J; Parrinello, M. 
 MOLECULAR PHYSICS, 92 (3), 477-487 (1997). 
 A hybrid Gaussian and plane wave density functional scheme.
 https://dx.doi.org/10.1080/002689797170220

 Goedecker, S; Teter, M; Hutter, J. 
 PHYSICAL REVIEW B, 54 (3), 1703-1710 (1996). 
 Separable dual-space Gaussian pseudopotentials.
 https://dx.doi.org/10.1103/PhysRevB.54.1703


 -------------------------------------------------------------------------------
 -                                                                             -
 -                                T I M I N G                                  -
 -                                                                             -
 -------------------------------------------------------------------------------
 SUBROUTINE                       CALLS  ASD         SELF TIME        TOTAL TIME
                                MAXIMUM       AVERAGE  MAXIMUM  AVERAGE  MAXIMUM
 CP2K                                 1  1.0    1.035    1.035 7030.844 7030.844
 qs_forces                            1  2.0    0.000    0.000 7019.544 7019.544
 qs_energies                          1  3.0    0.000    0.000 7015.951 7015.951
 scf_env_do_scf                       1  4.0    0.001    0.001 7004.598 7004.598
 scf_env_do_scf_inner_loop          300  5.0    0.049    0.049 7004.597 7004.597
 gspace_mixing                      299  6.0   42.135   42.135 2942.787 2942.787
 broyden_mixing                     299  7.0 2657.641 2657.641 2657.645 2657.645
 qs_scf_new_mos                     300  6.0    0.009    0.009 1927.277 1927.277
 eigensolver                        300  7.0    0.032    0.032 1887.546 1887.546
 cp_fm_syevd                        300  8.0 1260.572 1260.572 1261.706 1261.706
 pw_transfer                       3912  9.9    0.376    0.376 1141.986 1141.986
 fft_wrap_pw1pw2                   3310 10.9    0.046    0.046 1114.668 1114.668
 rebuild_ks_matrix                  301  7.0    0.001    0.001 1112.528 1112.528
 qs_ks_build_kohn_sham_matrix       301  8.0    0.087    0.087 1112.527 1112.527
 qs_ks_update_qs_env                300  6.0    0.003    0.003 1109.286 1109.286
 qs_rho_update_rho                  301  6.0    0.003    0.003 1026.903 1026.903
 calculate_rho_elec                 301  7.0  503.394  503.394 1026.900 1026.900
 fft_wrap_pw1pw2_70                1504 11.2   89.837   89.837 1021.584 1021.584
 cp_fm_cholesky_restore             900  8.0  624.712  624.712  624.712  624.712
 fft3d_s                           3311 12.9  526.685  526.685  526.711  526.711
 density_rs2pw                      301  8.0    0.032    0.032  515.585  515.585
 pw_scatter_s                      1804 13.2  411.052  411.052  411.052  411.052
 pw_poisson_solve                   301  9.0  335.484  335.484  362.779  362.779
 sum_up_and_integrate               301  9.0   18.116   18.116  300.839  300.839
 integrate_v_rspace                 301 10.0    8.467    8.467  282.722  282.722
 potential_pw2rs                    301 11.0    2.503    2.503  267.716  267.716
 qs_vxc_create                      301  9.0    0.007    0.007  161.563  161.563
 xc_vxc_pw_create                   301 10.0   42.294   42.294  161.556  161.556
 -------------------------------------------------------------------------------

 The number of warnings for this run is : 1
 
 -------------------------------------------------------------------------------
  **** **** ******  **  PROGRAM ENDED AT                 2020-05-27 17:39:59.604
 ***** ** ***  *** **   PROGRAM RAN ON                                   gnode44
 **    ****   ******    PROGRAM RAN BY                               mayank.modi
 ***** **    ** ** **   PROGRAM PROCESS ID                                 40655
  **** **  *******  **  PROGRAM STOPPED IN /home/mayank.modi/ab-initio-thermodyn
                                           amics-of-water/mayank/cp2k_energy_cal
                                           culations
