 DBCSR| CPU Multiplication driver                                           XSMM
 DBCSR| Multrec recursion limit                                              512
 DBCSR| Multiplication stack size                                           1000
 DBCSR| Maximum elements for images                                    UNLIMITED
 DBCSR| Multiplicative factor virtual images                                   1
 DBCSR| Use multiplication densification                                       T
 DBCSR| Multiplication size stacks                                             3


  **** **** ******  **  PROGRAM STARTED AT               2020-05-30 09:04:50.493
 ***** ** ***  *** **   PROGRAM STARTED ON                               gnode44
 **    ****   ******    PROGRAM STARTED BY                           mayank.modi
 ***** **    ** ** **   PROGRAM PROCESS ID                                  7636
  **** **  *******  **  PROGRAM STARTED IN /home/mayank.modi/ab-initio-thermodyn
                                           amics-of-water/mayank/cp2k_energy_cal
                                           culations

 CP2K| version string:                                          CP2K version 7.1
 CP2K| source code revision number:                                  git:e635599
 CP2K| cp2kflags: omp libint fftw3 libxc xsmm spglib                            
 CP2K| is freely available from                            https://www.cp2k.org/
 CP2K| Program compiled at                          Mon Dec 23 19:23:12 CET 2019
 CP2K| Program compiled on                                                pc9404
 CP2K| Program compiled for                                Linux-x86-64-gfortran
 CP2K| Data directory path                                        /opt/cp2k/data
 CP2K| Input file name                                 input_training/input45.in

 GLOBAL| Force Environment number                                              1
 GLOBAL| Basis set file name                                           BASIS_SET
 GLOBAL| Potential file name                                      GTH_POTENTIALS
 GLOBAL| MM Potential file name                                     MM_POTENTIAL
 GLOBAL| Coordinate file name                                      __STD_INPUT__
 GLOBAL| Method name                                                        CP2K
 GLOBAL| Project name                                                   H2O_bulk
 GLOBAL| Preferred FFT library                                             FFTW3
 GLOBAL| Preferred diagonalization lib.                                       SL
 GLOBAL| Run type                                                   ENERGY_FORCE
 GLOBAL| All-to-all communication in single precision                          F
 GLOBAL| FFTs using library dependent lengths                                  F
 GLOBAL| Global print level                                                  LOW
 GLOBAL| MPI I/O enabled                                                       T
 GLOBAL| Total number of message passing processes                             1
 GLOBAL| Number of threads for this process                                   36
 GLOBAL| This output is from process                                           0
 GLOBAL| CPU model name                Intel(R) Xeon(R) CPU E5-2640 v4 @ 2.40GHz
 GLOBAL| CPUID                                                              1002
 GLOBAL| Compiled for CPUID                                                    0

 MEMORY| system memory details [Kb]
 MEMORY|                        rank 0           min           max       average
 MEMORY| MemTotal            131893056     131893056     131893056     131893056
 MEMORY| MemFree             120719804     120719804     120719804     120719804
 MEMORY| Buffers               2130152       2130152       2130152       2130152
 MEMORY| Cached                3474492       3474492       3474492       3474492
 MEMORY| Slab                  3311060       3311060       3311060       3311060
 MEMORY| SReclaimable          3107668       3107668       3107668       3107668
 MEMORY| MemLikelyFree       129432116     129432116     129432116     129432116


 GENERATE| WARNING:: No connections detected for Hydrogen - Atom Nr:        77 !
 GENERATE|  Preliminary Number of Bonds generated:                             0
 GENERATE|  Achieved consistency in connectivity generation.

 *******************************************************************************
 *******************************************************************************
 **                                                                           **
 **     #####                         ##              ##                      **
 **    ##   ##            ##          ##              ##                      **
 **   ##     ##                       ##            ######                    **
 **   ##     ##  ##   ##  ##   #####  ##  ##   ####   ##    #####    #####    **
 **   ##     ##  ##   ##  ##  ##      ## ##   ##      ##   ##   ##  ##   ##   **
 **   ##  ## ##  ##   ##  ##  ##      ####     ###    ##   ######   ######    **
 **    ##  ###   ##   ##  ##  ##      ## ##      ##   ##   ##       ##        **
 **     #######   #####   ##   #####  ##  ##  ####    ##    #####   ##        **
 **           ##                                                    ##        **
 **                                                                           **
 **                                                ... make the atoms dance   **
 **                                                                           **
 **            Copyright (C) by CP2K developers group (2000 - 2019)           **
 **                                                                           **
 *******************************************************************************


 TOTAL NUMBERS AND MAXIMUM NUMBERS

  Total number of            - Atomic kinds:                                   2
                             - Atoms:                                        192
                             - Shell sets:                                   384
                             - Shells:                                       704
                             - Primitive Cartesian functions:                960
                             - Cartesian basis functions:                   1536
                             - Spherical basis functions:                   1472

  Maximum angular momentum of- Orbital basis functions:                        2
                             - Local part of the GTH pseudopotential:          2
                             - Non-local part of the GTH pseudopotential:      0


 SCF PARAMETERS         Density guess:                                    ATOMIC
                        --------------------------------------------------------
                        max_scf:                                             300
                        max_scf_history:                                       0
                        max_diis:                                              4
                        --------------------------------------------------------
                        eps_scf:                                        1.00E-07
                        eps_scf_history:                                0.00E+00
                        eps_diis:                                       1.00E-01
                        eps_eigval:                                     1.00E-05
                        --------------------------------------------------------
                        level_shift [a.u.]:                                 0.00
                        --------------------------------------------------------
                        Mixing method:                            BROYDEN_MIXING
                                                charge density mixing in g-space
                        --------------------------------------------------------
                        No outer SCF

 Number of electrons:                                                        512
 Number of occupied orbitals:                                                256
 Number of molecular orbitals:                                               256

 Number of orbital functions:                                               1472
 Number of independent orbital functions:                                   1472

 Extrapolation method: initial_guess


 SCF WAVEFUNCTION OPTIMIZATION

  Step     Update method      Time    Convergence         Total energy    Change
  ------------------------------------------------------------------------------
     1 NoMix/Diag. 0.40E+00   10.3     0.68713541     -1064.1377954709 -1.06E+03
     2 Broy./Diag. 0.40E+00   15.3     1.89361624      -996.7260004947  6.74E+01
     3 Broy./Diag. 0.40E+00   17.1     1.90697293     -1261.6962555497 -2.65E+02
     4 Broy./Diag. 0.40E+00   17.3     1.91246804     -1116.4511954634  1.45E+02
     5 Broy./Diag. 0.40E+00   18.0     1.62193701     -1099.7446497831  1.67E+01
     6 Broy./Diag. 0.40E+00   19.3     1.75760188     -1096.8267691654  2.92E+00
     7 Broy./Diag. 0.40E+00   20.2     1.94429872     -1094.6546005278  2.17E+00
     8 Broy./Diag. 0.40E+00   21.6     1.86844715     -1085.2508392571  9.40E+00
     9 Broy./Diag. 0.40E+00   23.6     1.65665188     -1076.8267373745  8.42E+00
    10 Broy./Diag. 0.40E+00   23.5     1.71604033     -1077.6351975245 -8.08E-01
    11 Broy./Diag. 0.40E+00   23.5     1.44011582     -1079.8543624853 -2.22E+00
    12 Broy./Diag. 0.40E+00   23.8     1.35458530     -1073.8744935668  5.98E+00
    13 Broy./Diag. 0.40E+00   23.7     1.51559843     -1072.4766207028  1.40E+00
    14 Broy./Diag. 0.40E+00   23.8     1.35451202     -1072.1887784139  2.88E-01
    15 Broy./Diag. 0.40E+00   22.2     1.65920506     -1080.3275475888 -8.14E+00
    16 Broy./Diag. 0.40E+00   23.7     1.70349573     -1078.3301189888  2.00E+00
    17 Broy./Diag. 0.40E+00   22.3     1.66813406     -1080.1589914088 -1.83E+00
    18 Broy./Diag. 0.40E+00   22.9     1.75345987     -1076.5571239678  3.60E+00
    19 Broy./Diag. 0.40E+00   23.6     1.43869263     -1074.6269422529  1.93E+00
    20 Broy./Diag. 0.40E+00   24.9     1.49993432     -1076.5488961287 -1.92E+00
    21 Broy./Diag. 0.40E+00   23.9     1.58267871     -1076.4325741150  1.16E-01
    22 Broy./Diag. 0.40E+00   23.4     1.61765974     -1077.2125702209 -7.80E-01
    23 Broy./Diag. 0.40E+00   23.5     1.34700853     -1073.7011421031  3.51E+00
    24 Broy./Diag. 0.40E+00   24.4     1.37503388     -1079.2416163388 -5.54E+00
    25 Broy./Diag. 0.40E+00   23.8     1.24510729     -1074.1758371050  5.07E+00
    26 Broy./Diag. 0.40E+00   24.3     1.21207555     -1076.8983224877 -2.72E+00
    27 Broy./Diag. 0.40E+00   24.0     1.65295167     -1075.6645024218  1.23E+00
    28 Broy./Diag. 0.40E+00   23.8     1.68530362     -1077.0055714184 -1.34E+00
    29 Broy./Diag. 0.40E+00   23.9     1.19442743     -1076.7309334902  2.75E-01
    30 Broy./Diag. 0.40E+00   23.9     1.20316376     -1073.9808064788  2.75E+00
    31 Broy./Diag. 0.40E+00   23.8     1.68372426     -1076.7209719241 -2.74E+00
    32 Broy./Diag. 0.40E+00   24.0     1.69615339     -1079.3644582311 -2.64E+00
    33 Broy./Diag. 0.40E+00   23.9     1.65825512     -1076.8585502683  2.51E+00
    34 Broy./Diag. 0.40E+00   24.0     1.66893006     -1073.7940789892  3.06E+00
    35 Broy./Diag. 0.40E+00   23.9     1.69055843     -1079.0316152664 -5.24E+00
    36 Broy./Diag. 0.40E+00   23.7     1.37397357     -1079.1057242466 -7.41E-02
    37 Broy./Diag. 0.40E+00   23.8     1.22005847     -1074.0684936907  5.04E+00
    38 Broy./Diag. 0.40E+00   23.9     1.64851066     -1076.7251915011 -2.66E+00
    39 Broy./Diag. 0.40E+00   23.8     1.70059814     -1075.7895144429  9.36E-01
    40 Broy./Diag. 0.40E+00   24.4     1.67339639     -1073.3980669752  2.39E+00
    41 Broy./Diag. 0.40E+00   24.1     1.66624745     -1079.0767648984 -5.68E+00
    42 Broy./Diag. 0.40E+00   24.2     1.66200429     -1077.7137134262  1.36E+00
    43 Broy./Diag. 0.40E+00   23.8     1.72478916     -1076.2366162995  1.48E+00
    44 Broy./Diag. 0.40E+00   23.8     1.53153776     -1075.8234822446  4.13E-01
    45 Broy./Diag. 0.40E+00   23.8     1.37320994     -1076.5512596467 -7.28E-01
    46 Broy./Diag. 0.40E+00   23.7     1.70685251     -1078.3047143614 -1.75E+00
    47 Broy./Diag. 0.40E+00   24.7     1.70866888     -1076.5046163467  1.80E+00
    48 Broy./Diag. 0.40E+00   24.5     1.23595216     -1074.0142338445  2.49E+00
    49 Broy./Diag. 0.40E+00   25.2     1.19065166     -1076.9782371680 -2.96E+00
    50 Broy./Diag. 0.40E+00   25.1     1.20925837     -1077.2824027132 -3.04E-01
    51 Broy./Diag. 0.40E+00   24.4     1.19592106     -1074.3739882360  2.91E+00
    52 Broy./Diag. 0.40E+00   23.9     1.20540793     -1079.5657806305 -5.19E+00
    53 Broy./Diag. 0.40E+00   24.5     1.48830843     -1076.2371291971  3.33E+00
    54 Broy./Diag. 0.40E+00   24.6     1.54953463     -1076.5400675895 -3.03E-01
    55 Broy./Diag. 0.40E+00   26.5     1.14166882     -1073.5670701838  2.97E+00
    56 Broy./Diag. 0.40E+00   25.2     1.63274587     -1076.1503019043 -2.58E+00
    57 Broy./Diag. 0.40E+00   25.2     1.66352325     -1078.3135458982 -2.16E+00
    58 Broy./Diag. 0.40E+00   24.9     1.66837432     -1078.4120684448 -9.85E-02
    59 Broy./Diag. 0.40E+00   26.7     1.71643561     -1079.1335860528 -7.22E-01
    60 Broy./Diag. 0.40E+00   26.9     1.21376802     -1076.2563173335  2.88E+00
    61 Broy./Diag. 0.40E+00   25.5     1.34000477     -1073.1530487334  3.10E+00
    62 Broy./Diag. 0.40E+00   24.6     1.38850068     -1076.2016683777 -3.05E+00
    63 Broy./Diag. 0.40E+00   26.6     1.38460287     -1079.0063878164 -2.80E+00
    64 Broy./Diag. 0.40E+00   25.6     1.65609919     -1074.0362667750  4.97E+00
    65 Broy./Diag. 0.40E+00   25.8     1.67121757     -1078.5461093287 -4.51E+00
    66 Broy./Diag. 0.40E+00   25.3     0.09466489     -1073.6797126052  4.87E+00
    67 Broy./Diag. 0.40E+00   25.5     1.27139700     -1074.1161906022 -4.36E-01
    68 Broy./Diag. 0.40E+00   25.4     1.68079850     -1076.7565317279 -2.64E+00
    69 Broy./Diag. 0.40E+00   24.6     1.70624205     -1076.9283956059 -1.72E-01
    70 Broy./Diag. 0.40E+00   25.2     1.65240176     -1076.7878825576  1.41E-01
    71 Broy./Diag. 0.40E+00   25.5     1.67452422     -1076.1754145887  6.12E-01
    72 Broy./Diag. 0.40E+00   28.0     1.25874216     -1078.2841144482 -2.11E+00
    73 Broy./Diag. 0.40E+00   25.6     1.19897069     -1074.1457058530  4.14E+00
    74 Broy./Diag. 0.40E+00   25.7     1.16225494     -1077.1778988857 -3.03E+00
    75 Broy./Diag. 0.40E+00   26.7     1.19845385     -1076.8298963623  3.48E-01
    76 Broy./Diag. 0.40E+00   26.5     1.68964999     -1073.8814166873  2.95E+00
    77 Broy./Diag. 0.40E+00   25.4     1.70148847     -1079.2530813030 -5.37E+00
    78 Broy./Diag. 0.40E+00   24.5     1.65727439     -1077.9015774495  1.35E+00
    79 Broy./Diag. 0.40E+00   26.2     1.70541393     -1078.9229844084 -1.02E+00
    80 Broy./Diag. 0.40E+00   25.1     1.40234587     -1076.0682284608  2.85E+00
    81 Broy./Diag. 0.40E+00   25.8     1.24823896     -1075.7309155729  3.37E-01
    82 Broy./Diag. 0.40E+00   23.6     1.67560053     -1075.5301105853  2.01E-01
    83 Broy./Diag. 0.40E+00   25.0     1.70148821     -1078.8709314207 -3.34E+00
    84 Broy./Diag. 0.40E+00   28.4     1.67956697     -1078.3550697972  5.16E-01
    85 Broy./Diag. 0.40E+00   26.9     1.81801437     -1074.6011293233  3.75E+00
    86 Broy./Diag. 0.40E+00   25.4     0.34492498     -1071.1634849173  3.44E+00
    87 Broy./Diag. 0.40E+00   24.9     1.67100487     -1074.0706974136 -2.91E+00
    88 Broy./Diag. 0.40E+00   25.0     1.69696590     -1078.7716180965 -4.70E+00
    89 Broy./Diag. 0.40E+00   26.6     1.17543322     -1074.2865548495  4.49E+00
    90 Broy./Diag. 0.40E+00   25.1     0.03691493     -1076.3314269964 -2.04E+00
    91 Broy./Diag. 0.40E+00   25.0     1.20337026     -1076.4594363224 -1.28E-01
    92 Broy./Diag. 0.40E+00   26.9     1.37285664     -1078.6407295932 -2.18E+00
    93 Broy./Diag. 0.40E+00   25.6     1.22567213     -1073.7841292063  4.86E+00
    94 Broy./Diag. 0.40E+00   26.9     1.19261447     -1079.0167574338 -5.23E+00
    95 Broy./Diag. 0.40E+00   25.1     1.65329715     -1074.6399366753  4.38E+00
    96 Broy./Diag. 0.40E+00   26.0     1.69948809     -1077.4383269027 -2.80E+00
    97 Broy./Diag. 0.40E+00   25.9     1.62849153     -1077.1619171450  2.76E-01
    98 Broy./Diag. 0.40E+00   24.9     1.69861365     -1076.2537281034  9.08E-01
    99 Broy./Diag. 0.40E+00   25.6     1.70562578     -1079.2949341186 -3.04E+00
   100 Broy./Diag. 0.40E+00   26.2     1.76134215     -1080.4637807803 -1.17E+00
   101 Broy./Diag. 0.40E+00   25.9     1.61377968     -1075.7334190356  4.73E+00
   102 Broy./Diag. 0.40E+00   23.8     1.21589475     -1074.6411252113  1.09E+00
   103 Broy./Diag. 0.40E+00   25.9     1.21938007     -1076.3329544106 -1.69E+00
   104 Broy./Diag. 0.40E+00   25.1     1.40767945     -1073.1709618258  3.16E+00
   105 Broy./Diag. 0.40E+00   26.5     1.39446602     -1078.6346908010 -5.46E+00
   106 Broy./Diag. 0.40E+00   28.3     1.63979958     -1074.3205526998  4.31E+00
   107 Broy./Diag. 0.40E+00   26.3     1.30818924     -1078.8701829122 -4.55E+00
   108 Broy./Diag. 0.40E+00   25.4     1.70429399     -1078.7098533896  1.60E-01
   109 Broy./Diag. 0.40E+00   25.4     1.36364584     -1076.7108851904  2.00E+00
   110 Broy./Diag. 0.40E+00   25.5     1.38943184     -1078.7171997248 -2.01E+00
   111 Broy./Diag. 0.40E+00   25.0     1.70056575     -1073.5643643483  5.15E+00
   112 Broy./Diag. 0.40E+00   24.9     1.69693062     -1075.9825033622 -2.42E+00
   113 Broy./Diag. 0.40E+00   26.0     1.60356038     -1074.1697229078  1.81E+00
   114 Broy./Diag. 0.40E+00   24.9     1.62284225     -1078.9570876263 -4.79E+00
   115 Broy./Diag. 0.40E+00   28.3     1.27988250     -1073.8718871493  5.09E+00
   116 Broy./Diag. 0.40E+00   26.6     1.49344711     -1079.1583428789 -5.29E+00
   117 Broy./Diag. 0.40E+00   27.8     1.65625435     -1079.0405903983  1.18E-01
   118 Broy./Diag. 0.40E+00   26.0     1.69763096     -1076.6504048785  2.39E+00
   119 Broy./Diag. 0.40E+00   26.2     1.69848081     -1076.5184278452  1.32E-01
   120 Broy./Diag. 0.40E+00   26.0     1.71501142     -1078.7512905211 -2.23E+00
   121 Broy./Diag. 0.40E+00   27.1     1.59423572     -1077.6542172493  1.10E+00
   122 Broy./Diag. 0.40E+00   25.2     1.65683550     -1078.7753611275 -1.12E+00
   123 Broy./Diag. 0.40E+00   24.3     1.07747280     -1073.4553623012  5.32E+00
   124 Broy./Diag. 0.40E+00   27.0     1.35801000     -1076.7618788956 -3.31E+00
   125 Broy./Diag. 0.40E+00   26.5     1.66737089     -1076.7622919076 -4.13E-04
   126 Broy./Diag. 0.40E+00   27.2     1.72672180     -1075.8474464941  9.15E-01
   127 Broy./Diag. 0.40E+00   25.3     1.35502231     -1074.9533948220  8.94E-01
   128 Broy./Diag. 0.40E+00   24.7     1.38689011     -1079.4590772974 -4.51E+00
   129 Broy./Diag. 0.40E+00   28.2     1.68296183     -1074.0405177210  5.42E+00
   130 Broy./Diag. 0.40E+00   26.6     1.69191281     -1079.1008024329 -5.06E+00
   131 Broy./Diag. 0.40E+00   26.9     1.23171237     -1076.3643143528  2.74E+00
   132 Broy./Diag. 0.40E+00   26.0     1.23473379     -1075.9739791867  3.90E-01
   133 Broy./Diag. 0.40E+00   27.1     1.59292447     -1077.2908577545 -1.32E+00
   134 Broy./Diag. 0.40E+00   25.2     1.51871418     -1077.1947984993  9.61E-02
   135 Broy./Diag. 0.40E+00   26.2     1.66260872     -1075.2547972483  1.94E+00
   136 Broy./Diag. 0.40E+00   26.2     1.68912846     -1076.9103163470 -1.66E+00
   137 Broy./Diag. 0.40E+00   22.6     1.36477416     -1074.3245922143  2.59E+00
   138 Broy./Diag. 0.40E+00   25.4     1.38449820     -1079.3812404397 -5.06E+00
   139 Broy./Diag. 0.40E+00   26.7     1.66851349     -1074.0055237586  5.38E+00
   140 Broy./Diag. 0.40E+00   25.3     1.72537833     -1080.6398711610 -6.63E+00
   141 Broy./Diag. 0.40E+00   26.3     1.69736112     -1078.6326928390  2.01E+00
   142 Broy./Diag. 0.40E+00   25.2     1.65654213     -1075.5631903210  3.07E+00
   143 Broy./Diag. 0.40E+00   26.6     1.68346109     -1076.5911930605 -1.03E+00
   144 Broy./Diag. 0.40E+00   24.3     1.37610403     -1077.2857710963 -6.95E-01
   145 Broy./Diag. 0.40E+00   25.7     1.30532068     -1075.7792784904  1.51E+00
   146 Broy./Diag. 0.40E+00   25.0     1.21695070     -1076.9527853673 -1.17E+00
   147 Broy./Diag. 0.40E+00   25.4     1.36820871     -1073.6698148352  3.28E+00
   148 Broy./Diag. 0.40E+00   28.0     1.67564116     -1079.3691689219 -5.70E+00
   149 Broy./Diag. 0.40E+00   26.0     1.71360303     -1076.7748077878  2.59E+00
   150 Broy./Diag. 0.40E+00   26.0     1.62736663     -1076.8901697210 -1.15E-01
   151 Broy./Diag. 0.40E+00   25.3     1.26837986     -1076.6603992399  2.30E-01
   152 Broy./Diag. 0.40E+00   27.4     1.37937398     -1078.9862331311 -2.33E+00
   153 Broy./Diag. 0.40E+00   25.8     1.60346245     -1078.6435616327  3.43E-01
   154 Broy./Diag. 0.40E+00   24.8     1.69174581     -1075.1964635026  3.45E+00
   155 Broy./Diag. 0.40E+00   25.7     1.65970490     -1073.0823562963  2.11E+00
   156 Broy./Diag. 0.40E+00   27.2     1.68743745     -1078.5267267268 -5.44E+00
   157 Broy./Diag. 0.40E+00   25.1     1.48847755     -1077.5953080134  9.31E-01
   158 Broy./Diag. 0.40E+00   25.2     1.58945643     -1076.8814140000  7.14E-01
   159 Broy./Diag. 0.40E+00   26.0     1.21078876     -1076.4453478756  4.36E-01
   160 Broy./Diag. 0.40E+00   26.7     1.38409003     -1073.2347739962  3.21E+00
   161 Broy./Diag. 0.40E+00   27.5     1.39493444     -1078.9724855967 -5.74E+00
   162 Broy./Diag. 0.40E+00   27.3     0.89264188     -1075.2423960704  3.73E+00
   163 Broy./Diag. 0.40E+00   26.3     1.67308448     -1073.8721638014  1.37E+00
   164 Broy./Diag. 0.40E+00   26.7     1.66842850     -1076.7655551301 -2.89E+00
   165 Broy./Diag. 0.40E+00   26.7     1.28774545     -1074.2889628602  2.48E+00
   166 Broy./Diag. 0.40E+00   26.0     1.21685754     -1076.7477230607 -2.46E+00
   167 Broy./Diag. 0.40E+00   25.5     1.43140289     -1075.7848574697  9.63E-01
   168 Broy./Diag. 0.40E+00   25.9     1.67031603     -1078.5968067922 -2.81E+00
   169 Broy./Diag. 0.40E+00   25.9     1.73007002     -1076.8810348569  1.72E+00
   170 Broy./Diag. 0.40E+00   25.3     1.24344530     -1076.7886279748  9.24E-02
   171 Broy./Diag. 0.40E+00   26.3     1.44143796     -1080.8084913849 -4.02E+00
   172 Broy./Diag. 0.40E+00   24.3     1.67195473     -1073.7749415821  7.03E+00
   173 Broy./Diag. 0.40E+00   25.9     1.68139696     -1078.9725596306 -5.20E+00
   174 Broy./Diag. 0.40E+00   26.3     1.70072825     -1078.6699668752  3.03E-01
   175 Broy./Diag. 0.40E+00   25.6     1.35548389     -1073.8447944579  4.83E+00
   176 Broy./Diag. 0.40E+00   27.2     1.38310825     -1079.2150074626 -5.37E+00
   177 Broy./Diag. 0.40E+00   25.6     1.21435834     -1077.0944788788  2.12E+00
   178 Broy./Diag. 0.40E+00   25.0     1.59781668     -1074.0178732451  3.08E+00
   179 Broy./Diag. 0.40E+00   24.7     1.51005690     -1077.4158365277 -3.40E+00
   180 Broy./Diag. 0.40E+00   25.8     1.22474548     -1076.0598376430  1.36E+00
   181 Broy./Diag. 0.40E+00   26.6     1.35978712     -1076.7067347962 -6.47E-01
   182 Broy./Diag. 0.40E+00   26.7     1.37366665     -1078.1476879068 -1.44E+00
   183 Broy./Diag. 0.40E+00   26.6     1.65737289     -1075.8418374136  2.31E+00
   184 Broy./Diag. 0.40E+00   25.2     1.73608634     -1075.3901576897  4.52E-01
   185 Broy./Diag. 0.40E+00   24.8     1.36155793     -1073.2436092222  2.15E+00
   186 Broy./Diag. 0.40E+00   24.2     1.65435368     -1079.2292413894 -5.99E+00
   187 Broy./Diag. 0.40E+00   25.7     1.67909995     -1077.5317198702  1.70E+00
   188 Broy./Diag. 0.40E+00   25.4     1.71481986     -1076.5849517894  9.47E-01
   189 Broy./Diag. 0.40E+00   26.5     1.69979817     -1073.6870658422  2.90E+00
   190 Broy./Diag. 0.40E+00   26.9     1.70558181     -1079.2332788391 -5.55E+00
   191 Broy./Diag. 0.40E+00   26.0     1.19108867     -1073.9231545719  5.31E+00
   192 Broy./Diag. 0.40E+00   25.1     1.21733062     -1077.3402928464 -3.42E+00
   193 Broy./Diag. 0.40E+00   26.6     1.26801371     -1075.6626391603  1.68E+00
   194 Broy./Diag. 0.40E+00   25.6     1.36268658     -1077.5601712986 -1.90E+00
   195 Broy./Diag. 0.40E+00   26.0     1.40257603     -1078.7455618294 -1.19E+00
   196 Broy./Diag. 0.40E+00   25.6     1.63819314     -1075.1821302060  3.56E+00
   197 Broy./Diag. 0.40E+00   27.5     1.70525042     -1076.8192118127 -1.64E+00
   198 Broy./Diag. 0.40E+00   25.3     1.70819117     -1077.1360884276 -3.17E-01
   199 Broy./Diag. 0.40E+00   24.2     1.71706720     -1076.8051186263  3.31E-01
   200 Broy./Diag. 0.40E+00   26.5     1.33006244     -1073.7101103953  3.10E+00
   201 Broy./Diag. 0.40E+00   25.6     1.30590037     -1077.6156210919 -3.91E+00
   202 Broy./Diag. 0.40E+00   24.7     1.58426168     -1076.0133515566  1.60E+00
   203 Broy./Diag. 0.40E+00   25.3     1.64708079     -1076.5674986549 -5.54E-01
   204 Broy./Diag. 0.40E+00   25.3     1.41454047     -1073.7746466297  2.79E+00
   205 Broy./Diag. 0.40E+00   26.8     1.70251350     -1079.1518952336 -5.38E+00
   206 Broy./Diag. 0.40E+00   26.2     1.71429029     -1079.2171627246 -6.53E-02
   207 Broy./Diag. 0.40E+00   27.4     1.60029390     -1078.3278867055  8.89E-01
   208 Broy./Diag. 0.40E+00   25.7     1.70588406     -1075.8185021196  2.51E+00
   209 Broy./Diag. 0.40E+00   23.7     1.17810930     -1075.1621664511  6.56E-01
   210 Broy./Diag. 0.40E+00   25.3     1.48901616     -1072.8686043133  2.29E+00
   211 Broy./Diag. 0.40E+00   24.8     1.53799997     -1076.9916828350 -4.12E+00
   212 Broy./Diag. 0.40E+00   25.2     1.65932333     -1076.0374799466  9.54E-01
   213 Broy./Diag. 0.40E+00   25.0     1.71854327     -1076.8508865434 -8.13E-01
   214 Broy./Diag. 0.40E+00   25.2     1.25281264     -1076.6362326539  2.15E-01
   215 Broy./Diag. 0.40E+00   25.4     1.28423150     -1075.8451834460  7.91E-01
   216 Broy./Diag. 0.40E+00   26.7     1.71942420     -1078.9193030887 -3.07E+00
   217 Broy./Diag. 0.40E+00   26.7     1.39779657     -1073.6980413609  5.22E+00
   218 Broy./Diag. 0.40E+00   26.3     1.66649849     -1079.0374393910 -5.34E+00
   219 Broy./Diag. 0.40E+00   29.4     1.71308455     -1076.7252435236  2.31E+00
   220 Broy./Diag. 0.40E+00   26.6     1.21097942     -1073.9199342016  2.81E+00
   221 Broy./Diag. 0.40E+00   26.5     0.84154527     -1077.0644205511 -3.14E+00
   222 Broy./Diag. 0.40E+00   27.3     1.68646393     -1078.6246490925 -1.56E+00
   223 Broy./Diag. 0.40E+00   25.6     1.23761458     -1073.9022642807  4.72E+00
   224 Broy./Diag. 0.40E+00   27.7     1.26784686     -1079.0500341058 -5.15E+00
   225 Broy./Diag. 0.40E+00   26.3     1.31994389     -1076.7798786649  2.27E+00
   226 Broy./Diag. 0.40E+00   24.8     1.18706707     -1073.8841629151  2.90E+00
   227 Broy./Diag. 0.40E+00   27.1     1.27041781     -1077.2280908142 -3.34E+00
   228 Broy./Diag. 0.40E+00   25.4     1.41666356     -1079.2825212252 -2.05E+00
   229 Broy./Diag. 0.40E+00   25.1     1.25261637     -1074.2950115144  4.99E+00
   230 Broy./Diag. 0.40E+00   24.3     1.53246638     -1076.8890911662 -2.59E+00
   231 Broy./Diag. 0.40E+00   26.4     1.32788384     -1076.1928680649  6.96E-01
   232 Broy./Diag. 0.40E+00   24.9     1.70450489     -1079.0014624955 -2.81E+00
   233 Broy./Diag. 0.40E+00   25.1     1.67035363     -1078.9080168284  9.34E-02
   234 Broy./Diag. 0.40E+00   25.0     1.70102519     -1076.9041561249  2.00E+00
   235 Broy./Diag. 0.40E+00   25.0     1.72227366     -1076.7153018702  1.89E-01
   236 Broy./Diag. 0.40E+00   25.3     1.67054188     -1073.5400190303  3.18E+00
   237 Broy./Diag. 0.40E+00   27.1     1.68436481     -1078.7636941931 -5.22E+00
   238 Broy./Diag. 0.40E+00   27.2     0.99079028     -1076.2064073522  2.56E+00
   239 Broy./Diag. 0.40E+00   26.8     1.27086759     -1074.8714617705  1.33E+00
   240 Broy./Diag. 0.40E+00   26.3     1.52411046     -1076.4178509428 -1.55E+00
   241 Broy./Diag. 0.40E+00   25.7     1.53597146     -1076.3014534586  1.16E-01
   242 Broy./Diag. 0.40E+00   24.1     1.29402866     -1075.7643103167  5.37E-01
   243 Broy./Diag. 0.40E+00   25.6     1.44566764     -1078.9073103622 -3.14E+00
   244 Broy./Diag. 0.40E+00   25.8     1.68140351     -1076.8250788584  2.08E+00
   245 Broy./Diag. 0.40E+00   29.1     1.74033534     -1076.5590885722  2.66E-01
   246 Broy./Diag. 0.40E+00   25.4     1.54969645     -1075.2389604435  1.32E+00
   247 Broy./Diag. 0.40E+00   23.7     1.23647000     -1076.2365094757 -9.98E-01
   248 Broy./Diag. 0.40E+00   25.9     1.23096151     -1073.3152453563  2.92E+00
   249 Broy./Diag. 0.40E+00   26.3     1.21917321     -1077.5196045824 -4.20E+00
   250 Broy./Diag. 0.40E+00   25.2     1.35821267     -1077.3664269424  1.53E-01
   251 Broy./Diag. 0.40E+00   26.7     1.37882953     -1079.2088337994 -1.84E+00
   252 Broy./Diag. 0.40E+00   27.2     1.67405217     -1073.4733541076  5.74E+00
   253 Broy./Diag. 0.40E+00   25.9     1.69083786     -1079.2721035236 -5.80E+00
   254 Broy./Diag. 0.40E+00   23.8     1.64508113     -1074.2438442165  5.03E+00
   255 Broy./Diag. 0.40E+00   25.0     1.67061329     -1078.1122703341 -3.87E+00
   256 Broy./Diag. 0.40E+00   26.1     1.23558909     -1076.8462161872  1.27E+00
   257 Broy./Diag. 0.40E+00   28.0     1.62026120     -1073.6628145793  3.18E+00
   258 Broy./Diag. 0.40E+00   27.1     1.38971660     -1079.3089467846 -5.65E+00
   259 Broy./Diag. 0.40E+00   26.2     1.69701945     -1079.2095212970  9.94E-02
   260 Broy./Diag. 0.40E+00   25.1     1.66760924     -1076.7396971441  2.47E+00
   261 Broy./Diag. 0.40E+00   24.1     1.72190991     -1077.4826300111 -7.43E-01
   262 Broy./Diag. 0.40E+00   24.5     1.66843054     -1076.2157031096  1.27E+00
   263 Broy./Diag. 0.40E+00   25.7     1.25193487     -1074.9929441291  1.22E+00
   264 Broy./Diag. 0.40E+00   25.3     1.16117122     -1077.0070963688 -2.01E+00
   265 Broy./Diag. 0.40E+00   26.1     1.62274792     -1073.8235049672  3.18E+00
   266 Broy./Diag. 0.40E+00   25.1     1.63785839     -1078.5705803295 -4.75E+00
   267 Broy./Diag. 0.40E+00   26.0     1.39533409     -1079.2890254652 -7.18E-01
   268 Broy./Diag. 0.40E+00   27.0     1.69091885     -1072.8961279016  6.39E+00
   269 Broy./Diag. 0.40E+00   26.1     1.43222236     -1079.4276682404 -6.53E+00
   270 Broy./Diag. 0.40E+00   23.6     1.30009900     -1077.4327387942  1.99E+00
   271 Broy./Diag. 0.40E+00   25.7     1.67389796     -1078.0811594587 -6.48E-01
   272 Broy./Diag. 0.40E+00   24.7     1.67437595     -1076.3642462344  1.72E+00
   273 Broy./Diag. 0.40E+00   24.6     1.74233667     -1076.4500876710 -8.58E-02
   274 Broy./Diag. 0.40E+00   26.1     1.49657075     -1073.4053539571  3.04E+00
   275 Broy./Diag. 0.40E+00   26.2     1.51155450     -1076.3701103529 -2.96E+00
   276 Broy./Diag. 0.40E+00   26.6     1.57805745     -1075.9276440966  4.42E-01
   277 Broy./Diag. 0.40E+00   24.8     1.42390738     -1078.6822516289 -2.75E+00
   278 Broy./Diag. 0.40E+00   26.3     1.67301821     -1076.0391945400  2.64E+00
   279 Broy./Diag. 0.40E+00   24.9     1.69362110     -1077.2014198312 -1.16E+00
   280 Broy./Diag. 0.40E+00   25.5     1.24851628     -1076.0582962244  1.14E+00
   281 Broy./Diag. 0.40E+00   27.7     1.15936365     -1076.6980389824 -6.40E-01
   282 Broy./Diag. 0.40E+00   26.6     1.41812649     -1073.7780324555  2.92E+00
   283 Broy./Diag. 0.40E+00   26.3     1.68396002     -1080.6714916471 -6.89E+00
   284 Broy./Diag. 0.40E+00   26.2     1.71352691     -1078.9033988981  1.77E+00
   285 Broy./Diag. 0.40E+00   25.8     1.37935744     -1074.4353009032  4.47E+00
   286 Broy./Diag. 0.40E+00   26.1     1.39699831     -1078.9874462088 -4.55E+00
   287 Broy./Diag. 0.40E+00   25.8     1.13411718     -1073.8015591487  5.19E+00
   288 Broy./Diag. 0.40E+00   28.0     1.19946538     -1076.5584166055 -2.76E+00
   289 Broy./Diag. 0.40E+00   26.3     1.69494305     -1078.4265306141 -1.87E+00
   290 Broy./Diag. 0.40E+00   26.0     1.71076118     -1076.6562228361  1.77E+00
   291 Broy./Diag. 0.40E+00   26.2     1.42935677     -1073.6665372810  2.99E+00
   292 Broy./Diag. 0.40E+00   26.5     1.42231455     -1078.8979077764 -5.23E+00
   293 Broy./Diag. 0.40E+00   23.9     1.22155304     -1077.0622035748  1.84E+00
   294 Broy./Diag. 0.40E+00   24.4     1.23431233     -1075.4697451642  1.59E+00
   295 Broy./Diag. 0.40E+00   23.8     1.17190594     -1076.8692517946 -1.40E+00
   296 Broy./Diag. 0.40E+00   25.4     1.61704850     -1076.6573126447  2.12E-01
   297 Broy./Diag. 0.40E+00   24.9     1.60649995     -1075.8742838283  7.83E-01
   298 Broy./Diag. 0.40E+00   24.4     1.20019885     -1077.8101588199 -1.94E+00
   299 Broy./Diag. 0.40E+00   25.3     1.67722148     -1074.9367838658  2.87E+00
   300 Broy./Diag. 0.40E+00   26.7     1.69349994     -1077.5074276947 -2.57E+00

  Leaving inner SCF loop after reaching   300 steps.


  Electronic density on regular grids:       -511.9999740978        0.0000259022
  Core density on regular grids:              511.9996728834       -0.0003271166
  Total charge density on r-space grids:       -0.0003012144
  Total charge density g-space grids:          -0.0003012144

  Overlap energy of the core charge distribution:               0.00000000000000
  Self energy of the core charge distribution:              -2838.21791979120962
  Core Hamiltonian energy:                                    758.48421524132573
  Hartree energy:                                            1240.83452723170876
  Exchange-correlation energy:                               -238.60825037649505

  Total energy:                                             -1077.50742769467024

 *** WARNING in qs_scf.F:542 :: SCF run NOT converged ***


 ENERGY| Total FORCE_EVAL ( QS ) energy (a.u.):            -1071.537565143777329


 ATOMIC FORCES in [a.u.]

 # Atom   Kind   Element          X              Y              Z
      1      1      O          -0.09074010    -0.02916520     0.14785704
      2      2      H           0.04664259    -0.05583606    -0.10830689
      3      2      H           0.02813295     0.08706223     0.05020687
      4      1      O          -0.09962140     0.03002584    -0.15138126
      5      2      H           0.03305581    -0.06146011     0.02670015
      6      2      H           0.03843854     0.06644015    -0.01000353
      7      1      O          -0.01778256     0.10971922    -0.06114233
      8      2      H          -0.01806010    -0.03842412     0.04588321
      9      2      H           0.05957407     0.01413221    -0.01846733
     10      1      O          -0.06268521     0.06377358    -0.12248895
     11      2      H          -0.02428907    -0.01428597     0.09691793
     12      2      H           0.05771082    -0.06797270    -0.02021161
     13      1      O          -0.09055627    -0.05984487    -0.15573201
     14      2      H           0.03992828    -0.08196601     0.00849931
     15      2      H           0.04442679     0.07895547     0.00884629
     16      1      O           0.02233415    -0.07942766     0.06740380
     17      2      H           0.03419960     0.09439732    -0.04001600
     18      2      H          -0.03951194    -0.05660800    -0.04382599
     19      1      O          -0.01498193    -0.11967357     0.15589278
     20      2      H          -0.03001527     0.01462585    -0.10302482
     21      2      H           0.02747342     0.05298673     0.03865359
     22      1      O          -0.05558391    -0.07576749     0.10594656
     23      2      H           0.05943024     0.01006396     0.04611501
     24      2      H           0.00031132     0.04704410    -0.00333394
     25      1      O           0.00628869    -0.04534573     0.11882481
     26      2      H           0.03357293     0.07599190    -0.04917464
     27      2      H          -0.03665545    -0.08123202    -0.07177143
     28      1      O          -0.03031406     0.09810962     0.03949180
     29      2      H           0.07287841     0.01626169     0.06635697
     30      2      H           0.00947342    -0.05175275     0.01141845
     31      1      O          -0.04364230    -0.03761858    -0.13516438
     32      2      H           0.03127646     0.07191429    -0.04840202
     33      2      H           0.01539588    -0.07728149     0.04388300
     34      1      O          -0.08127091     0.02103855    -0.07614993
     35      2      H           0.04949358    -0.04275651    -0.02760350
     36      2      H           0.03140475     0.04617441     0.02966755
     37      1      O          -0.04894185    -0.01047891     0.06197470
     38      2      H           0.03164292     0.04068070    -0.07363121
     39      2      H          -0.01132726    -0.09786514    -0.03639889
     40      1      O           0.04780057     0.06217574    -0.03665151
     41      2      H          -0.01550294    -0.02730077    -0.07295371
     42      2      H          -0.06565696     0.06888804    -0.01489341
     43      1      O          -0.08039947     0.10496034     0.02003406
     44      2      H          -0.00345938     0.01118719     0.10689933
     45      2      H           0.04157066    -0.02870639    -0.05500214
     46      1      O           0.03192886    -0.12121637    -0.08475446
     47      2      H          -0.05923789    -0.00205954    -0.03749005
     48      2      H           0.02704153     0.05449393     0.04509230
     49      1      O           0.04223668    -0.13792219    -0.08177250
     50      2      H          -0.00353957     0.04909099     0.09911472
     51      2      H          -0.01076936     0.02861601    -0.09621967
     52      1      O          -0.04499058    -0.08262912    -0.13335664
     53      2      H           0.05813394     0.02880041    -0.04190636
     54      2      H          -0.00883979     0.00227835     0.09237771
     55      1      O          -0.00935879    -0.04750501     0.10142558
     56      2      H           0.05621607     0.01118727     0.08656063
     57      2      H          -0.00700225     0.05403443    -0.03550529
     58      1      O          -0.05951975     0.07229020     0.11815777
     59      2      H          -0.03425842     0.05801080    -0.08953808
     60      2      H           0.07485321    -0.01847551     0.03598689
     61      1      O           0.01175431     0.07295638    -0.00172067
     62      2      H           0.07218276    -0.00859611    -0.08162685
     63      2      H          -0.06597714    -0.06661701    -0.03123277
     64      1      O           0.03491209     0.03858681    -0.04812212
     65      2      H           0.01054761    -0.04524621     0.01918593
     66      2      H          -0.01499202     0.03892705     0.07167551
     67      1      O           0.07337096     0.02674088     0.07729366
     68      2      H          -0.06653522    -0.00370653     0.01157076
     69      2      H           0.02101621    -0.05250517    -0.04334851
     70      1      O          -0.04466632     0.08145963    -0.04829533
     71      2      H           0.06499212    -0.02421691    -0.01473271
     72      2      H           0.00431798     0.02897193     0.07306608
     73      1      O           0.01986776    -0.08640729    -0.13431653
     74      2      H           0.05166817     0.01107661     0.09949398
     75      2      H          -0.08633843     0.02707201    -0.03200090
     76      1      O          -0.10109014     0.05193727     0.09387568
     77      2      H           0.00556482     0.01385001     0.00058699
     78      2      H          -0.00313503    -0.10927903    -0.00560467
     79      1      O           0.00623525     0.11271623     0.05567692
     80      2      H           0.06310087    -0.01961012    -0.02637614
     81      2      H          -0.07239158    -0.07498278     0.05434919
     82      1      O           0.05540746     0.02720026    -0.03837527
     83      2      H          -0.05273821     0.07074896     0.06287488
     84      2      H          -0.00937596    -0.04639301    -0.10289233
     85      1      O           0.02325836    -0.03073830    -0.00217352
     86      2      H          -0.04672681     0.05421413    -0.07538884
     87      2      H           0.05603115     0.02769349     0.00507487
     88      1      O          -0.01035730     0.10476052     0.00945313
     89      2      H           0.03939071    -0.01966980    -0.03579722
     90      2      H          -0.02036344     0.00278936    -0.06900452
     91      1      O           0.00119231     0.08206923     0.03966998
     92      2      H          -0.02694399    -0.08325858    -0.01446982
     93      2      H           0.01985768    -0.01092002     0.04026828
     94      1      O          -0.12915514     0.00503088     0.04269941
     95      2      H           0.08981843     0.00544754     0.12103051
     96      2      H           0.05898113     0.02236563    -0.12601043
     97      1      O           0.08151505     0.12462509     0.05118068
     98      2      H          -0.05348701    -0.00546604    -0.11541283
     99      2      H          -0.05270584    -0.09140117     0.08023315
    100      1      O           0.01786515     0.11606442     0.06172506
    101      2      H           0.03599305    -0.02111223    -0.09497353
    102      2      H          -0.05831484    -0.08051898    -0.01715938
    103      1      O          -0.07330940     0.00666528    -0.04347833
    104      2      H           0.04993457     0.04246192    -0.03906985
    105      2      H           0.01618796     0.02759098     0.08777080
    106      1      O          -0.07833057     0.04313481     0.00786613
    107      2      H          -0.02563873    -0.06402282     0.11914916
    108      2      H           0.06666991    -0.06997675    -0.01547842
    109      1      O          -0.05673182    -0.02666388    -0.02108279
    110      2      H           0.00131166    -0.03274831    -0.02054748
    111      2      H           0.01783198     0.00143854    -0.05511025
    112      1      O           0.05743691     0.04852971     0.00967466
    113      2      H           0.00413111    -0.04217674    -0.03070852
    114      2      H          -0.08653506     0.00476261     0.00641513
    115      1      O           0.08388681     0.11611122     0.01025083
    116      2      H          -0.02537123    -0.03127277    -0.04063967
    117      2      H          -0.02508137    -0.00508760     0.07337554
    118      1      O           0.05063333    -0.04419070     0.00774798
    119      2      H          -0.07048948    -0.02355029    -0.00225863
    120      2      H           0.01547454     0.00665911     0.08265010
    121      1      O          -0.04188259    -0.01277657     0.00921967
    122      2      H          -0.02493924     0.05981027     0.00248680
    123      2      H           0.03808906    -0.00441478     0.01252230
    124      1      O          -0.03504285    -0.04713914    -0.01413651
    125      2      H          -0.03547744     0.03990639    -0.06386092
    126      2      H           0.06592222     0.03064260     0.01561670
    127      1      O          -0.06754574     0.09469571    -0.01816180
    128      2      H           0.07336467    -0.04953796     0.01874045
    129      2      H           0.01130323     0.04982074    -0.04383594
    130      1      O           0.08145609     0.06358214    -0.10526523
    131      2      H          -0.10032708    -0.00662926    -0.01574868
    132      2      H          -0.01168062    -0.06808891     0.03544755
    133      1      O          -0.05638523     0.00768999     0.03449261
    134      2      H          -0.01834389     0.01221010     0.03190150
    135      2      H           0.06311374    -0.01923460     0.01027490
    136      1      O          -0.04732593     0.04758826    -0.05201540
    137      2      H           0.02436162    -0.05677734     0.03640701
    138      2      H           0.01151246    -0.00485342     0.01147552
    139      1      O          -0.03434701    -0.13413662     0.01019126
    140      2      H           0.09680239     0.05250392    -0.04193054
    141      2      H          -0.03937638     0.04607419    -0.12362052
    142      1      O          -0.02933933    -0.00382335    -0.14518249
    143      2      H           0.00412566     0.00350295     0.06308354
    144      2      H           0.01169976    -0.06007573    -0.03478080
    145      1      O           0.05506849    -0.01828638    -0.05418328
    146      2      H           0.04821185     0.01237731     0.01666016
    147      2      H          -0.08362936     0.02691622    -0.04311288
    148      1      O          -0.00509497    -0.01511292     0.04499328
    149      2      H          -0.06454520     0.02354519     0.02608120
    150      2      H           0.09083919     0.00044942    -0.00802601
    151      1      O           0.01811994     0.19927089    -0.02888663
    152      2      H           0.01240335     0.03130494     0.02359081
    153      2      H          -0.05060191    -0.10632385    -0.05945419
    154      1      O          -0.01808030     0.09569157     0.03752065
    155      2      H           0.07413113    -0.03955273     0.01402812
    156      2      H          -0.04274595    -0.02675658     0.07404393
    157      1      O           0.01958766     0.13796622     0.09377260
    158      2      H          -0.03752024    -0.06262576     0.05983131
    159      2      H           0.00858203    -0.01443362    -0.05151261
    160      1      O          -0.07033137     0.04304239     0.05854081
    161      2      H           0.06598709     0.02761614     0.03280124
    162      2      H          -0.01666607    -0.04500923    -0.02665248
    163      1      O          -0.04790796     0.03156536    -0.02885195
    164      2      H           0.04054895     0.01845189     0.03386165
    165      2      H           0.03665627     0.01924812    -0.05485696
    166      1      O           0.03456693    -0.02305409    -0.05485911
    167      2      H          -0.07233739     0.04914187    -0.02940993
    168      2      H           0.05091004     0.01869127     0.03066010
    169      1      O          -0.07493475    -0.02997005    -0.04750398
    170      2      H           0.06341946    -0.00824881    -0.02115000
    171      2      H          -0.02913829     0.08605266    -0.04694143
    172      1      O          -0.04968178    -0.05368601    -0.12892100
    173      2      H          -0.02762269     0.10308580     0.03262028
    174      2      H           0.09125366    -0.03958755     0.03145530
    175      1      O           0.00312117     0.00088106    -0.05020368
    176      2      H          -0.00918449    -0.03239148    -0.04772121
    177      2      H           0.02445798    -0.02641603     0.02652382
    178      1      O           0.11152245     0.01112865    -0.08363411
    179      2      H          -0.04803833    -0.03156163     0.00122533
    180      2      H          -0.02408779     0.09756540    -0.02285427
    181      1      O          -0.15170975    -0.13999571    -0.15809533
    182      2      H           0.12547162     0.14644486     0.17715761
    183      2      H           0.11688560     0.06522632    -0.00768387
    184      1      O          -0.05665436    -0.02349651     0.06299998
    185      2      H           0.06156062    -0.03791511     0.02111497
    186      2      H           0.01794671     0.01180760    -0.03726143
    187      1      O          -0.08995982    -0.01061510     0.07206863
    188      2      H          -0.00541134    -0.07748977    -0.00032873
    189      2      H           0.06978388     0.01219495     0.03303252
    190      1      O          -0.00579345     0.02519534    -0.12303675
    191      2      H           0.00242400    -0.02520557    -0.01801912
    192      2      H           0.00059579     0.02546118     0.02585504
 SUM OF ATOMIC FORCES          -0.01797358     0.69228484    -0.78101018     1.04381907

 -------------------------------------------------------------------------------
 -                                                                             -
 -                                DBCSR STATISTICS                             -
 -                                                                             -
 -------------------------------------------------------------------------------
 COUNTER                                    TOTAL       BLAS       SMM       ACC
 flops     5 x     5 x   256           3509900800       0.0%    100.0%      0.0%
 flops    13 x     5 x   256           4147153920       0.0%    100.0%      0.0%
 flops     5 x    13 x   256           4267361280       0.0%    100.0%      0.0%
 flops    13 x    13 x   256           6276827648       0.0%    100.0%      0.0%
 flops inhomo. stacks                           0       0.0%      0.0%      0.0%
 flops total                        18.201244E+09       0.0%    100.0%      0.0%
 flops max/rank                     18.201244E+09       0.0%    100.0%      0.0%
 matmuls inhomo. stacks                         0       0.0%      0.0%      0.0%
 matmuls total                             599592       0.0%    100.0%      0.0%
 number of processed stacks                 42140       0.0%    100.0%      0.0%
 average stack size                                     0.0      14.2       0.0
 marketing flops                   333.927416E+09
 -------------------------------------------------------------------------------
 # multiplications                            301
 max memory usage/rank              30.519788E+09
 # max total images/rank                        1
 # max 3D layers                                1
 # MPI messages exchanged                       0
 MPI messages size (bytes):
  total size                         0.000000E+00
  min size                           0.000000E+00
  max size                           0.000000E+00
  average size                       0.000000E+00
 MPI breakdown and total messages size (bytes):
             size <=      128                   0                        0
       128 < size <=     8192                   0                        0
      8192 < size <=    32768                   0                        0
     32768 < size <=   131072                   0                        0
    131072 < size <=  4194304                   0                        0
   4194304 < size <= 16777216                   0                        0
  16777216 < size                               0                        0
 -------------------------------------------------------------------------------

 MEMORY| Estimated peak process memory [MiB]                               29100

 -------------------------------------------------------------------------------
 -                                                                             -
 -                           R E F E R E N C E S                               -
 -                                                                             -
 -------------------------------------------------------------------------------
 
 CP2K version 7.1, the CP2K developers group (2019).
 CP2K is freely available from https://www.cp2k.org/ .

 Schuett, Ole; Messmer, Peter; Hutter, Juerg; VandeVondele, Joost. 
 Electronic Structure Calculations on Graphics Processing Units, John
 Wiley & Sons, Ltd, 173-190 (2016). 
 GPU-Accelerated Sparse Matrix-Matrix Multiplication for
 Linear Scaling Density Functional Theory.
 https://dx.doi.org/10.1002/9781118670712.ch8

 Borstnik, U; VandeVondele, J; Weber, V; Hutter, J. 
 PARALLEL COMPUTING, 40 (5-6), 47-58 (2014). 
 Sparse matrix multiplication: The distributed block-compressed sparse
 row library.
 https://dx.doi.org/10.1016/j.parco.2014.03.012

 Hutter, J; Iannuzzi, M; Schiffmann, F; VandeVondele, J. 
 WIREs Comput Mol Sci., 4 (1), 15-25 (2014). 
 CP2K: atomistic simulations of condensed matter systems.
 https://dx.doi.org/10.1002/wcms.1159

 Krack, M. 
 THEORETICAL CHEMISTRY ACCOUNTS, 114 (1-3), 145-152 (2005). 
 Pseudopotentials for H to Kr optimized for gradient-corrected
 exchange-correlation functionals.
 https://dx.doi.org/10.1007/s00214-005-0655-y

 VandeVondele, J; Krack, M; Mohamed, F; Parrinello, M; Chassaing, T;
 Hutter, J. COMPUTER PHYSICS COMMUNICATIONS, 167 (2), 103-128 (2005). 
 QUICKSTEP: Fast and accurate density functional calculations using a
 mixed Gaussian and plane waves approach.
 https://dx.doi.org/10.1016/j.cpc.2004.12.014

 Frigo, M; Johnson, SG. 
 PROCEEDINGS OF THE IEEE, 93 (2), 216-231 (2005). 
 The design and implementation of FFTW3.
 https://dx.doi.org/10.1109/JPROC.2004.840301

 Hartwigsen, C; Goedecker, S; Hutter, J. 
 PHYSICAL REVIEW B, 58 (7), 3641-3662 (1998). 
 Relativistic separable dual-space Gaussian pseudopotentials from H to Rn.
 https://dx.doi.org/10.1103/PhysRevB.58.3641

 Lippert, G; Hutter, J; Parrinello, M. 
 MOLECULAR PHYSICS, 92 (3), 477-487 (1997). 
 A hybrid Gaussian and plane wave density functional scheme.
 https://dx.doi.org/10.1080/002689797170220

 Goedecker, S; Teter, M; Hutter, J. 
 PHYSICAL REVIEW B, 54 (3), 1703-1710 (1996). 
 Separable dual-space Gaussian pseudopotentials.
 https://dx.doi.org/10.1103/PhysRevB.54.1703


 -------------------------------------------------------------------------------
 -                                                                             -
 -                                T I M I N G                                  -
 -                                                                             -
 -------------------------------------------------------------------------------
 SUBROUTINE                       CALLS  ASD         SELF TIME        TOTAL TIME
                                MAXIMUM       AVERAGE  MAXIMUM  AVERAGE  MAXIMUM
 CP2K                                 1  1.0    1.425    1.425 7628.184 7628.184
 qs_forces                            1  2.0    0.000    0.000 7615.890 7615.890
 qs_energies                          1  3.0    0.000    0.000 7611.913 7611.913
 scf_env_do_scf                       1  4.0    0.001    0.001 7600.520 7600.520
 scf_env_do_scf_inner_loop          300  5.0    0.066    0.066 7600.519 7600.519
 gspace_mixing                      299  6.0   42.318   42.318 3353.782 3353.782
 broyden_mixing                     299  7.0 3065.501 3065.501 3065.505 3065.505
 qs_scf_new_mos                     300  6.0    0.009    0.009 1993.410 1993.410
 eigensolver                        300  7.0    0.035    0.035 1954.268 1954.268
 cp_fm_syevd                        300  8.0 1319.555 1319.555 1321.085 1321.085
 rebuild_ks_matrix                  301  7.0    0.001    0.001 1185.987 1185.987
 qs_ks_build_kohn_sham_matrix       301  8.0    0.102    0.102 1185.986 1185.986
 qs_ks_update_qs_env                300  6.0    0.004    0.004 1182.449 1182.449
 pw_transfer                       3912  9.9    0.383    0.383 1150.070 1150.070
 fft_wrap_pw1pw2                   3310 10.9    0.046    0.046 1119.021 1119.021
 qs_rho_update_rho                  301  6.0    0.003    0.003 1072.354 1072.354
 calculate_rho_elec                 301  7.0  528.774  528.774 1072.351 1072.351
 fft_wrap_pw1pw2_70                1504 11.2   93.956   93.956 1028.502 1028.502
 cp_fm_cholesky_restore             900  8.0  631.915  631.915  631.915  631.915
 density_rs2pw                      301  8.0    0.038    0.038  535.440  535.440
 fft3d_s                           3311 12.9  522.988  522.988  523.029  523.029
 pw_scatter_s                      1804 13.2  416.652  416.652  416.652  416.652
 pw_poisson_solve                   301  9.0  364.970  364.970  395.992  395.992
 sum_up_and_integrate               301  9.0   19.916   19.916  307.112  307.112
 integrate_v_rspace                 301 10.0    7.332    7.332  287.195  287.195
 potential_pw2rs                    301 11.0    2.574    2.574  276.565  276.565
 qs_vxc_create                      301  9.0    0.010    0.010  185.764  185.764
 xc_vxc_pw_create                   301 10.0   42.644   42.644  185.754  185.754
 -------------------------------------------------------------------------------

 The number of warnings for this run is : 1
 
 -------------------------------------------------------------------------------
  **** **** ******  **  PROGRAM ENDED AT                 2020-05-30 11:11:59.355
 ***** ** ***  *** **   PROGRAM RAN ON                                   gnode44
 **    ****   ******    PROGRAM RAN BY                               mayank.modi
 ***** **    ** ** **   PROGRAM PROCESS ID                                  7636
  **** **  *******  **  PROGRAM STOPPED IN /home/mayank.modi/ab-initio-thermodyn
                                           amics-of-water/mayank/cp2k_energy_cal
                                           culations
