 DBCSR| CPU Multiplication driver                                           XSMM
 DBCSR| Multrec recursion limit                                              512
 DBCSR| Multiplication stack size                                           1000
 DBCSR| Maximum elements for images                                    UNLIMITED
 DBCSR| Multiplicative factor virtual images                                   1
 DBCSR| Use multiplication densification                                       T
 DBCSR| Multiplication size stacks                                             3


  **** **** ******  **  PROGRAM STARTED AT               2020-05-26 20:09:50.567
 ***** ** ***  *** **   PROGRAM STARTED ON                               gnode44
 **    ****   ******    PROGRAM STARTED BY                           mayank.modi
 ***** **    ** ** **   PROGRAM PROCESS ID                                 23089
  **** **  *******  **  PROGRAM STARTED IN /home/mayank.modi/ab-initio-thermodyn
                                           amics-of-water/mayank/cp2k_energy_cal
                                           culations

 CP2K| version string:                                          CP2K version 7.1
 CP2K| source code revision number:                                  git:e635599
 CP2K| cp2kflags: omp libint fftw3 libxc xsmm spglib                            
 CP2K| is freely available from                            https://www.cp2k.org/
 CP2K| Program compiled at                          Mon Dec 23 19:23:12 CET 2019
 CP2K| Program compiled on                                                pc9404
 CP2K| Program compiled for                                Linux-x86-64-gfortran
 CP2K| Data directory path                                        /opt/cp2k/data
 CP2K| Input file name                                  input_training/input2.in

 GLOBAL| Force Environment number                                              1
 GLOBAL| Basis set file name                                           BASIS_SET
 GLOBAL| Potential file name                                      GTH_POTENTIALS
 GLOBAL| MM Potential file name                                     MM_POTENTIAL
 GLOBAL| Coordinate file name                                      __STD_INPUT__
 GLOBAL| Method name                                                        CP2K
 GLOBAL| Project name                                                   H2O_bulk
 GLOBAL| Preferred FFT library                                             FFTW3
 GLOBAL| Preferred diagonalization lib.                                       SL
 GLOBAL| Run type                                                   ENERGY_FORCE
 GLOBAL| All-to-all communication in single precision                          F
 GLOBAL| FFTs using library dependent lengths                                  F
 GLOBAL| Global print level                                                  LOW
 GLOBAL| MPI I/O enabled                                                       T
 GLOBAL| Total number of message passing processes                             1
 GLOBAL| Number of threads for this process                                   36
 GLOBAL| This output is from process                                           0
 GLOBAL| CPU model name                Intel(R) Xeon(R) CPU E5-2640 v4 @ 2.40GHz
 GLOBAL| CPUID                                                              1002
 GLOBAL| Compiled for CPUID                                                    0

 MEMORY| system memory details [Kb]
 MEMORY|                        rank 0           min           max       average
 MEMORY| MemTotal            131893056     131893056     131893056     131893056
 MEMORY| MemFree             121516620     121516620     121516620     121516620
 MEMORY| Buffers               2075976       2075976       2075976       2075976
 MEMORY| Cached                2741444       2741444       2741444       2741444
 MEMORY| Slab                  3296956       3296956       3296956       3296956
 MEMORY| SReclaimable          3095704       3095704       3095704       3095704
 MEMORY| MemLikelyFree       129429744     129429744     129429744     129429744


 GENERATE| WARNING:: No connections detected for Hydrogen - Atom Nr:        21 !
 GENERATE| WARNING:: No connections detected for Hydrogen - Atom Nr:        42 !
 GENERATE| WARNING:: No connections detected for Hydrogen - Atom Nr:        51 !
 GENERATE| WARNING:: No connections detected for Hydrogen - Atom Nr:        56 !
 GENERATE| WARNING:: No connections detected for Hydrogen - Atom Nr:        77 !
 GENERATE| WARNING:: No connections detected for Hydrogen - Atom Nr:       101 !
 GENERATE| WARNING:: No connections detected for Hydrogen - Atom Nr:       143 !
 GENERATE| WARNING:: No connections detected for Hydrogen - Atom Nr:       153 !
 GENERATE| WARNING:: No connections detected for Hydrogen - Atom Nr:       176 !
 GENERATE| WARNING:: No connections detected for Hydrogen - Atom Nr:       179 !
 GENERATE| WARNING:: No connections detected for Hydrogen - Atom Nr:       191 !
 GENERATE|  Preliminary Number of Bonds generated:                             0
 GENERATE|  Achieved consistency in connectivity generation.

 *******************************************************************************
 *******************************************************************************
 **                                                                           **
 **     #####                         ##              ##                      **
 **    ##   ##            ##          ##              ##                      **
 **   ##     ##                       ##            ######                    **
 **   ##     ##  ##   ##  ##   #####  ##  ##   ####   ##    #####    #####    **
 **   ##     ##  ##   ##  ##  ##      ## ##   ##      ##   ##   ##  ##   ##   **
 **   ##  ## ##  ##   ##  ##  ##      ####     ###    ##   ######   ######    **
 **    ##  ###   ##   ##  ##  ##      ## ##      ##   ##   ##       ##        **
 **     #######   #####   ##   #####  ##  ##  ####    ##    #####   ##        **
 **           ##                                                    ##        **
 **                                                                           **
 **                                                ... make the atoms dance   **
 **                                                                           **
 **            Copyright (C) by CP2K developers group (2000 - 2019)           **
 **                                                                           **
 *******************************************************************************


 TOTAL NUMBERS AND MAXIMUM NUMBERS

  Total number of            - Atomic kinds:                                   2
                             - Atoms:                                        192
                             - Shell sets:                                   384
                             - Shells:                                       704
                             - Primitive Cartesian functions:                960
                             - Cartesian basis functions:                   1536
                             - Spherical basis functions:                   1472

  Maximum angular momentum of- Orbital basis functions:                        2
                             - Local part of the GTH pseudopotential:          2
                             - Non-local part of the GTH pseudopotential:      0


 SCF PARAMETERS         Density guess:                                    ATOMIC
                        --------------------------------------------------------
                        max_scf:                                             300
                        max_scf_history:                                       0
                        max_diis:                                              4
                        --------------------------------------------------------
                        eps_scf:                                        1.00E-07
                        eps_scf_history:                                0.00E+00
                        eps_diis:                                       1.00E-01
                        eps_eigval:                                     1.00E-05
                        --------------------------------------------------------
                        level_shift [a.u.]:                                 0.00
                        --------------------------------------------------------
                        Mixing method:                            BROYDEN_MIXING
                                                charge density mixing in g-space
                        --------------------------------------------------------
                        No outer SCF

 Number of electrons:                                                        512
 Number of occupied orbitals:                                                256
 Number of molecular orbitals:                                               256

 Number of orbital functions:                                               1472
 Number of independent orbital functions:                                   1472

 Extrapolation method: initial_guess


 SCF WAVEFUNCTION OPTIMIZATION

  Step     Update method      Time    Convergence         Total energy    Change
  ------------------------------------------------------------------------------
     1 NoMix/Diag. 0.40E+00   10.2     0.68793960     -1063.6642688389 -1.06E+03
     2 Broy./Diag. 0.40E+00   15.0     1.96487809      -986.5536688425  7.71E+01
     3 Broy./Diag. 0.40E+00   16.4     1.91105114     -1287.7091367222 -3.01E+02
     4 Broy./Diag. 0.40E+00   16.6     1.87017896     -1153.8016602558  1.34E+02
     5 Broy./Diag. 0.40E+00   17.9     1.98416143     -1107.7875018728  4.60E+01
     6 Broy./Diag. 0.40E+00   18.7     1.95824233     -1091.1482299178  1.66E+01
     7 Broy./Diag. 0.40E+00   19.4     1.83558445     -1103.1468858271 -1.20E+01
     8 Broy./Diag. 0.40E+00   20.6     1.91326728     -1081.3983145947  2.17E+01
     9 Broy./Diag. 0.40E+00   21.0     1.97691730     -1087.5080586508 -6.11E+00
    10 Broy./Diag. 0.40E+00   21.4     1.85745089     -1083.9856613078  3.52E+00
    11 Broy./Diag. 0.40E+00   23.4     1.86662138     -1085.2523877952 -1.27E+00
    12 Broy./Diag. 0.40E+00   24.0     1.94001006     -1085.9968635049 -7.44E-01
    13 Broy./Diag. 0.40E+00   23.3     1.81987774     -1061.9170115041  2.41E+01
    14 Broy./Diag. 0.40E+00   24.1     1.87274105     -1092.2960621425 -3.04E+01
    15 Broy./Diag. 0.40E+00   23.1     1.87270677     -1072.0112957015  2.03E+01
    16 Broy./Diag. 0.40E+00   25.5     1.90533663     -1080.2946910769 -8.28E+00
    17 Broy./Diag. 0.40E+00   22.4     1.93999836     -1059.8479860148  2.04E+01
    18 Broy./Diag. 0.40E+00   22.7     1.88871004     -1083.4999855779 -2.37E+01
    19 Broy./Diag. 0.40E+00   23.5     1.91393484     -1079.0578728532  4.44E+00
    20 Broy./Diag. 0.40E+00   21.6     1.92430255     -1078.8867888047  1.71E-01
    21 Broy./Diag. 0.40E+00   22.6     1.83147845     -1073.8110345487  5.08E+00
    22 Broy./Diag. 0.40E+00   21.9     1.88635835     -1063.1982174749  1.06E+01
    23 Broy./Diag. 0.40E+00   22.0     1.83563832     -1077.8837616012 -1.47E+01
    24 Broy./Diag. 0.40E+00   23.3     1.85494144     -1076.2667857818  1.62E+00
    25 Broy./Diag. 0.40E+00   23.2     1.93912759     -1077.1803710749 -9.14E-01
    26 Broy./Diag. 0.40E+00   23.1     1.90313675     -1068.2387105037  8.94E+00
    27 Broy./Diag. 0.40E+00   23.8     1.83808547     -1070.9465803856 -2.71E+00
    28 Broy./Diag. 0.40E+00   22.2     1.90941424     -1083.7727827432 -1.28E+01
    29 Broy./Diag. 0.40E+00   21.4     1.93820126     -1073.3852341702  1.04E+01
    30 Broy./Diag. 0.40E+00   22.8     1.86016909     -1079.7760826515 -6.39E+00
    31 Broy./Diag. 0.40E+00   23.3     1.92820098     -1072.9053204355  6.87E+00
    32 Broy./Diag. 0.40E+00   23.1     1.88070456     -1068.6758149929  4.23E+00
    33 Broy./Diag. 0.40E+00   22.9     1.91676631     -1073.1485339832 -4.47E+00
    34 Broy./Diag. 0.40E+00   23.1     1.90697780     -1081.4561488389 -8.31E+00
    35 Broy./Diag. 0.40E+00   23.2     1.88361878     -1072.9794365183  8.48E+00
    36 Broy./Diag. 0.40E+00   23.4     1.89176048     -1072.2925369818  6.87E-01
    37 Broy./Diag. 0.40E+00   23.8     1.87690504     -1075.4503633414 -3.16E+00
    38 Broy./Diag. 0.40E+00   23.0     1.95025129     -1076.4439672697 -9.94E-01
    39 Broy./Diag. 0.40E+00   23.5     1.96124174     -1068.5513233080  7.89E+00
    40 Broy./Diag. 0.40E+00   23.3     1.94231515     -1085.7008502759 -1.71E+01
    41 Broy./Diag. 0.40E+00   21.9     1.90523896     -1067.9861473792  1.77E+01
    42 Broy./Diag. 0.40E+00   22.8     1.93057393     -1085.3877975087 -1.74E+01
    43 Broy./Diag. 0.40E+00   22.9     1.85061526     -1067.0035047677  1.84E+01
    44 Broy./Diag. 0.40E+00   23.1     1.85125176     -1060.6835119264  6.32E+00
    45 Broy./Diag. 0.40E+00   23.6     1.87765724     -1081.6669747868 -2.10E+01
    46 Broy./Diag. 0.40E+00   23.9     1.91676502     -1073.0869382818  8.58E+00
    47 Broy./Diag. 0.40E+00   21.4     1.93065100     -1073.1246189752 -3.77E-02
    48 Broy./Diag. 0.40E+00   22.2     1.93063151     -1076.7374017231 -3.61E+00
    49 Broy./Diag. 0.40E+00   23.1     1.94717091     -1077.3111489864 -5.74E-01
    50 Broy./Diag. 0.40E+00   23.2     1.87378278     -1080.9116292596 -3.60E+00
    51 Broy./Diag. 0.40E+00   24.3     1.91678141     -1073.5111402733  7.40E+00
    52 Broy./Diag. 0.40E+00   23.8     1.85862995     -1062.7084488016  1.08E+01
    53 Broy./Diag. 0.40E+00   23.9     1.89232833     -1071.7202711027 -9.01E+00
    54 Broy./Diag. 0.40E+00   23.4     1.93510492     -1081.4365051688 -9.72E+00
    55 Broy./Diag. 0.40E+00   21.6     1.86356889     -1070.6747334928  1.08E+01
    56 Broy./Diag. 0.40E+00   23.3     1.92590237     -1071.8210718987 -1.15E+00
    57 Broy./Diag. 0.40E+00   24.3     1.87279782     -1079.6162766294 -7.80E+00
    58 Broy./Diag. 0.40E+00   23.3     1.94768983     -1075.8862327626  3.73E+00
    59 Broy./Diag. 0.40E+00   22.4     1.87144010     -1069.6161602076  6.27E+00
    60 Broy./Diag. 0.40E+00   21.7     1.92580765     -1071.0121993027 -1.40E+00
    61 Broy./Diag. 0.40E+00   22.0     1.86056864     -1076.8084579118 -5.80E+00
    62 Broy./Diag. 0.40E+00   23.0     1.91940765     -1076.5627161728  2.46E-01
    63 Broy./Diag. 0.40E+00   23.5     1.85682777     -1070.3474201663  6.22E+00
    64 Broy./Diag. 0.40E+00   22.1     1.86031529     -1078.8812422974 -8.53E+00
    65 Broy./Diag. 0.40E+00   21.1     1.92103286     -1081.3840858604 -2.50E+00
    66 Broy./Diag. 0.40E+00   21.2     1.90150539     -1068.0290417394  1.34E+01
    67 Broy./Diag. 0.40E+00   22.5     1.91148609     -1064.6895409848  3.34E+00
    68 Broy./Diag. 0.40E+00   23.9     1.94788809     -1075.2332798887 -1.05E+01
    69 Broy./Diag. 0.40E+00   23.4     1.88774816     -1077.1106902460 -1.88E+00
    70 Broy./Diag. 0.40E+00   23.5     1.90403557     -1071.5389770591  5.57E+00
    71 Broy./Diag. 0.40E+00   23.2     1.93365120     -1077.8364289943 -6.30E+00
    72 Broy./Diag. 0.40E+00   23.3     1.86993401     -1070.7956647046  7.04E+00
    73 Broy./Diag. 0.40E+00   24.4     1.89265152     -1076.0947867295 -5.30E+00
    74 Broy./Diag. 0.40E+00   23.5     1.92689528     -1069.5511996923  6.54E+00
    75 Broy./Diag. 0.40E+00   23.3     1.96562445     -1079.6606626497 -1.01E+01
    76 Broy./Diag. 0.40E+00   23.5     1.88421339     -1066.6115875380  1.30E+01
    77 Broy./Diag. 0.40E+00   23.4     1.88313829     -1076.8962519324 -1.03E+01
    78 Broy./Diag. 0.40E+00   23.4     1.92918601     -1082.0882877033 -5.19E+00
    79 Broy./Diag. 0.40E+00   23.6     1.90063696     -1077.3499693512  4.74E+00
    80 Broy./Diag. 0.40E+00   21.8     1.88708753     -1069.0413955993  8.31E+00
    81 Broy./Diag. 0.40E+00   23.1     1.83404287     -1068.8619772091  1.79E-01
    82 Broy./Diag. 0.40E+00   23.6     1.91847244     -1075.6072215728 -6.75E+00
    83 Broy./Diag. 0.40E+00   23.3     1.95914806     -1072.2792701901  3.33E+00
    84 Broy./Diag. 0.40E+00   23.4     1.95757593     -1071.1596754119  1.12E+00
    85 Broy./Diag. 0.40E+00   21.6     1.86145718     -1079.8337289404 -8.67E+00
    86 Broy./Diag. 0.40E+00   23.1     1.86709022     -1073.8434703066  5.99E+00
    87 Broy./Diag. 0.40E+00   22.9     1.90373884     -1073.6221553908  2.21E-01
    88 Broy./Diag. 0.40E+00   22.5     1.77136136     -1072.8651712851  7.57E-01
    89 Broy./Diag. 0.40E+00   22.9     1.94794797     -1069.4331574172  3.43E+00
    90 Broy./Diag. 0.40E+00   22.4     1.90094142     -1080.9158486211 -1.15E+01
    91 Broy./Diag. 0.40E+00   23.2     1.83258711     -1073.5548585466  7.36E+00
    92 Broy./Diag. 0.40E+00   23.5     1.88159120     -1081.3541453154 -7.80E+00
    93 Broy./Diag. 0.40E+00   23.6     1.83051386     -1066.5288807472  1.48E+01
    94 Broy./Diag. 0.40E+00   23.7     1.87545087     -1078.1429031568 -1.16E+01
    95 Broy./Diag. 0.40E+00   23.0     1.93838123     -1070.5231171335  7.62E+00
    96 Broy./Diag. 0.40E+00   23.4     1.92624974     -1077.1275394935 -6.60E+00
    97 Broy./Diag. 0.40E+00   22.5     1.88016829     -1081.8564204723 -4.73E+00
    98 Broy./Diag. 0.40E+00   23.6     1.98473055     -1074.3006433080  7.56E+00
    99 Broy./Diag. 0.40E+00   23.4     1.88814133     -1059.1690974948  1.51E+01
   100 Broy./Diag. 0.40E+00   23.4     1.90470727     -1081.4115870988 -2.22E+01
   101 Broy./Diag. 0.40E+00   24.1     1.93024854     -1076.1446193265  5.27E+00
   102 Broy./Diag. 0.40E+00   23.8     1.80624629     -1065.2854463901  1.09E+01
   103 Broy./Diag. 0.40E+00   23.3     1.89280039     -1072.4969947961 -7.21E+00
   104 Broy./Diag. 0.40E+00   24.2     1.91202375     -1076.6678156010 -4.17E+00
   105 Broy./Diag. 0.40E+00   23.0     1.84002172     -1069.2801631382  7.39E+00
   106 Broy./Diag. 0.40E+00   22.3     1.86361687     -1069.3588720738 -7.87E-02
   107 Broy./Diag. 0.40E+00   21.1     1.89197290     -1077.0682814000 -7.71E+00
   108 Broy./Diag. 0.40E+00   21.3     1.87784940     -1075.3616060400  1.71E+00
   109 Broy./Diag. 0.40E+00   21.2     1.93185045     -1069.5261555941  5.84E+00
   110 Broy./Diag. 0.40E+00   23.3     1.89099950     -1089.5396117502 -2.00E+01
   111 Broy./Diag. 0.40E+00   23.1     1.87139254     -1066.9326989824  2.26E+01
   112 Broy./Diag. 0.40E+00   23.1     1.91784699     -1079.2852236113 -1.24E+01
   113 Broy./Diag. 0.40E+00   23.0     1.91493763     -1068.7968461689  1.05E+01
   114 Broy./Diag. 0.40E+00   23.7     1.92930050     -1083.5456197815 -1.47E+01
   115 Broy./Diag. 0.40E+00   23.5     1.86816814     -1068.0639385725  1.55E+01
   116 Broy./Diag. 0.40E+00   24.2     1.90813359     -1072.5192315167 -4.46E+00
   117 Broy./Diag. 0.40E+00   23.7     1.91836465     -1074.0750865271 -1.56E+00
   118 Broy./Diag. 0.40E+00   23.3     1.93279642     -1075.5712502039 -1.50E+00
   119 Broy./Diag. 0.40E+00   23.7     1.91423718     -1072.3814839762  3.19E+00
   120 Broy./Diag. 0.40E+00   24.1     1.90008557     -1071.0032252807  1.38E+00
   121 Broy./Diag. 0.40E+00   23.7     1.93594157     -1083.6930192037 -1.27E+01
   122 Broy./Diag. 0.40E+00   23.1     1.86109426     -1078.3084502058  5.38E+00
   123 Broy./Diag. 0.40E+00   24.0     1.92017348     -1065.5958290294  1.27E+01
   124 Broy./Diag. 0.40E+00   23.5     1.87905731     -1066.6690208983 -1.07E+00
   125 Broy./Diag. 0.40E+00   24.0     1.93058774     -1076.2653083144 -9.60E+00
   126 Broy./Diag. 0.40E+00   23.1     1.81992688     -1078.7291915277 -2.46E+00
   127 Broy./Diag. 0.40E+00   23.2     1.87792742     -1079.4030015243 -6.74E-01
   128 Broy./Diag. 0.40E+00   23.9     1.89885017     -1072.9823530456  6.42E+00
   129 Broy./Diag. 0.40E+00   24.1     1.94756616     -1076.4910473705 -3.51E+00
   130 Broy./Diag. 0.40E+00   24.3     1.94748842     -1069.2043783197  7.29E+00
   131 Broy./Diag. 0.40E+00   24.2     1.89684951     -1076.5813167922 -7.38E+00
   132 Broy./Diag. 0.40E+00   23.7     1.89172317     -1075.2685960453  1.31E+00
   133 Broy./Diag. 0.40E+00   23.8     1.90554762     -1068.3973765946  6.87E+00
   134 Broy./Diag. 0.40E+00   21.8     1.93767692     -1080.5246793608 -1.21E+01
   135 Broy./Diag. 0.40E+00   23.2     1.94006839     -1066.4315230579  1.41E+01
   136 Broy./Diag. 0.40E+00   23.5     1.91973692     -1086.7424319187 -2.03E+01
   137 Broy./Diag. 0.40E+00   24.2     1.94038106     -1073.0150774846  1.37E+01
   138 Broy./Diag. 0.40E+00   24.4     1.90449086     -1075.4280339902 -2.41E+00
   139 Broy./Diag. 0.40E+00   24.4     1.87114786     -1069.7784207945  5.65E+00
   140 Broy./Diag. 0.40E+00   24.1     1.93061166     -1072.8130026313 -3.03E+00
   141 Broy./Diag. 0.40E+00   24.2     1.92995401     -1078.1364778897 -5.32E+00
   142 Broy./Diag. 0.40E+00   24.3     1.89623947     -1065.5057092013  1.26E+01
   143 Broy./Diag. 0.40E+00   22.9     1.91246392     -1077.1062364489 -1.16E+01
   144 Broy./Diag. 0.40E+00   22.0     1.94547335     -1084.0566221549 -6.95E+00
   145 Broy./Diag. 0.40E+00   25.2     1.88867024     -1072.5899415632  1.15E+01
   146 Broy./Diag. 0.40E+00   24.2     1.95480299     -1079.0632584680 -6.47E+00
   147 Broy./Diag. 0.40E+00   23.4     1.95180099     -1067.4562378447  1.16E+01
   148 Broy./Diag. 0.40E+00   24.1     1.93946941     -1084.3220214667 -1.69E+01
   149 Broy./Diag. 0.40E+00   24.3     1.86138364     -1068.0323112539  1.63E+01
   150 Broy./Diag. 0.40E+00   24.1     1.83212603     -1071.8940112398 -3.86E+00
   151 Broy./Diag. 0.40E+00   24.1     1.89191422     -1078.6386766065 -6.74E+00
   152 Broy./Diag. 0.40E+00   24.8     1.87653257     -1075.1811216068  3.46E+00
   153 Broy./Diag. 0.40E+00   24.1     1.86002402     -1066.8505168404  8.33E+00
   154 Broy./Diag. 0.40E+00   24.6     1.86524935     -1078.9805484739 -1.21E+01
   155 Broy./Diag. 0.40E+00   21.7     1.92989660     -1071.9560349408  7.02E+00
   156 Broy./Diag. 0.40E+00   23.5     1.85021395     -1073.0989433214 -1.14E+00
   157 Broy./Diag. 0.40E+00   24.0     1.83468722     -1070.1881952056  2.91E+00
   158 Broy./Diag. 0.40E+00   23.8     1.93256456     -1073.6715732065 -3.48E+00
   159 Broy./Diag. 0.40E+00   23.6     1.90608632     -1072.6928669807  9.79E-01
   160 Broy./Diag. 0.40E+00   23.6     1.99906765     -1076.0792706212 -3.39E+00
   161 Broy./Diag. 0.40E+00   24.6     1.86947423     -1081.7055483918 -5.63E+00
   162 Broy./Diag. 0.40E+00   24.0     1.89924590     -1068.5607111638  1.31E+01
   163 Broy./Diag. 0.40E+00   23.4     1.92237048     -1076.7335459589 -8.17E+00
   164 Broy./Diag. 0.40E+00   23.9     1.88029772     -1070.2140923208  6.52E+00
   165 Broy./Diag. 0.40E+00   23.1     1.94085888     -1077.7865022048 -7.57E+00
   166 Broy./Diag. 0.40E+00   23.3     1.93904580     -1075.7612936735  2.03E+00
   167 Broy./Diag. 0.40E+00   23.7     1.94231986     -1068.3325206501  7.43E+00
   168 Broy./Diag. 0.40E+00   23.6     1.90772188     -1082.5336466876 -1.42E+01
   169 Broy./Diag. 0.40E+00   23.4     1.83206727     -1072.7879817040  9.75E+00
   170 Broy./Diag. 0.40E+00   22.7     1.94619838     -1076.4227532631 -3.63E+00
   171 Broy./Diag. 0.40E+00   22.2     1.86741743     -1065.0132048378  1.14E+01
   172 Broy./Diag. 0.40E+00   22.7     1.91541607     -1081.2938273342 -1.63E+01
   173 Broy./Diag. 0.40E+00   23.8     1.91548974     -1072.8209440066  8.47E+00
   174 Broy./Diag. 0.40E+00   23.2     1.92563396     -1069.8543138339  2.97E+00
   175 Broy./Diag. 0.40E+00   21.5     1.89804684     -1072.9190512182 -3.06E+00
   176 Broy./Diag. 0.40E+00   20.6     1.87423649     -1078.5118079068 -5.59E+00
   177 Broy./Diag. 0.40E+00   20.5     1.89577996     -1077.5126442984  9.99E-01
   178 Broy./Diag. 0.40E+00   21.7     1.95017616     -1077.4395133649  7.31E-02
   179 Broy./Diag. 0.40E+00   20.2     1.89184969     -1071.3000933110  6.14E+00
   180 Broy./Diag. 0.40E+00   23.3     1.83807470     -1068.4843746739  2.82E+00
   181 Broy./Diag. 0.40E+00   22.4     1.91083285     -1072.1563088101 -3.67E+00
   182 Broy./Diag. 0.40E+00   23.0     1.94649980     -1074.1128617375 -1.96E+00
   183 Broy./Diag. 0.40E+00   23.7     1.86931968     -1084.7049179256 -1.06E+01
   184 Broy./Diag. 0.40E+00   24.1     1.96087086     -1078.3490272906  6.36E+00
   185 Broy./Diag. 0.40E+00   23.4     1.90249831     -1065.7178320449  1.26E+01
   186 Broy./Diag. 0.40E+00   23.3     1.88511182     -1075.8269336587 -1.01E+01
   187 Broy./Diag. 0.40E+00   23.8     1.88479209     -1072.4133576799  3.41E+00
   188 Broy./Diag. 0.40E+00   23.2     1.91832372     -1074.2182477306 -1.80E+00
   189 Broy./Diag. 0.40E+00   24.0     1.84843987     -1080.1961918541 -5.98E+00
   190 Broy./Diag. 0.40E+00   24.1     1.95000819     -1070.7043359463  9.49E+00
   191 Broy./Diag. 0.40E+00   21.6     1.87569597     -1075.5824733987 -4.88E+00
   192 Broy./Diag. 0.40E+00   22.4     1.93139521     -1078.7073918259 -3.12E+00
   193 Broy./Diag. 0.40E+00   20.7     1.73752515     -1065.7137110961  1.30E+01
   194 Broy./Diag. 0.40E+00   22.7     1.87602274     -1067.8315187497 -2.12E+00
   195 Broy./Diag. 0.40E+00   23.4     1.94195627     -1077.3588042130 -9.53E+00
   196 Broy./Diag. 0.40E+00   21.9     1.90090743     -1082.7968091268 -5.44E+00
   197 Broy./Diag. 0.40E+00   21.7     1.89375870     -1068.8024632650  1.40E+01
   198 Broy./Diag. 0.40E+00   24.2     1.89936936     -1076.7198800891 -7.92E+00
   199 Broy./Diag. 0.40E+00   22.8     1.89904987     -1065.8373149595  1.09E+01
   200 Broy./Diag. 0.40E+00   22.1     1.92311983     -1078.5758496560 -1.27E+01
   201 Broy./Diag. 0.40E+00   23.1     1.92336239     -1081.1025905898 -2.53E+00
   202 Broy./Diag. 0.40E+00   23.8     1.94243943     -1073.6823642037  7.42E+00
   203 Broy./Diag. 0.40E+00   23.6     1.79273467     -1073.5044466737  1.78E-01
   204 Broy./Diag. 0.40E+00   23.9     1.88606340     -1066.7403697566  6.76E+00
   205 Broy./Diag. 0.40E+00   24.6     1.93789578     -1080.2658180868 -1.35E+01
   206 Broy./Diag. 0.40E+00   23.9     1.91939693     -1081.0994773207 -8.34E-01
   207 Broy./Diag. 0.40E+00   24.0     1.92227644     -1068.3785176664  1.27E+01
   208 Broy./Diag. 0.40E+00   24.4     1.93774766     -1073.6218641469 -5.24E+00
   209 Broy./Diag. 0.40E+00   21.7     1.85525931     -1082.3966285196 -8.77E+00
   210 Broy./Diag. 0.40E+00   22.9     1.88264823     -1075.6526142106  6.74E+00
   211 Broy./Diag. 0.40E+00   23.3     1.87688325     -1067.9898868717  7.66E+00
   212 Broy./Diag. 0.40E+00   24.2     1.94072340     -1078.3789928200 -1.04E+01
   213 Broy./Diag. 0.40E+00   23.9     1.84998571     -1074.0434058560  4.34E+00
   214 Broy./Diag. 0.40E+00   22.9     1.96340366     -1067.4790047922  6.56E+00
   215 Broy./Diag. 0.40E+00   21.5     1.88324861     -1066.7117106491  7.67E-01
   216 Broy./Diag. 0.40E+00   22.4     1.89393342     -1080.8590535962 -1.41E+01
   217 Broy./Diag. 0.40E+00   24.7     1.93392803     -1073.9601464453  6.90E+00
   218 Broy./Diag. 0.40E+00   23.7     1.89709393     -1074.1615002409 -2.01E-01
   219 Broy./Diag. 0.40E+00   23.5     1.93700223     -1076.9258894055 -2.76E+00
   220 Broy./Diag. 0.40E+00   23.3     1.87643826     -1075.3129368720  1.61E+00
   221 Broy./Diag. 0.40E+00   22.8     1.87871856     -1066.2392042766  9.07E+00
   222 Broy./Diag. 0.40E+00   24.2     1.93115461     -1073.0511567281 -6.81E+00
   223 Broy./Diag. 0.40E+00   23.7     1.88116347     -1078.9234728496 -5.87E+00
   224 Broy./Diag. 0.40E+00   23.1     1.86979545     -1074.6344067996  4.29E+00
   225 Broy./Diag. 0.40E+00   22.4     1.97707779     -1074.8390869573 -2.05E-01
   226 Broy./Diag. 0.40E+00   23.9     1.93483417     -1072.2197007471  2.62E+00
   227 Broy./Diag. 0.40E+00   24.4     1.83363378     -1070.1946050481  2.03E+00
   228 Broy./Diag. 0.40E+00   23.9     1.85823684     -1075.9849233285 -5.79E+00
   229 Broy./Diag. 0.40E+00   24.1     1.99592851     -1072.0959691910  3.89E+00
   230 Broy./Diag. 0.40E+00   24.0     1.91459628     -1080.5422687609 -8.45E+00
   231 Broy./Diag. 0.40E+00   24.0     1.93229655     -1074.2767590588  6.27E+00
   232 Broy./Diag. 0.40E+00   24.0     1.87519009     -1069.5956113506  4.68E+00
   233 Broy./Diag. 0.40E+00   23.9     1.81139565     -1078.6130847283 -9.02E+00
   234 Broy./Diag. 0.40E+00   23.8     1.88365302     -1071.7843567050  6.83E+00
   235 Broy./Diag. 0.40E+00   24.7     1.93966063     -1074.7888485112 -3.00E+00
   236 Broy./Diag. 0.40E+00   24.3     1.89999976     -1073.8772276402  9.12E-01
   237 Broy./Diag. 0.40E+00   24.7     1.88573617     -1083.9600636450 -1.01E+01
   238 Broy./Diag. 0.40E+00   23.3     1.91947756     -1070.3379455318  1.36E+01
   239 Broy./Diag. 0.40E+00   23.6     1.86451438     -1067.9897864492  2.35E+00
   240 Broy./Diag. 0.40E+00   25.2     1.96715760     -1082.2349703126 -1.42E+01
   241 Broy./Diag. 0.40E+00   24.9     1.95463349     -1072.5634982582  9.67E+00
   242 Broy./Diag. 0.40E+00   21.6     1.90221260     -1071.3237647178  1.24E+00
   243 Broy./Diag. 0.40E+00   22.9     1.86725898     -1065.1003314482  6.22E+00
   244 Broy./Diag. 0.40E+00   23.8     1.95744401     -1079.1804744105 -1.41E+01
   245 Broy./Diag. 0.40E+00   25.5     1.88116163     -1079.0781895755  1.02E-01
   246 Broy./Diag. 0.40E+00   24.6     1.94904970     -1075.3934308800  3.68E+00
   247 Broy./Diag. 0.40E+00   23.1     1.90796639     -1070.5857682924  4.81E+00
   248 Broy./Diag. 0.40E+00   23.5     1.91595204     -1075.4585812557 -4.87E+00
   249 Broy./Diag. 0.40E+00   24.3     1.94861105     -1074.7962335266  6.62E-01
   250 Broy./Diag. 0.40E+00   24.0     1.91654472     -1068.7584644656  6.04E+00
   251 Broy./Diag. 0.40E+00   24.2     1.95746786     -1084.1972429151 -1.54E+01
   252 Broy./Diag. 0.40E+00   24.3     1.82876542     -1068.3506082098  1.58E+01
   253 Broy./Diag. 0.40E+00   24.3     1.86331836     -1070.7912752912 -2.44E+00
   254 Broy./Diag. 0.40E+00   22.9     1.92092932     -1075.0107764987 -4.22E+00
   255 Broy./Diag. 0.40E+00   22.8     1.88764290     -1066.0692396398  8.94E+00
   256 Broy./Diag. 0.40E+00   21.8     1.97752357     -1076.8690708241 -1.08E+01
   257 Broy./Diag. 0.40E+00   23.0     1.86270339     -1077.8155195313 -9.46E-01
   258 Broy./Diag. 0.40E+00   23.9     1.86179999     -1078.6509425050 -8.35E-01
   259 Broy./Diag. 0.40E+00   22.9     1.91580719     -1074.0512947533  4.60E+00
   260 Broy./Diag. 0.40E+00   23.2     1.93202495     -1070.6037104936  3.45E+00
   261 Broy./Diag. 0.40E+00   23.9     1.91318762     -1064.3184764944  6.29E+00
   262 Broy./Diag. 0.40E+00   23.5     1.96971611     -1081.8963263462 -1.76E+01
   263 Broy./Diag. 0.40E+00   23.7     1.81023042     -1075.0680866433  6.83E+00
   264 Broy./Diag. 0.40E+00   23.5     1.94197464     -1065.1191401060  9.95E+00
   265 Broy./Diag. 0.40E+00   22.9     1.97936449     -1080.4110214878 -1.53E+01
   266 Broy./Diag. 0.40E+00   24.2     1.83313490     -1070.4401816468  9.97E+00
   267 Broy./Diag. 0.40E+00   22.3     1.87624295     -1076.8668316128 -6.43E+00
   268 Broy./Diag. 0.40E+00   23.5     1.89039204     -1065.8726923810  1.10E+01
   269 Broy./Diag. 0.40E+00   23.7     1.84254116     -1071.0043015315 -5.13E+00
   270 Broy./Diag. 0.40E+00   23.7     1.97496701     -1074.8935624569 -3.89E+00
   271 Broy./Diag. 0.40E+00   24.3     1.89290078     -1081.0903747477 -6.20E+00
   272 Broy./Diag. 0.40E+00   24.0     1.96354222     -1078.0508247000  3.04E+00
   273 Broy./Diag. 0.40E+00   22.1     1.93816097     -1072.3496225259  5.70E+00
   274 Broy./Diag. 0.40E+00   23.3     1.89139982     -1076.2168205475 -3.87E+00
   275 Broy./Diag. 0.40E+00   22.8     1.73062247     -1071.9652341841  4.25E+00
   276 Broy./Diag. 0.40E+00   23.3     1.81418139     -1070.7164339847  1.25E+00
   277 Broy./Diag. 0.40E+00   23.2     1.86091044     -1062.1280499002  8.59E+00
   278 Broy./Diag. 0.40E+00   23.4     1.89533891     -1087.6267675658 -2.55E+01
   279 Broy./Diag. 0.40E+00   23.7     1.92607874     -1082.9634121742  4.66E+00
   280 Broy./Diag. 0.40E+00   24.8     1.91537805     -1071.1350837331  1.18E+01
   281 Broy./Diag. 0.40E+00   23.8     1.78268808     -1070.1575043349  9.78E-01
   282 Broy./Diag. 0.40E+00   23.6     1.87215196     -1068.6067016837  1.55E+00
   283 Broy./Diag. 0.40E+00   24.1     1.87911185     -1073.9025370727 -5.30E+00
   284 Broy./Diag. 0.40E+00   24.1     1.91813638     -1069.4572145163  4.45E+00
   285 Broy./Diag. 0.40E+00   24.3     1.92364601     -1073.7396240903 -4.28E+00
   286 Broy./Diag. 0.40E+00   23.8     1.94419742     -1079.0537478790 -5.31E+00
   287 Broy./Diag. 0.40E+00   22.9     1.86197966     -1082.3797974396 -3.33E+00
   288 Broy./Diag. 0.40E+00   23.9     1.91430847     -1062.1251047363  2.03E+01
   289 Broy./Diag. 0.40E+00   24.0     1.88897134     -1080.0770196422 -1.80E+01
   290 Broy./Diag. 0.40E+00   24.2     1.90172451     -1074.4695012909  5.61E+00
   291 Broy./Diag. 0.40E+00   24.1     1.87184810     -1080.4539270871 -5.98E+00
   292 Broy./Diag. 0.40E+00   23.9     1.92399012     -1072.9675699613  7.49E+00
   293 Broy./Diag. 0.40E+00   23.8     1.86452402     -1073.3477573463 -3.80E-01
   294 Broy./Diag. 0.40E+00   24.1     1.90653777     -1072.2626697052  1.09E+00
   295 Broy./Diag. 0.40E+00   24.1     1.91993862     -1069.2526910584  3.01E+00
   296 Broy./Diag. 0.40E+00   24.2     1.91503097     -1081.7539150274 -1.25E+01
   297 Broy./Diag. 0.40E+00   23.9     1.85994390     -1074.6509218195  7.10E+00
   298 Broy./Diag. 0.40E+00   24.2     1.91588290     -1073.5930399162  1.06E+00
   299 Broy./Diag. 0.40E+00   23.5     1.93994456     -1078.2761815747 -4.68E+00
   300 Broy./Diag. 0.40E+00   24.9     1.88375839     -1069.2319718300  9.04E+00

  Leaving inner SCF loop after reaching   300 steps.


  Electronic density on regular grids:       -512.0009438289       -0.0009438289
  Core density on regular grids:              512.0003367692        0.0003367692
  Total charge density on r-space grids:       -0.0006070597
  Total charge density g-space grids:          -0.0006070597

  Overlap energy of the core charge distribution:               0.00000000000000
  Self energy of the core charge distribution:              -2838.21791979120962
  Core Hamiltonian energy:                                    767.21682994822220
  Hartree energy:                                            1239.73180856532008
  Exchange-correlation energy:                               -237.96269055228990

  Total energy:                                             -1069.23197182995705

 *** WARNING in qs_scf.F:542 :: SCF run NOT converged ***


 ENERGY| Total FORCE_EVAL ( QS ) energy (a.u.):            -1060.149074478255216


 ATOMIC FORCES in [a.u.]

 # Atom   Kind   Element          X              Y              Z
      1      1      O          -0.00248732     0.12728952    -0.01479035
      2      2      H           0.06135808    -0.08183964    -0.00794504
      3      2      H          -0.04610807     0.04051774    -0.09256096
      4      1      O           0.02788319     0.10597249     0.03988989
      5      2      H           0.02857981    -0.04806596    -0.02383672
      6      2      H          -0.05175471    -0.04412005     0.00755172
      7      1      O           0.05561620    -0.00923042    -0.09349310
      8      2      H           0.00180656     0.09034695     0.00905527
      9      2      H          -0.04319805    -0.03498061    -0.01907433
     10      1      O          -0.04621202     0.03325171    -0.06041345
     11      2      H           0.00842942     0.03545644     0.05393748
     12      2      H           0.06619222    -0.01622743     0.01699854
     13      1      O          -0.05770117    -0.16183797    -0.00164134
     14      2      H           0.04200505     0.05994514    -0.05823917
     15      2      H           0.04524666     0.05608060     0.13338303
     16      1      O           0.07918487    -0.06655980    -0.10508160
     17      2      H          -0.06880684     0.06686068     0.01295661
     18      2      H          -0.04973649    -0.07546133     0.03864349
     19      1      O          -0.00749864    -0.08945490    -0.00315732
     20      2      H           0.00379903     0.02760931    -0.05539497
     21      2      H           0.01293059    -0.01796664    -0.03058182
     22      1      O          -0.00119339     0.07151545    -0.00601114
     23      2      H          -0.01695061    -0.07154847    -0.08423005
     24      2      H          -0.01475882     0.02994834     0.06201570
     25      1      O           0.00852965     0.04306839    -0.00331737
     26      2      H           0.04732567     0.07097186     0.03464551
     27      2      H          -0.03247431    -0.07180475     0.09982235
     28      1      O           0.02649864    -0.03256336    -0.09035208
     29      2      H          -0.07630512     0.00343857     0.01816773
     30      2      H           0.06029927     0.03257463     0.03644701
     31      1      O          -0.03230185     0.03799786     0.07168592
     32      2      H           0.05231601    -0.00790462    -0.01027463
     33      2      H          -0.01243849    -0.09660319    -0.03519065
     34      1      O           0.02242970    -0.00278604    -0.07046117
     35      2      H          -0.03637914    -0.00023477    -0.00884219
     36      2      H           0.00071517    -0.07262881    -0.04980248
     37      1      O          -0.02390874    -0.01395830     0.07814271
     38      2      H          -0.02980770    -0.01376765     0.00207979
     39      2      H           0.02140679     0.05039647    -0.04827131
     40      1      O          -0.03231539    -0.05212783     0.02964908
     41      2      H           0.01220676     0.00493936     0.04221230
     42      2      H           0.01564133    -0.01089627     0.01958833
     43      1      O          -0.02871039    -0.11993348     0.10666278
     44      2      H           0.00642129     0.01755413    -0.03455317
     45      2      H           0.06150879     0.03824781     0.04434749
     46      1      O           0.02190073    -0.12068196     0.08992934
     47      2      H          -0.05404302     0.06731365     0.05751941
     48      2      H           0.03261521     0.00273974    -0.03014648
     49      1      O          -0.03756712     0.05770017     0.11441863
     50      2      H           0.02625339     0.00101700    -0.03735506
     51      2      H          -0.00799234    -0.03186620     0.02567462
     52      1      O          -0.00131062    -0.10946230     0.10863617
     53      2      H           0.01091839     0.03261873     0.02780450
     54      2      H           0.01208062     0.01188592    -0.11708899
     55      1      O          -0.03886433     0.04410572     0.11070545
     56      2      H          -0.01635086    -0.02394259     0.02822588
     57      2      H           0.02233449     0.01185357     0.00468420
     58      1      O          -0.09140759    -0.05454934    -0.11888360
     59      2      H           0.01536016    -0.00781337     0.04645856
     60      2      H           0.06640290    -0.03385143    -0.07776543
     61      1      O          -0.01161369    -0.04171807     0.06232170
     62      2      H           0.04109963    -0.07071631    -0.02649277
     63      2      H          -0.03433217     0.02905931     0.00015770
     64      1      O          -0.05575935     0.04189697     0.10741910
     65      2      H           0.00077431     0.00417855    -0.04750830
     66      2      H           0.03378931    -0.04636637    -0.05422887
     67      1      O           0.08609675    -0.02975648    -0.02673663
     68      2      H          -0.03020914     0.06001378    -0.08710018
     69      2      H          -0.04241568     0.01072413     0.09217130
     70      1      O           0.00438895    -0.03674585     0.07614681
     71      2      H           0.03587217     0.01618890     0.01611379
     72      2      H          -0.06138659     0.05103708     0.02507701
     73      1      O          -0.07899143    -0.02403667    -0.13362563
     74      2      H           0.02565126     0.01257683    -0.02813620
     75      2      H           0.01703242     0.00319762     0.09930473
     76      1      O          -0.03230316     0.01201306    -0.03270568
     77      2      H          -0.01327862     0.01650979    -0.01037114
     78      2      H           0.02274248     0.03827419     0.04048089
     79      1      O           0.02514293     0.03802773    -0.17886175
     80      2      H          -0.02525752    -0.07176916     0.08869191
     81      2      H           0.04227409     0.06421053     0.10083947
     82      1      O           0.02206565    -0.04012745     0.09731328
     83      2      H          -0.03955067    -0.02018112    -0.05128346
     84      2      H          -0.01976660    -0.04808589     0.02065481
     85      1      O           0.09097906    -0.10391798     0.02462486
     86      2      H          -0.05358665    -0.02411033     0.00034207
     87      2      H          -0.03440484     0.06075729     0.04685160
     88      1      O          -0.07926268     0.07233462    -0.10785020
     89      2      H           0.05422031    -0.06913701    -0.00685206
     90      2      H          -0.00871617     0.06364936     0.06868005
     91      1      O          -0.00209672     0.03654520     0.02625529
     92      2      H           0.02061417    -0.05185578     0.09070258
     93      2      H           0.00383884     0.04868270    -0.02939090
     94      1      O          -0.05197597     0.04905252    -0.00828465
     95      2      H           0.00048166    -0.12911876     0.01292209
     96      2      H           0.02030242     0.04160242     0.06624819
     97      1      O          -0.03703704     0.01176034    -0.12933645
     98      2      H           0.05686508    -0.05784911     0.00362437
     99      2      H          -0.00120855     0.02799761     0.02409170
    100      1      O          -0.05769390    -0.20797194    -0.12238888
    101      2      H           0.02258809    -0.01649282    -0.02698514
    102      2      H           0.04994881     0.19221686     0.15585062
    103      1      O           0.00427762    -0.01487011    -0.12803243
    104      2      H          -0.07166430     0.02926211     0.06576972
    105      2      H           0.04025873    -0.03185885     0.03600067
    106      1      O           0.03251781     0.12363158    -0.03953387
    107      2      H          -0.05453269    -0.01117146     0.05198017
    108      2      H           0.02894872    -0.03880293    -0.03913080
    109      1      O           0.02733775    -0.05388743     0.02672698
    110      2      H           0.00717490    -0.02911197     0.10084682
    111      2      H          -0.02038409     0.04847913    -0.00034169
    112      1      O          -0.01908966     0.04720251     0.05656836
    113      2      H           0.01955760    -0.04203106     0.02798125
    114      2      H          -0.01229539    -0.02953662    -0.04861022
    115      1      O           0.00197166    -0.10619153     0.06605087
    116      2      H          -0.02532519     0.04007267     0.00314558
    117      2      H           0.01517649     0.02506676    -0.09761383
    118      1      O           0.03271806    -0.03008467    -0.12707927
    119      2      H           0.01572273     0.07215058    -0.02532975
    120      2      H          -0.03586251     0.00454868     0.11339247
    121      1      O           0.02328420     0.10854009     0.10374742
    122      2      H          -0.03730912     0.02133054     0.02465711
    123      2      H           0.01054081    -0.07121046    -0.08957309
    124      1      O           0.09165881    -0.04060489     0.08982858
    125      2      H          -0.00846064     0.05735226    -0.00208791
    126      2      H          -0.06381251    -0.02834279    -0.05914055
    127      1      O           0.03517593     0.09907890     0.02128813
    128      2      H          -0.07047123    -0.03053778     0.02223600
    129      2      H           0.06008949    -0.05139436    -0.01374982
    130      1      O          -0.08223285    -0.07109059    -0.01273474
    131      2      H           0.02537396     0.01063159     0.01955679
    132      2      H           0.06546315    -0.01424962    -0.03687884
    133      1      O           0.07660865     0.19151468    -0.25759832
    134      2      H          -0.10254405     0.00785796     0.16090537
    135      2      H           0.02430316    -0.20350272     0.03237315
    136      1      O          -0.06037629     0.06115846    -0.09670302
    137      2      H           0.10831095    -0.00771555     0.04039148
    138      2      H          -0.05133639     0.00441609     0.02688528
    139      1      O          -0.07559314     0.02720356     0.05602871
    140      2      H           0.03317644    -0.01071034     0.04748450
    141      2      H           0.03161754    -0.00041726    -0.03151406
    142      1      O           0.04217016     0.00203895    -0.03406779
    143      2      H          -0.00229258    -0.01633195    -0.00768201
    144      2      H          -0.04959744     0.01791085    -0.02048124
    145      1      O           0.06595736     0.02427726     0.03472792
    146      2      H          -0.05832004    -0.02529363     0.08123093
    147      2      H          -0.02058302     0.08638963    -0.00010792
    148      1      O           0.03051215    -0.13650576    -0.01783519
    149      2      H          -0.06272234     0.07068605    -0.04783244
    150      2      H           0.04761676     0.04413885     0.09961306
    151      1      O          -0.13231865    -0.25483966    -0.06696897
    152      2      H           0.13398483     0.19922785     0.06714892
    153      2      H          -0.01672150     0.00476411    -0.05067386
    154      1      O           0.05044343    -0.05624845    -0.00802895
    155      2      H          -0.00221582     0.07106394     0.03296715
    156      2      H          -0.06663945     0.02210023    -0.07328857
    157      1      O          -0.09416747    -0.10053582     0.09961760
    158      2      H           0.03842149    -0.00293619    -0.03999278
    159      2      H           0.02521042     0.03306135     0.06885521
    160      1      O           0.12427683     0.06663659    -0.02875156
    161      2      H          -0.01744143    -0.00470851    -0.06692355
    162      2      H          -0.08616289     0.02967982     0.09856636
    163      1      O          -0.03800820    -0.05335517     0.01372388
    164      2      H           0.06679130    -0.02875236     0.02535800
    165      2      H           0.01380403     0.09246963    -0.03893140
    166      1      O          -0.02156519     0.01530962    -0.08544324
    167      2      H          -0.03086128    -0.03230726    -0.00269704
    168      2      H           0.06005797    -0.02393570     0.01394496
    169      1      O          -0.00915373    -0.06402485    -0.11204365
    170      2      H           0.05743134    -0.03750220     0.01475414
    171      2      H          -0.02714578     0.03299322     0.00291476
    172      1      O           0.01878851    -0.09466989     0.01922824
    173      2      H           0.02147866     0.07938572     0.02941978
    174      2      H          -0.06058067    -0.03721621     0.08501676
    175      1      O           0.04203279     0.01199352     0.12177148
    176      2      H          -0.01673576    -0.02722687    -0.03463936
    177      2      H          -0.00526535    -0.03518661    -0.03649643
    178      1      O           0.03989587     0.03037184    -0.08542601
    179      2      H           0.00000899     0.01138293    -0.01351809
    180      2      H           0.01003918    -0.02675063    -0.00050488
    181      1      O           0.04620804    -0.09273198    -0.04216785
    182      2      H           0.00910217     0.03501129     0.03645632
    183      2      H          -0.01783396    -0.01533620    -0.06465210
    184      1      O           0.03420999    -0.08435256    -0.00004212
    185      2      H          -0.05289081     0.09811402    -0.01130305
    186      2      H          -0.00442662    -0.06563377     0.02373149
    187      1      O          -0.08099067    -0.03710627    -0.03948736
    188      2      H           0.09246122    -0.01132839     0.11585113
    189      2      H           0.02319144     0.09450877    -0.03429326
    190      1      O          -0.02511178     0.03808879     0.04108420
    191      2      H          -0.00477399     0.02249361     0.00472099
    192      2      H           0.00427890    -0.00358777     0.00619357
 SUM OF ATOMIC FORCES           0.03735727    -0.48103230     0.58273991     0.75655366

 -------------------------------------------------------------------------------
 -                                                                             -
 -                                DBCSR STATISTICS                             -
 -                                                                             -
 -------------------------------------------------------------------------------
 COUNTER                                    TOTAL       BLAS       SMM       ACC
 flops     5 x     5 x   256           2072806400       0.0%    100.0%      0.0%
 flops     5 x    13 x   256           2123663360       0.0%    100.0%      0.0%
 flops    13 x     5 x   256           2434199040       0.0%    100.0%      0.0%
 flops    13 x    13 x   256           3646289920       0.0%    100.0%      0.0%
 flops inhomo. stacks                           0       0.0%      0.0%      0.0%
 flops total                        10.276959E+09       0.0%    100.0%      0.0%
 flops max/rank                     10.276959E+09       0.0%    100.0%      0.0%
 matmuls inhomo. stacks                         0       0.0%      0.0%      0.0%
 matmuls total                             341033       0.0%    100.0%      0.0%
 number of processed stacks                 42140       0.0%    100.0%      0.0%
 average stack size                                     0.0       8.1       0.0
 marketing flops                   333.927416E+09
 -------------------------------------------------------------------------------
 # multiplications                            301
 max memory usage/rank              30.558638E+09
 # max total images/rank                        1
 # max 3D layers                                1
 # MPI messages exchanged                       0
 MPI messages size (bytes):
  total size                         0.000000E+00
  min size                           0.000000E+00
  max size                           0.000000E+00
  average size                       0.000000E+00
 MPI breakdown and total messages size (bytes):
             size <=      128                   0                        0
       128 < size <=     8192                   0                        0
      8192 < size <=    32768                   0                        0
     32768 < size <=   131072                   0                        0
    131072 < size <=  4194304                   0                        0
   4194304 < size <= 16777216                   0                        0
  16777216 < size                               0                        0
 -------------------------------------------------------------------------------

 MEMORY| Estimated peak process memory [MiB]                               29141

 -------------------------------------------------------------------------------
 -                                                                             -
 -                           R E F E R E N C E S                               -
 -                                                                             -
 -------------------------------------------------------------------------------
 
 CP2K version 7.1, the CP2K developers group (2019).
 CP2K is freely available from https://www.cp2k.org/ .

 Schuett, Ole; Messmer, Peter; Hutter, Juerg; VandeVondele, Joost. 
 Electronic Structure Calculations on Graphics Processing Units, John
 Wiley & Sons, Ltd, 173-190 (2016). 
 GPU-Accelerated Sparse Matrix-Matrix Multiplication for
 Linear Scaling Density Functional Theory.
 https://dx.doi.org/10.1002/9781118670712.ch8

 Borstnik, U; VandeVondele, J; Weber, V; Hutter, J. 
 PARALLEL COMPUTING, 40 (5-6), 47-58 (2014). 
 Sparse matrix multiplication: The distributed block-compressed sparse
 row library.
 https://dx.doi.org/10.1016/j.parco.2014.03.012

 Hutter, J; Iannuzzi, M; Schiffmann, F; VandeVondele, J. 
 WIREs Comput Mol Sci., 4 (1), 15-25 (2014). 
 CP2K: atomistic simulations of condensed matter systems.
 https://dx.doi.org/10.1002/wcms.1159

 Krack, M. 
 THEORETICAL CHEMISTRY ACCOUNTS, 114 (1-3), 145-152 (2005). 
 Pseudopotentials for H to Kr optimized for gradient-corrected
 exchange-correlation functionals.
 https://dx.doi.org/10.1007/s00214-005-0655-y

 VandeVondele, J; Krack, M; Mohamed, F; Parrinello, M; Chassaing, T;
 Hutter, J. COMPUTER PHYSICS COMMUNICATIONS, 167 (2), 103-128 (2005). 
 QUICKSTEP: Fast and accurate density functional calculations using a
 mixed Gaussian and plane waves approach.
 https://dx.doi.org/10.1016/j.cpc.2004.12.014

 Frigo, M; Johnson, SG. 
 PROCEEDINGS OF THE IEEE, 93 (2), 216-231 (2005). 
 The design and implementation of FFTW3.
 https://dx.doi.org/10.1109/JPROC.2004.840301

 Hartwigsen, C; Goedecker, S; Hutter, J. 
 PHYSICAL REVIEW B, 58 (7), 3641-3662 (1998). 
 Relativistic separable dual-space Gaussian pseudopotentials from H to Rn.
 https://dx.doi.org/10.1103/PhysRevB.58.3641

 Lippert, G; Hutter, J; Parrinello, M. 
 MOLECULAR PHYSICS, 92 (3), 477-487 (1997). 
 A hybrid Gaussian and plane wave density functional scheme.
 https://dx.doi.org/10.1080/002689797170220

 Goedecker, S; Teter, M; Hutter, J. 
 PHYSICAL REVIEW B, 54 (3), 1703-1710 (1996). 
 Separable dual-space Gaussian pseudopotentials.
 https://dx.doi.org/10.1103/PhysRevB.54.1703


 -------------------------------------------------------------------------------
 -                                                                             -
 -                                T I M I N G                                  -
 -                                                                             -
 -------------------------------------------------------------------------------
 SUBROUTINE                       CALLS  ASD         SELF TIME        TOTAL TIME
                                MAXIMUM       AVERAGE  MAXIMUM  AVERAGE  MAXIMUM
 CP2K                                 1  1.0    1.064    1.064 6978.640 6978.640
 qs_forces                            1  2.0    0.000    0.000 6967.405 6967.405
 qs_energies                          1  3.0    0.000    0.000 6963.446 6963.446
 scf_env_do_scf                       1  4.0    0.001    0.001 6952.020 6952.020
 scf_env_do_scf_inner_loop          300  5.0    0.045    0.045 6952.019 6952.019
 gspace_mixing                      299  6.0   42.246   42.246 2947.582 2947.582
 broyden_mixing                     299  7.0 2662.027 2662.027 2662.030 2662.030
 qs_scf_new_mos                     300  6.0    0.008    0.008 1824.029 1824.029
 eigensolver                        300  7.0    0.032    0.032 1777.926 1777.926
 cp_fm_syevd                        300  8.0 1227.433 1227.433 1228.610 1228.610
 pw_transfer                       3912  9.9    0.372    0.372 1157.654 1157.654
 rebuild_ks_matrix                  301  7.0    0.001    0.001 1131.374 1131.374
 qs_ks_build_kohn_sham_matrix       301  8.0    0.097    0.097 1131.373 1131.373
 fft_wrap_pw1pw2                   3310 10.9    0.054    0.054 1128.216 1128.216
 qs_ks_update_qs_env                300  6.0    0.003    0.003 1127.641 1127.641
 qs_rho_update_rho                  301  6.0    0.003    0.003 1053.635 1053.635
 calculate_rho_elec                 301  7.0  516.384  516.384 1053.632 1053.632
 fft_wrap_pw1pw2_70                1504 11.2   89.677   89.677 1030.016 1030.016
 cp_fm_cholesky_restore             900  8.0  548.140  548.140  548.140  548.140
 fft3d_s                           3311 12.9  536.601  536.601  536.637  536.637
 density_rs2pw                      301  8.0    0.031    0.031  528.352  528.352
 pw_scatter_s                      1804 13.2  409.849  409.849  409.849  409.849
 pw_poisson_solve                   301  9.0  334.116  334.116  363.528  363.528
 sum_up_and_integrate               301  9.0   18.320   18.320  312.503  312.503
 integrate_v_rspace                 301 10.0    8.245    8.245  294.183  294.183
 potential_pw2rs                    301 11.0    2.525    2.525  272.473  272.473
 qs_vxc_create                      301  9.0    0.007    0.007  164.467  164.467
 xc_vxc_pw_create                   301 10.0   42.343   42.343  164.460  164.460
 -------------------------------------------------------------------------------

 The number of warnings for this run is : 1
 
 -------------------------------------------------------------------------------
  **** **** ******  **  PROGRAM ENDED AT                 2020-05-26 22:06:09.725
 ***** ** ***  *** **   PROGRAM RAN ON                                   gnode44
 **    ****   ******    PROGRAM RAN BY                               mayank.modi
 ***** **    ** ** **   PROGRAM PROCESS ID                                 23089
  **** **  *******  **  PROGRAM STOPPED IN /home/mayank.modi/ab-initio-thermodyn
                                           amics-of-water/mayank/cp2k_energy_cal
                                           culations
