 DBCSR| CPU Multiplication driver                                           XSMM
 DBCSR| Multrec recursion limit                                              512
 DBCSR| Multiplication stack size                                           1000
 DBCSR| Maximum elements for images                                    UNLIMITED
 DBCSR| Multiplicative factor virtual images                                   1
 DBCSR| Use multiplication densification                                       T
 DBCSR| Multiplication size stacks                                             3


  **** **** ******  **  PROGRAM STARTED AT               2020-05-30 05:10:59.912
 ***** ** ***  *** **   PROGRAM STARTED ON                               gnode44
 **    ****   ******    PROGRAM STARTED BY                           mayank.modi
 ***** **    ** ** **   PROGRAM PROCESS ID                                  4936
  **** **  *******  **  PROGRAM STARTED IN /home/mayank.modi/ab-initio-thermodyn
                                           amics-of-water/mayank/cp2k_energy_cal
                                           culations

 CP2K| version string:                                          CP2K version 7.1
 CP2K| source code revision number:                                  git:e635599
 CP2K| cp2kflags: omp libint fftw3 libxc xsmm spglib                            
 CP2K| is freely available from                            https://www.cp2k.org/
 CP2K| Program compiled at                          Mon Dec 23 19:23:12 CET 2019
 CP2K| Program compiled on                                                pc9404
 CP2K| Program compiled for                                Linux-x86-64-gfortran
 CP2K| Data directory path                                        /opt/cp2k/data
 CP2K| Input file name                                 input_training/input43.in

 GLOBAL| Force Environment number                                              1
 GLOBAL| Basis set file name                                           BASIS_SET
 GLOBAL| Potential file name                                      GTH_POTENTIALS
 GLOBAL| MM Potential file name                                     MM_POTENTIAL
 GLOBAL| Coordinate file name                                      __STD_INPUT__
 GLOBAL| Method name                                                        CP2K
 GLOBAL| Project name                                                   H2O_bulk
 GLOBAL| Preferred FFT library                                             FFTW3
 GLOBAL| Preferred diagonalization lib.                                       SL
 GLOBAL| Run type                                                   ENERGY_FORCE
 GLOBAL| All-to-all communication in single precision                          F
 GLOBAL| FFTs using library dependent lengths                                  F
 GLOBAL| Global print level                                                  LOW
 GLOBAL| MPI I/O enabled                                                       T
 GLOBAL| Total number of message passing processes                             1
 GLOBAL| Number of threads for this process                                   36
 GLOBAL| This output is from process                                           0
 GLOBAL| CPU model name                Intel(R) Xeon(R) CPU E5-2640 v4 @ 2.40GHz
 GLOBAL| CPUID                                                              1002
 GLOBAL| Compiled for CPUID                                                    0

 MEMORY| system memory details [Kb]
 MEMORY|                        rank 0           min           max       average
 MEMORY| MemTotal            131893056     131893056     131893056     131893056
 MEMORY| MemFree             120725764     120725764     120725764     120725764
 MEMORY| Buffers               2129084       2129084       2129084       2129084
 MEMORY| Cached                3474460       3474460       3474460       3474460
 MEMORY| Slab                  3313692       3313692       3313692       3313692
 MEMORY| SReclaimable          3107352       3107352       3107352       3107352
 MEMORY| MemLikelyFree       129436660     129436660     129436660     129436660


 GENERATE| WARNING:: No connections detected for Hydrogen - Atom Nr:       137 !
 GENERATE|  Preliminary Number of Bonds generated:                             0
 GENERATE|  Achieved consistency in connectivity generation.

 *******************************************************************************
 *******************************************************************************
 **                                                                           **
 **     #####                         ##              ##                      **
 **    ##   ##            ##          ##              ##                      **
 **   ##     ##                       ##            ######                    **
 **   ##     ##  ##   ##  ##   #####  ##  ##   ####   ##    #####    #####    **
 **   ##     ##  ##   ##  ##  ##      ## ##   ##      ##   ##   ##  ##   ##   **
 **   ##  ## ##  ##   ##  ##  ##      ####     ###    ##   ######   ######    **
 **    ##  ###   ##   ##  ##  ##      ## ##      ##   ##   ##       ##        **
 **     #######   #####   ##   #####  ##  ##  ####    ##    #####   ##        **
 **           ##                                                    ##        **
 **                                                                           **
 **                                                ... make the atoms dance   **
 **                                                                           **
 **            Copyright (C) by CP2K developers group (2000 - 2019)           **
 **                                                                           **
 *******************************************************************************


 TOTAL NUMBERS AND MAXIMUM NUMBERS

  Total number of            - Atomic kinds:                                   2
                             - Atoms:                                        192
                             - Shell sets:                                   384
                             - Shells:                                       704
                             - Primitive Cartesian functions:                960
                             - Cartesian basis functions:                   1536
                             - Spherical basis functions:                   1472

  Maximum angular momentum of- Orbital basis functions:                        2
                             - Local part of the GTH pseudopotential:          2
                             - Non-local part of the GTH pseudopotential:      0


 SCF PARAMETERS         Density guess:                                    ATOMIC
                        --------------------------------------------------------
                        max_scf:                                             300
                        max_scf_history:                                       0
                        max_diis:                                              4
                        --------------------------------------------------------
                        eps_scf:                                        1.00E-07
                        eps_scf_history:                                0.00E+00
                        eps_diis:                                       1.00E-01
                        eps_eigval:                                     1.00E-05
                        --------------------------------------------------------
                        level_shift [a.u.]:                                 0.00
                        --------------------------------------------------------
                        Mixing method:                            BROYDEN_MIXING
                                                charge density mixing in g-space
                        --------------------------------------------------------
                        No outer SCF

 Number of electrons:                                                        512
 Number of occupied orbitals:                                                256
 Number of molecular orbitals:                                               256

 Number of orbital functions:                                               1472
 Number of independent orbital functions:                                   1472

 Extrapolation method: initial_guess


 SCF WAVEFUNCTION OPTIMIZATION

  Step     Update method      Time    Convergence         Total energy    Change
  ------------------------------------------------------------------------------
     1 NoMix/Diag. 0.40E+00   10.2     0.68793960     -1064.0585000121 -1.06E+03
     2 Broy./Diag. 0.40E+00   15.4     1.92905543      -995.9242786610  6.81E+01
     3 Broy./Diag. 0.40E+00   17.0     1.94539456     -1264.7167895392 -2.69E+02
     4 Broy./Diag. 0.40E+00   16.4     1.91993599     -1116.8863021616  1.48E+02
     5 Broy./Diag. 0.40E+00   18.0     1.73076580     -1098.2806470662  1.86E+01
     6 Broy./Diag. 0.40E+00   19.0     1.79660195     -1098.8211818366 -5.41E-01
     7 Broy./Diag. 0.40E+00   18.5     1.52357905     -1097.8204400217  1.00E+00
     8 Broy./Diag. 0.40E+00   20.5     1.75772493     -1083.6549615515  1.42E+01
     9 Broy./Diag. 0.40E+00   21.5     1.82730744     -1078.5942372260  5.06E+00
    10 Broy./Diag. 0.40E+00   23.4     1.29575205     -1076.9511877144  1.64E+00
    11 Broy./Diag. 0.40E+00   23.7     1.29575205     -1076.9720736958 -2.09E-02
    12 Broy./Diag. 0.40E+00   23.9     1.33207819     -1072.8636874569  4.11E+00
    13 Broy./Diag. 0.40E+00   23.7     1.76412738     -1072.5610960917  3.03E-01
    14 Broy./Diag. 0.40E+00   24.2     1.78665670     -1075.9974048209 -3.44E+00
    15 Broy./Diag. 0.40E+00   23.7     1.26762869     -1074.7438980116  1.25E+00
    16 Broy./Diag. 0.40E+00   23.7     1.06282048     -1080.3199382730 -5.58E+00
    17 Broy./Diag. 0.40E+00   23.6     1.26518448     -1078.6476611015  1.67E+00
    18 Broy./Diag. 0.40E+00   23.4     1.77079483     -1074.2205654885  4.43E+00
    19 Broy./Diag. 0.40E+00   23.4     1.81412648     -1079.0946716305 -4.87E+00
    20 Broy./Diag. 0.40E+00   24.7     1.54194922     -1077.5224599916  1.57E+00
    21 Broy./Diag. 0.40E+00   23.8     1.42148021     -1077.1346715413  3.88E-01
    22 Broy./Diag. 0.40E+00   23.5     1.48255123     -1074.6659803579  2.47E+00
    23 Broy./Diag. 0.40E+00   22.9     1.25728263     -1072.5769649557  2.09E+00
    24 Broy./Diag. 0.40E+00   22.3     1.25728263     -1080.1755333648 -7.60E+00
    25 Broy./Diag. 0.40E+00   23.4     1.45491740     -1074.6932357873  5.48E+00
    26 Broy./Diag. 0.40E+00   23.6     1.50344536     -1076.6539188903 -1.96E+00
    27 Broy./Diag. 0.40E+00   22.3     1.78685163     -1076.6518199901  2.10E-03
    28 Broy./Diag. 0.40E+00   23.2     1.77609700     -1076.5735082422  7.83E-02
    29 Broy./Diag. 0.40E+00   22.9     1.28837533     -1078.7537872347 -2.18E+00
    30 Broy./Diag. 0.40E+00   22.9     1.79868624     -1073.5965161028  5.16E+00
    31 Broy./Diag. 0.40E+00   23.2     1.81205048     -1078.8582541719 -5.26E+00
    32 Broy./Diag. 0.40E+00   23.2     1.45536466     -1078.3523036803  5.06E-01
    33 Broy./Diag. 0.40E+00   23.3     1.47883651     -1079.0161581097 -6.64E-01
    34 Broy./Diag. 0.40E+00   24.6     1.53314580     -1075.0987667463  3.92E+00
    35 Broy./Diag. 0.40E+00   23.9     1.32691308     -1076.2946037460 -1.20E+00
    36 Broy./Diag. 0.40E+00   23.5     1.25703778     -1072.8992917116  3.40E+00
    37 Broy./Diag. 0.40E+00   22.9     1.25703778     -1077.4829806395 -4.58E+00
    38 Broy./Diag. 0.40E+00   21.2     1.28447445     -1074.8919892983  2.59E+00
    39 Broy./Diag. 0.40E+00   21.2     1.78973722     -1078.3682586950 -3.48E+00
    40 Broy./Diag. 0.40E+00   21.3     1.79753083     -1077.2482138866  1.12E+00
    41 Broy./Diag. 0.40E+00   20.6     1.26254070     -1074.2290721204  3.02E+00
    42 Broy./Diag. 0.40E+00   23.1     1.78309451     -1077.3839936219 -3.15E+00
    43 Broy./Diag. 0.40E+00   23.8     1.81561932     -1077.5412101159 -1.57E-01
    44 Broy./Diag. 0.40E+00   23.8     1.10986510     -1076.6368848956  9.04E-01
    45 Broy./Diag. 0.40E+00   24.3     1.08250482     -1076.5787641990  5.81E-02
    46 Broy./Diag. 0.40E+00   23.9     1.25347653     -1076.3248204937  2.54E-01
    47 Broy./Diag. 0.40E+00   23.7     1.28630247     -1073.1928237787  3.13E+00
    48 Broy./Diag. 0.40E+00   23.7     1.28630247     -1078.1027449522 -4.91E+00
    49 Broy./Diag. 0.40E+00   22.4     1.79609027     -1074.5105716286  3.59E+00
    50 Broy./Diag. 0.40E+00   23.9     1.78898755     -1078.2604233166 -3.75E+00
    51 Broy./Diag. 0.40E+00   25.2     1.49207785     -1078.6252495336 -3.65E-01
    52 Broy./Diag. 0.40E+00   24.1     1.79066970     -1077.7912451200  8.34E-01
    53 Broy./Diag. 0.40E+00   23.3     1.82239067     -1078.1063837060 -3.15E-01
    54 Broy./Diag. 0.40E+00   23.6     1.25558659     -1078.7450954736 -6.39E-01
    55 Broy./Diag. 0.40E+00   23.5     1.25639989     -1073.4352294488  5.31E+00
    56 Broy./Diag. 0.40E+00   23.6     1.25639989     -1076.8128267731 -3.38E+00
    57 Broy./Diag. 0.40E+00   23.6     1.78478956     -1073.8524024140  2.96E+00
    58 Broy./Diag. 0.40E+00   23.8     1.79902314     -1079.3024552081 -5.45E+00
    59 Broy./Diag. 0.40E+00   23.1     1.26282779     -1077.0729223085  2.23E+00
    60 Broy./Diag. 0.40E+00   23.8     1.44027120     -1073.6742717180  3.40E+00
    61 Broy./Diag. 0.40E+00   23.2     1.51755399     -1077.2972910010 -3.62E+00
    62 Broy./Diag. 0.40E+00   23.1     1.51764150     -1078.0584780628 -7.61E-01
    63 Broy./Diag. 0.40E+00   23.5     1.24684278     -1076.5741554137  1.48E+00
    64 Broy./Diag. 0.40E+00   24.8     1.78677229     -1075.1084095627  1.47E+00
    65 Broy./Diag. 0.40E+00   23.8     1.80364593     -1078.4024119495 -3.29E+00
    66 Broy./Diag. 0.40E+00   24.9     0.96547206     -1077.4631243347  9.39E-01
    67 Broy./Diag. 0.40E+00   23.5     1.25514992     -1076.3135906673  1.15E+00
    68 Broy./Diag. 0.40E+00   23.9     1.79808019     -1073.8263186067  2.49E+00
    69 Broy./Diag. 0.40E+00   22.3     1.78527817     -1079.5364342157 -5.71E+00
    70 Broy./Diag. 0.40E+00   22.7     1.78493116     -1076.7721222528  2.76E+00
    71 Broy./Diag. 0.40E+00   24.6     1.80473117     -1076.1372836708  6.35E-01
    72 Broy./Diag. 0.40E+00   22.4     1.80620934     -1077.9680085470 -1.83E+00
    73 Broy./Diag. 0.40E+00   21.8     1.81696833     -1078.3544633038 -3.86E-01
    74 Broy./Diag. 0.40E+00   24.2     1.24811212     -1077.5720473928  7.82E-01
    75 Broy./Diag. 0.40E+00   22.7     1.26792542     -1074.1688940349  3.40E+00
    76 Broy./Diag. 0.40E+00   22.3     1.51214133     -1076.5702615506 -2.40E+00
    77 Broy./Diag. 0.40E+00   23.2     1.56363524     -1077.4979844796 -9.28E-01
    78 Broy./Diag. 0.40E+00   22.9     1.24568677     -1072.7316688380  4.77E+00
    79 Broy./Diag. 0.40E+00   22.0     1.24568677     -1078.9459749938 -6.21E+00
    80 Broy./Diag. 0.40E+00   21.4     1.26602477     -1075.1213624627  3.82E+00
    81 Broy./Diag. 0.40E+00   23.4     1.78255823     -1076.8168270732 -1.70E+00
    82 Broy./Diag. 0.40E+00   23.9     1.79072526     -1077.1172382538 -3.00E-01
    83 Broy./Diag. 0.40E+00   24.7     1.41519850     -1076.2443791916  8.73E-01
    84 Broy./Diag. 0.40E+00   24.9     1.47606047     -1077.0313588366 -7.87E-01
    85 Broy./Diag. 0.40E+00   22.4     1.26732239     -1073.8271024950  3.20E+00
    86 Broy./Diag. 0.40E+00   24.4     1.79121047     -1077.7734950213 -3.95E+00
    87 Broy./Diag. 0.40E+00   23.9     1.81816211     -1079.2282478834 -1.45E+00
    88 Broy./Diag. 0.40E+00   24.9     1.28547776     -1076.8345369902  2.39E+00
    89 Broy./Diag. 0.40E+00   23.7     0.96883667     -1075.4978271712  1.34E+00
    90 Broy./Diag. 0.40E+00   24.1     1.26069977     -1073.6387352425  1.86E+00
    91 Broy./Diag. 0.40E+00   22.3     1.08527798     -1078.7158234381 -5.08E+00
    92 Broy./Diag. 0.40E+00   24.1     1.49093222     -1077.7320239045  9.84E-01
    93 Broy./Diag. 0.40E+00   21.8     1.55683361     -1076.3903981516  1.34E+00
    94 Broy./Diag. 0.40E+00   22.6     1.52289496     -1076.2444028196  1.46E-01
    95 Broy./Diag. 0.40E+00   20.5     1.78601252     -1073.0846712642  3.16E+00
    96 Broy./Diag. 0.40E+00   23.3     1.80420558     -1078.8641822028 -5.78E+00
    97 Broy./Diag. 0.40E+00   23.8     1.26015093     -1074.2757616009  4.59E+00
    98 Broy./Diag. 0.40E+00   23.6     1.42963466     -1076.3245516464 -2.05E+00
    99 Broy./Diag. 0.40E+00   24.9     1.48548784     -1078.5812108796 -2.26E+00
   100 Broy./Diag. 0.40E+00   22.4     1.01216402     -1076.6907507098  1.89E+00
   101 Broy./Diag. 0.40E+00   23.7     1.41041012     -1076.6268908736  6.39E-02
   102 Broy./Diag. 0.40E+00   22.6     1.56258620     -1077.6390253047 -1.01E+00
   103 Broy./Diag. 0.40E+00   23.5     1.00878095     -1073.8617355209  3.78E+00
   104 Broy./Diag. 0.40E+00   23.6     1.45560584     -1075.0915252235 -1.23E+00
   105 Broy./Diag. 0.40E+00   23.6     1.79139182     -1076.6980744043 -1.61E+00
   106 Broy./Diag. 0.40E+00   24.5     1.27476460     -1079.4545978508 -2.76E+00
   107 Broy./Diag. 0.40E+00   21.9     1.79785834     -1075.7317409711  3.72E+00
   108 Broy./Diag. 0.40E+00   22.4     1.24686459     -1077.2690012588 -1.54E+00
   109 Broy./Diag. 0.40E+00   21.6     1.26371310     -1073.4046468374  3.86E+00
   110 Broy./Diag. 0.40E+00   22.8     1.25268538     -1078.0171258090 -4.61E+00
   111 Broy./Diag. 0.40E+00   23.0     1.31144300     -1077.9447112812  7.24E-02
   112 Broy./Diag. 0.40E+00   21.9     1.42288662     -1077.0909535297  8.54E-01
   113 Broy./Diag. 0.40E+00   21.9     1.49119110     -1075.8837281430  1.21E+00
   114 Broy./Diag. 0.40E+00   23.5     1.78966743     -1073.9972956692  1.89E+00
   115 Broy./Diag. 0.40E+00   23.1     1.81933285     -1078.7394925542 -4.74E+00
   116 Broy./Diag. 0.40E+00   21.1     1.05350419     -1076.9145353537  1.82E+00
   117 Broy./Diag. 0.40E+00   24.8     1.23954768     -1076.5753856891  3.39E-01
   118 Broy./Diag. 0.40E+00   23.7     1.25761346     -1073.6207981289  2.95E+00
   119 Broy./Diag. 0.40E+00   23.6     0.44971233     -1078.4409771641 -4.82E+00
   120 Broy./Diag. 0.40E+00   22.0     1.26878770     -1076.6205475773  1.82E+00
   121 Broy./Diag. 0.40E+00   23.6     1.27439594     -1073.8139183768  2.81E+00
   122 Broy./Diag. 0.40E+00   23.8     1.18363902     -1077.6308380009 -3.82E+00
   123 Broy./Diag. 0.40E+00   23.9     1.26849892     -1077.3895370842  2.41E-01
   124 Broy./Diag. 0.40E+00   23.5     1.74794898     -1077.3928290737 -3.29E-03
   125 Broy./Diag. 0.40E+00   22.8     1.80269294     -1079.8475114609 -2.45E+00
   126 Broy./Diag. 0.40E+00   22.0     1.69399682     -1077.2409224159  2.61E+00
   127 Broy./Diag. 0.40E+00   22.6     1.69791242     -1077.1550398576  8.59E-02
   128 Broy./Diag. 0.40E+00   24.7     1.23809763     -1076.8608418762  2.94E-01
   129 Broy./Diag. 0.40E+00   23.2     1.23809763     -1076.6284793538  2.32E-01
   130 Broy./Diag. 0.40E+00   21.1     1.79083956     -1073.5815298078  3.05E+00
   131 Broy./Diag. 0.40E+00   24.0     1.81434106     -1079.3362946166 -5.75E+00
   132 Broy./Diag. 0.40E+00   22.5     1.48607127     -1078.7008522631  6.35E-01
   133 Broy./Diag. 0.40E+00   22.9     1.56200729     -1077.5153436561  1.19E+00
   134 Broy./Diag. 0.40E+00   23.4     1.49073956     -1073.3517114884  4.16E+00
   135 Broy./Diag. 0.40E+00   24.7     1.53805249     -1077.5507594404 -4.20E+00
   136 Broy./Diag. 0.40E+00   22.5     1.09937570     -1077.3791270027  1.72E-01
   137 Broy./Diag. 0.40E+00   22.8     1.23786419     -1077.2436152979  1.36E-01
   138 Broy./Diag. 0.40E+00   22.6     1.28798128     -1074.8695747524  2.37E+00
   139 Broy./Diag. 0.40E+00   22.2     1.02819394     -1077.0027348758 -2.13E+00
   140 Broy./Diag. 0.40E+00   23.0     1.79514606     -1076.6078288733  3.95E-01
   141 Broy./Diag. 0.40E+00   23.8     1.81560500     -1078.4783664568 -1.87E+00
   142 Broy./Diag. 0.40E+00   23.6     1.52818399     -1076.5991497555  1.88E+00
   143 Broy./Diag. 0.40E+00   22.9     1.53125345     -1076.3170655223  2.82E-01
   144 Broy./Diag. 0.40E+00   22.4     1.79586178     -1072.8778748120  3.44E+00
   145 Broy./Diag. 0.40E+00   21.2     1.80085750     -1080.4948911285 -7.62E+00
   146 Broy./Diag. 0.40E+00   23.1     0.79709038     -1074.8872180101  5.61E+00
   147 Broy./Diag. 0.40E+00   21.9     1.26165769     -1072.8772029961  2.01E+00
   148 Broy./Diag. 0.40E+00   22.5     1.00900858     -1077.6305579650 -4.75E+00
   149 Broy./Diag. 0.40E+00   23.1     1.24727547     -1077.4009741157  2.30E-01
   150 Broy./Diag. 0.40E+00   23.4     1.61414583     -1074.5978159803  2.80E+00
   151 Broy./Diag. 0.40E+00   22.6     1.61685782     -1076.8311367051 -2.23E+00
   152 Broy./Diag. 0.40E+00   21.3     1.37827437     -1076.1064914255  7.25E-01
   153 Broy./Diag. 0.40E+00   24.0     1.50082029     -1078.1606756263 -2.05E+00
   154 Broy./Diag. 0.40E+00   24.2     1.46923750     -1075.4245613253  2.74E+00
   155 Broy./Diag. 0.40E+00   22.2     1.52615441     -1076.3539196250 -9.29E-01
   156 Broy./Diag. 0.40E+00   23.0     1.53079094     -1077.0576284923 -7.04E-01
   157 Broy./Diag. 0.40E+00   23.3     1.23829729     -1072.2273110571  4.83E+00
   158 Broy./Diag. 0.40E+00   23.1     1.78989699     -1078.9370838210 -6.71E+00
   159 Broy./Diag. 0.40E+00   23.9     1.81546292     -1079.3073039857 -3.70E-01
   160 Broy./Diag. 0.40E+00   23.7     1.24322227     -1077.0862199749  2.22E+00
   161 Broy./Diag. 0.40E+00   24.0     1.26162772     -1074.1077333225  2.98E+00
   162 Broy./Diag. 0.40E+00   24.0     0.96704294     -1078.4289857376 -4.32E+00
   163 Broy./Diag. 0.40E+00   22.8     1.79682729     -1077.3431780524  1.09E+00
   164 Broy./Diag. 0.40E+00   24.3     1.81253497     -1078.7715144409 -1.43E+00
   165 Broy./Diag. 0.40E+00   24.4     1.23931959     -1074.2768456090  4.49E+00
   166 Broy./Diag. 0.40E+00   24.3     1.23931959     -1076.2820316701 -2.01E+00
   167 Broy./Diag. 0.40E+00   24.9     1.26019031     -1073.3242736415  2.96E+00
   168 Broy./Diag. 0.40E+00   24.4     1.49055223     -1078.6162301662 -5.29E+00
   169 Broy./Diag. 0.40E+00   23.6     1.55174627     -1077.9607307092  6.55E-01
   170 Broy./Diag. 0.40E+00   23.6     1.26953051     -1074.4761602699  3.48E+00
   171 Broy./Diag. 0.40E+00   24.4     1.03345710     -1076.7975496132 -2.32E+00
   172 Broy./Diag. 0.40E+00   24.9     1.42279275     -1076.8752654676 -7.77E-02
   173 Broy./Diag. 0.40E+00   23.2     1.79582123     -1078.4747627108 -1.60E+00
   174 Broy./Diag. 0.40E+00   24.0     1.82294783     -1077.5690764441  9.06E-01
   175 Broy./Diag. 0.40E+00   25.2     1.14983816     -1075.9917349344  1.58E+00
   176 Broy./Diag. 0.40E+00   21.7     1.25297670     -1075.6507164757  3.41E-01
   177 Broy./Diag. 0.40E+00   22.9     1.78708075     -1072.4522127799  3.20E+00
   178 Broy./Diag. 0.40E+00   23.1     1.77889501     -1079.3704972290 -6.92E+00
   179 Broy./Diag. 0.40E+00   23.5     1.29144435     -1074.5476973514  4.82E+00
   180 Broy./Diag. 0.40E+00   23.0     1.13973490     -1079.0003490273 -4.45E+00
   181 Broy./Diag. 0.40E+00   22.0     1.42442222     -1076.8026115286  2.20E+00
   182 Broy./Diag. 0.40E+00   24.1     1.47876991     -1077.6405687282 -8.38E-01
   183 Broy./Diag. 0.40E+00   23.9     1.33386054     -1077.1027431814  5.38E-01
   184 Broy./Diag. 0.40E+00   22.3     1.38025041     -1076.6415064127  4.61E-01
   185 Broy./Diag. 0.40E+00   23.5     0.92269955     -1076.1799039226  4.62E-01
   186 Broy./Diag. 0.40E+00   23.3     1.26022299     -1073.9524168701  2.23E+00
   187 Broy./Diag. 0.40E+00   23.3     0.89904130     -1077.2149192513 -3.26E+00
   188 Broy./Diag. 0.40E+00   23.5     1.24572419     -1076.9898581135  2.25E-01
   189 Broy./Diag. 0.40E+00   23.8     1.62719745     -1073.5757703409  3.41E+00
   190 Broy./Diag. 0.40E+00   23.4     1.63229333     -1078.2885048728 -4.71E+00
   191 Broy./Diag. 0.40E+00   23.9     1.43586899     -1078.3954130378 -1.07E-01
   192 Broy./Diag. 0.40E+00   23.7     1.79214889     -1077.7429624947  6.52E-01
   193 Broy./Diag. 0.40E+00   23.9     1.82248341     -1078.7612449034 -1.02E+00
   194 Broy./Diag. 0.40E+00   23.7     1.56403107     -1078.3491831502  4.12E-01
   195 Broy./Diag. 0.40E+00   23.5     1.24307318     -1076.5861360733  1.76E+00
   196 Broy./Diag. 0.40E+00   23.3     1.23011174     -1073.4576367905  3.13E+00
   197 Broy./Diag. 0.40E+00   23.0     1.23011174     -1077.0452642255 -3.59E+00
   198 Broy./Diag. 0.40E+00   23.4     1.38680472     -1074.4261505055  2.62E+00
   199 Broy./Diag. 0.40E+00   23.7     1.39279103     -1077.8547707011 -3.43E+00
   200 Broy./Diag. 0.40E+00   24.6     1.23397068     -1078.9940163683 -1.14E+00
   201 Broy./Diag. 0.40E+00   23.7     1.24864363     -1074.4057335510  4.59E+00
   202 Broy./Diag. 0.40E+00   24.2     1.04933325     -1078.6162635115 -4.21E+00
   203 Broy./Diag. 0.40E+00   24.8     1.48978315     -1076.2373511021  2.38E+00
   204 Broy./Diag. 0.40E+00   23.6     1.51354640     -1074.9572719146  1.28E+00
   205 Broy./Diag. 0.40E+00   25.4     1.30098066     -1077.0166405541 -2.06E+00
   206 Broy./Diag. 0.40E+00   23.5     1.26126921     -1077.1821199807 -1.65E-01
   207 Broy./Diag. 0.40E+00   24.4     1.28537645     -1079.7349465318 -2.55E+00
   208 Broy./Diag. 0.40E+00   24.0     1.24036783     -1077.0898167248  2.65E+00
   209 Broy./Diag. 0.40E+00   23.9     1.26568451     -1073.6058395517  3.48E+00
   210 Broy./Diag. 0.40E+00   23.6     1.49117413     -1079.4789529334 -5.87E+00
   211 Broy./Diag. 0.40E+00   23.5     1.55786138     -1078.5960244726  8.83E-01
   212 Broy./Diag. 0.40E+00   25.6     1.24126293     -1076.1477553871  2.45E+00
   213 Broy./Diag. 0.40E+00   23.7     1.29189483     -1074.8451367601  1.30E+00
   214 Broy./Diag. 0.40E+00   24.3     1.38320235     -1075.8684920739 -1.02E+00
   215 Broy./Diag. 0.40E+00   23.6     1.80824789     -1076.0565204778 -1.88E-01
   216 Broy./Diag. 0.40E+00   24.3     1.82412539     -1075.5350221905  5.21E-01
   217 Broy./Diag. 0.40E+00   24.1     1.52053756     -1077.5000608263 -1.97E+00
   218 Broy./Diag. 0.40E+00   23.1     1.81894273     -1074.0910013974  3.41E+00
   219 Broy./Diag. 0.40E+00   21.9     1.82096137     -1079.2269251166 -5.14E+00
   220 Broy./Diag. 0.40E+00   22.8     1.47151611     -1077.1018135964  2.13E+00
   221 Broy./Diag. 0.40E+00   23.1     1.26950148     -1074.1095946437  2.99E+00
   222 Broy./Diag. 0.40E+00   23.9     1.29489922     -1078.0588861529 -3.95E+00
   223 Broy./Diag. 0.40E+00   23.3     1.31545418     -1077.2486396345  8.10E-01
   224 Broy./Diag. 0.40E+00   23.3     1.25481671     -1075.9323054468  1.32E+00
   225 Broy./Diag. 0.40E+00   22.6     1.46711944     -1073.4328746863  2.50E+00
   226 Broy./Diag. 0.40E+00   21.8     1.46173463     -1078.6595395980 -5.23E+00
   227 Broy./Diag. 0.40E+00   22.8     1.78592031     -1077.7031627739  9.56E-01
   228 Broy./Diag. 0.40E+00   22.7     1.79962119     -1077.1560017596  5.47E-01
   229 Broy./Diag. 0.40E+00   22.4     1.49386835     -1075.7835015785  1.37E+00
   230 Broy./Diag. 0.40E+00   23.6     1.04527575     -1075.1904625050  5.93E-01
   231 Broy./Diag. 0.40E+00   22.9     1.79289702     -1073.2951706562  1.90E+00
   232 Broy./Diag. 0.40E+00   23.2     1.80641403     -1077.6526255957 -4.36E+00
   233 Broy./Diag. 0.40E+00   23.8     1.12849252     -1077.4909629106  1.62E-01
   234 Broy./Diag. 0.40E+00   24.3     1.45683423     -1076.7950412278  6.96E-01
   235 Broy./Diag. 0.40E+00   25.0     1.56676851     -1076.6297258795  1.65E-01
   236 Broy./Diag. 0.40E+00   22.5     1.58146017     -1077.6250228472 -9.95E-01
   237 Broy./Diag. 0.40E+00   22.7     1.22379895     -1076.4876818777  1.14E+00
   238 Broy./Diag. 0.40E+00   23.5     1.79164364     -1073.3255743956  3.16E+00
   239 Broy./Diag. 0.40E+00   23.9     1.78996529     -1078.9978934703 -5.67E+00
   240 Broy./Diag. 0.40E+00   23.5     1.78944449     -1076.1074667201  2.89E+00
   241 Broy./Diag. 0.40E+00   23.8     1.80604698     -1076.7425349397 -6.35E-01
   242 Broy./Diag. 0.40E+00   24.4     1.24168196     -1075.1515628939  1.59E+00
   243 Broy./Diag. 0.40E+00   21.9     1.03906608     -1077.1730341623 -2.02E+00
   244 Broy./Diag. 0.40E+00   23.4     1.23789729     -1077.0930367444  8.00E-02
   245 Broy./Diag. 0.40E+00   24.5     1.25016235     -1073.7773862153  3.32E+00
   246 Broy./Diag. 0.40E+00   21.5     1.79013584     -1078.6876572070 -4.91E+00
   247 Broy./Diag. 0.40E+00   22.3     1.81945335     -1078.1339506658  5.54E-01
   248 Broy./Diag. 0.40E+00   21.7     1.48903141     -1077.5954870350  5.38E-01
   249 Broy./Diag. 0.40E+00   21.9     1.57847467     -1075.5460091192  2.05E+00
   250 Broy./Diag. 0.40E+00   24.0     1.51190224     -1076.2723026323 -7.26E-01
   251 Broy./Diag. 0.40E+00   24.4     1.24593706     -1073.1796364361  3.09E+00
   252 Broy./Diag. 0.40E+00   23.6     1.78385787     -1078.3947852959 -5.22E+00
   253 Broy./Diag. 0.40E+00   23.4     1.78919372     -1077.7575502817  6.37E-01
   254 Broy./Diag. 0.40E+00   24.0     1.23862691     -1075.9069336954  1.85E+00
   255 Broy./Diag. 0.40E+00   23.9     1.23862691     -1077.2094937634 -1.30E+00
   256 Broy./Diag. 0.40E+00   24.2     1.27021088     -1073.7045898422  3.50E+00
   257 Broy./Diag. 0.40E+00   23.7     1.46897003     -1076.6001445332 -2.90E+00
   258 Broy./Diag. 0.40E+00   22.5     1.81754224     -1077.7544407195 -1.15E+00
   259 Broy./Diag. 0.40E+00   21.9     1.82279779     -1078.6031843151 -8.49E-01
   260 Broy./Diag. 0.40E+00   24.0     1.52411405     -1077.0690341444  1.53E+00
   261 Broy./Diag. 0.40E+00   23.7     1.25216074     -1073.6859449056  3.38E+00
   262 Broy./Diag. 0.40E+00   22.7     1.19188195     -1078.6688559845 -4.98E+00
   263 Broy./Diag. 0.40E+00   23.3     1.23400094     -1076.9819069689  1.69E+00
   264 Broy./Diag. 0.40E+00   23.7     1.24913239     -1073.9613347553  3.02E+00
   265 Broy./Diag. 0.40E+00   23.9     1.05054135     -1076.8180983361 -2.86E+00
   266 Broy./Diag. 0.40E+00   25.0     1.01179261     -1076.7452623110  7.28E-02
   267 Broy./Diag. 0.40E+00   25.0     1.23741617     -1076.7080244824  3.72E-02
   268 Broy./Diag. 0.40E+00   23.9     1.80116142     -1073.8107045950  2.90E+00
   269 Broy./Diag. 0.40E+00   23.9     0.97167111     -1079.7689753882 -5.96E+00
   270 Broy./Diag. 0.40E+00   24.9     1.80546401     -1078.8364940518  9.32E-01
   271 Broy./Diag. 0.40E+00   25.0     1.47086567     -1078.1009918843  7.36E-01
   272 Broy./Diag. 0.40E+00   23.7     1.24540058     -1073.9923004186  4.11E+00
   273 Broy./Diag. 0.40E+00   24.0     1.78181660     -1078.5588899852 -4.57E+00
   274 Broy./Diag. 0.40E+00   23.5     1.80830801     -1078.4660567705  9.28E-02
   275 Broy./Diag. 0.40E+00   24.3     1.24979919     -1073.4136873395  5.05E+00
   276 Broy./Diag. 0.40E+00   23.4     1.08976426     -1079.3418927743 -5.93E+00
   277 Broy./Diag. 0.40E+00   22.6     1.24849995     -1077.8165843006  1.53E+00
   278 Broy./Diag. 0.40E+00   21.8     1.26970050     -1074.3459922209  3.47E+00
   279 Broy./Diag. 0.40E+00   23.3     1.42981364     -1076.9249217519 -2.58E+00
   280 Broy./Diag. 0.40E+00   23.1     1.49176387     -1077.7430990516 -8.18E-01
   281 Broy./Diag. 0.40E+00   23.1     1.52944845     -1078.5891680210 -8.46E-01
   282 Broy./Diag. 0.40E+00   21.2     1.78612419     -1077.2189297094  1.37E+00
   283 Broy./Diag. 0.40E+00   22.3     1.83632629     -1075.8738127404  1.35E+00
   284 Broy./Diag. 0.40E+00   23.3     1.25143159     -1073.7562944934  2.12E+00
   285 Broy./Diag. 0.40E+00   23.8     1.13255292     -1077.5534589986 -3.80E+00
   286 Broy./Diag. 0.40E+00   23.6     1.42238484     -1076.9249135082  6.29E-01
   287 Broy./Diag. 0.40E+00   24.2     1.47273980     -1075.8322016813  1.09E+00
   288 Broy./Diag. 0.40E+00   24.3     1.78992996     -1073.8974475052  1.93E+00
   289 Broy./Diag. 0.40E+00   23.4     1.25602744     -1078.3825261747 -4.49E+00
   290 Broy./Diag. 0.40E+00   23.6     1.79685155     -1076.1278338943  2.25E+00
   291 Broy./Diag. 0.40E+00   23.9     1.80215055     -1078.8534584356 -2.73E+00
   292 Broy./Diag. 0.40E+00   24.2     1.82226216     -1078.2656529884  5.88E-01
   293 Broy./Diag. 0.40E+00   23.4     1.38904233     -1077.8749401855  3.91E-01
   294 Broy./Diag. 0.40E+00   23.9     1.04380376     -1075.4430534787  2.43E+00
   295 Broy./Diag. 0.40E+00   25.1     1.24939429     -1075.7398841455 -2.97E-01
   296 Broy./Diag. 0.40E+00   22.1     1.25393757     -1074.2621149596  1.48E+00
   297 Broy./Diag. 0.40E+00   22.3     1.25393757     -1076.5196106602 -2.26E+00
   298 Broy./Diag. 0.40E+00   23.5     1.78814911     -1074.0563811691  2.46E+00
   299 Broy./Diag. 0.40E+00   23.7     1.79830187     -1079.3932956644 -5.34E+00
   300 Broy./Diag. 0.40E+00   23.0     1.00724367     -1076.8681413689  2.53E+00

  Leaving inner SCF loop after reaching   300 steps.


  Electronic density on regular grids:       -511.9996070525        0.0003929475
  Core density on regular grids:              511.9997796935       -0.0002203065
  Total charge density on r-space grids:        0.0001726410
  Total charge density g-space grids:           0.0001726410

  Overlap energy of the core charge distribution:               0.00000000000000
  Self energy of the core charge distribution:              -2838.21791979120962
  Core Hamiltonian energy:                                    758.77856439185075
  Hartree energy:                                            1241.06403062892923
  Exchange-correlation energy:                               -238.49281659849771

  Total energy:                                             -1076.86814136892713

 *** WARNING in qs_scf.F:542 :: SCF run NOT converged ***


 ENERGY| Total FORCE_EVAL ( QS ) energy (a.u.):            -1073.991359281414134


 ATOMIC FORCES in [a.u.]

 # Atom   Kind   Element          X              Y              Z
      1      1      O          -0.01478210     0.12687118     0.07190405
      2      2      H          -0.00356902     0.01059409    -0.04162685
      3      2      H           0.00471646    -0.06245259     0.09814146
      4      1      O           0.06779529     0.07845068    -0.01977746
      5      2      H           0.00452094    -0.08464605     0.05224268
      6      2      H          -0.04023307     0.06716918     0.07651022
      7      1      O          -0.05501720    -0.00196548     0.00838641
      8      2      H           0.03310924     0.01843502    -0.07362099
      9      2      H           0.02424750    -0.04443648     0.03600113
     10      1      O           0.02440506    -0.13215523     0.12779643
     11      2      H           0.03394887     0.04138292    -0.09402302
     12      2      H          -0.05211595     0.05502313     0.01779608
     13      1      O          -0.02603001     0.06448219     0.05937739
     14      2      H          -0.04079736    -0.05809759    -0.01486828
     15      2      H           0.05955596    -0.06953196    -0.00281676
     16      1      O          -0.08518520    -0.05620492    -0.07601624
     17      2      H           0.06549902    -0.06053296    -0.00075446
     18      2      H          -0.00346676     0.05275716    -0.03109275
     19      1      O          -0.00083329     0.10895326    -0.05566854
     20      2      H           0.02977634    -0.04541429    -0.04460229
     21      2      H          -0.00222916     0.01518944     0.11085036
     22      1      O           0.00903469     0.02165962    -0.15925248
     23      2      H          -0.01718883    -0.01829700     0.09022147
     24      2      H           0.04698702     0.04909997     0.06790468
     25      1      O           0.03404645    -0.02990167     0.10716428
     26      2      H           0.00847611     0.03938645    -0.11165131
     27      2      H          -0.06796881    -0.00139491    -0.01240766
     28      1      O           0.02113881    -0.04501195    -0.17106875
     29      2      H          -0.03284158     0.04163293     0.06178007
     30      2      H          -0.00438244    -0.05047563     0.06538939
     31      1      O          -0.07379513     0.03328330    -0.11129930
     32      2      H           0.00730822     0.07285529     0.04118972
     33      2      H           0.07480407     0.01132638    -0.00252738
     34      1      O          -0.10371842    -0.03488680    -0.09434695
     35      2      H           0.05175035    -0.07702451    -0.06070202
     36      2      H           0.07883017     0.09508205    -0.00904323
     37      1      O          -0.01735841    -0.11186871    -0.02040648
     38      2      H          -0.05240336     0.09699242    -0.10151236
     39      2      H           0.05851143    -0.04501265     0.01720747
     40      1      O          -0.02687019     0.00706826    -0.08315442
     41      2      H          -0.05480609    -0.00402040     0.04386383
     42      2      H           0.04362659    -0.03026251     0.03850621
     43      1      O          -0.01921005    -0.03544468    -0.06912987
     44      2      H          -0.04799049    -0.06449258     0.03686420
     45      2      H           0.07079106     0.01225383     0.00109169
     46      1      O          -0.05023269     0.01146901    -0.17322258
     47      2      H          -0.05529158    -0.13249951     0.14201386
     48      2      H           0.13688964     0.16662224     0.02786818
     49      1      O           0.00791981     0.04346463    -0.01224682
     50      2      H           0.08777335     0.04273069     0.02973093
     51      2      H          -0.05384487    -0.02376953     0.01355908
     52      1      O          -0.09104175     0.07097923    -0.11005248
     53      2      H           0.08577535    -0.00772727    -0.01323843
     54      2      H           0.01198943     0.03532788     0.11756657
     55      1      O          -0.09715849     0.11865324     0.05546115
     56      2      H           0.05089571    -0.06142136    -0.06672089
     57      2      H           0.03077579     0.00169118     0.09073106
     58      1      O          -0.00546541     0.08216781    -0.05404179
     59      2      H          -0.07077481    -0.03482601    -0.00974193
     60      2      H           0.05715907    -0.02487084    -0.01693933
     61      1      O          -0.04439721     0.13302221     0.09199705
     62      2      H           0.06217994    -0.02232107     0.00047026
     63      2      H          -0.00861824    -0.09435391    -0.02291201
     64      1      O           0.03705103    -0.00698974     0.03269763
     65      2      H           0.01209103     0.10481620     0.03563098
     66      2      H          -0.03189198    -0.03423927    -0.08993551
     67      1      O           0.08418540    -0.02992233     0.05093024
     68      2      H          -0.05231227     0.00890690    -0.08137225
     69      2      H          -0.02722744    -0.02835240     0.08100411
     70      1      O          -0.06436795     0.00358611     0.05341216
     71      2      H          -0.00528247     0.09187941     0.06954658
     72      2      H           0.07113325    -0.03178124    -0.02551109
     73      1      O           0.03511050     0.12099700     0.02712944
     74      2      H          -0.05869674    -0.03116007    -0.04933479
     75      2      H           0.00449957    -0.07640245     0.07450505
     76      1      O          -0.00330729    -0.10698900    -0.07500163
     77      2      H           0.01971468    -0.03000159     0.03977594
     78      2      H           0.01428580     0.02901547     0.00916308
     79      1      O          -0.02986243     0.12199890    -0.10551914
     80      2      H           0.06386735    -0.03868840    -0.01277494
     81      2      H          -0.05205225    -0.05573301    -0.02717036
     82      1      O          -0.10621210     0.00328296    -0.00768740
     83      2      H           0.06426442     0.05333871    -0.00415696
     84      2      H           0.02961324    -0.07416271     0.00637390
     85      1      O          -0.01191514     0.02780720    -0.09254239
     86      2      H          -0.00458789    -0.07363392    -0.07042761
     87      2      H           0.06380136    -0.02342206     0.08473521
     88      1      O           0.08104921    -0.06630400    -0.10786873
     89      2      H           0.00438238    -0.01388325     0.08856383
     90      2      H          -0.08390701    -0.00358428     0.00210692
     91      1      O          -0.04766971     0.02291393     0.06446719
     92      2      H          -0.05072673     0.08918989    -0.03283236
     93      2      H           0.01273086    -0.04029222    -0.07694385
     94      1      O           0.01686057    -0.00003161     0.04642075
     95      2      H           0.01983296    -0.04552088     0.04733191
     96      2      H          -0.05481850    -0.00698249    -0.05597544
     97      1      O           0.04202314    -0.09331791    -0.15374918
     98      2      H           0.00840276     0.05655434     0.00082856
     99      2      H          -0.04161193    -0.04970730     0.04029421
    100      1      O           0.05345846    -0.06244362    -0.14302494
    101      2      H          -0.05089539    -0.01974768     0.07475862
    102      2      H           0.02743398     0.05170663     0.04827040
    103      1      O           0.03572124     0.07156042    -0.09832927
    104      2      H           0.00995738    -0.05803365    -0.01534346
    105      2      H          -0.03173066    -0.03528085     0.05098114
    106      1      O           0.07766950    -0.01393476    -0.01563202
    107      2      H          -0.00615670     0.05330113     0.04876007
    108      2      H          -0.03513798     0.04717521    -0.03968101
    109      1      O           0.07577981    -0.08509558     0.16282850
    110      2      H          -0.00013814     0.05433496    -0.05178295
    111      2      H          -0.03823967    -0.03724867    -0.00283808
    112      1      O           0.07070419    -0.01370120     0.09150946
    113      2      H          -0.03962926     0.03462424     0.07135801
    114      2      H           0.01042028    -0.03090323    -0.05279450
    115      1      O          -0.04684897     0.10972721    -0.02952290
    116      2      H          -0.02204908    -0.06765197     0.02798750
    117      2      H           0.02093916     0.00333569     0.11660154
    118      1      O          -0.01599442    -0.11656951    -0.03655806
    119      2      H          -0.01992282     0.07838452     0.03215612
    120      2      H           0.04911322    -0.02512175     0.03013128
    121      1      O          -0.08908078    -0.02231879     0.14734189
    122      2      H          -0.00436310     0.09322586    -0.01197109
    123      2      H           0.06523829     0.00577976    -0.01308114
    124      1      O          -0.06331067    -0.00216293    -0.12602042
    125      2      H           0.01027023    -0.10574319    -0.03775069
    126      2      H           0.00842405     0.03247621     0.03517571
    127      1      O          -0.03200671    -0.01538919     0.06851051
    128      2      H           0.02650372    -0.05568711    -0.00310022
    129      2      H           0.03396485     0.03004811     0.01531423
    130      1      O          -0.05676698     0.03467681     0.08976824
    131      2      H           0.04331071    -0.05627960     0.03826003
    132      2      H           0.04061962     0.06335923    -0.03175766
    133      1      O          -0.00182719    -0.08192247     0.14227874
    134      2      H          -0.02172293     0.06151862     0.04269018
    135      2      H           0.04962963    -0.00328325    -0.11176065
    136      1      O          -0.00658078     0.05684580    -0.12554388
    137      2      H          -0.00772698    -0.01960230    -0.01786184
    138      2      H           0.01436189    -0.04722423    -0.03282773
    139      1      O          -0.09324195     0.00277538    -0.01712132
    140      2      H           0.05822202    -0.04754614    -0.07133011
    141      2      H           0.01341941    -0.02531103     0.09421077
    142      1      O          -0.01240630    -0.05864228     0.10670219
    143      2      H           0.05452253     0.04284959     0.02329449
    144      2      H          -0.05413342     0.04814989     0.05515121
    145      1      O           0.05164398    -0.12338197     0.09703765
    146      2      H           0.05013162     0.05499696    -0.00747211
    147      2      H          -0.07946262    -0.01178769    -0.02061328
    148      1      O          -0.05194938    -0.02324735     0.08279255
    149      2      H          -0.02468744     0.10364235     0.03533370
    150      2      H           0.03238321     0.02948262    -0.09945371
    151      1      O           0.00443479     0.15435675    -0.05671084
    152      2      H           0.00208437    -0.04654846     0.07261942
    153      2      H           0.01225226    -0.01531553    -0.03886036
    154      1      O          -0.05289281    -0.01759368    -0.07166515
    155      2      H           0.03236413    -0.05124169     0.05494897
    156      2      H           0.03931073     0.05395075    -0.04713747
    157      1      O           0.04761698    -0.11113085    -0.09081922
    158      2      H           0.04192972     0.02537416     0.04455948
    159      2      H          -0.07847125     0.00023205     0.01671939
    160      1      O           0.08624362     0.05981216     0.06600529
    161      2      H           0.00328536    -0.05198648     0.05362406
    162      2      H          -0.06415659     0.01251265    -0.05669176
    163      1      O          -0.05652526    -0.02557239     0.02334896
    164      2      H           0.05597452     0.07039236     0.00842662
    165      2      H          -0.00497436    -0.08122193    -0.04357150
    166      1      O          -0.04590375    -0.11909086     0.00128386
    167      2      H           0.04323695     0.05805342    -0.00209741
    168      2      H          -0.00186672     0.01198084    -0.08816485
    169      1      O          -0.01160329     0.08570728     0.04177072
    170      2      H          -0.06981179    -0.04611484    -0.01535271
    171      2      H           0.04110357    -0.01068130    -0.02236203
    172      1      O          -0.00438658    -0.04659626    -0.05876613
    173      2      H          -0.05361214     0.06848872    -0.00070269
    174      2      H           0.08036998    -0.01154829     0.03808269
    175      1      O           0.01643158    -0.04459145    -0.06651672
    176      2      H          -0.07385223    -0.01470884     0.04644305
    177      2      H           0.04847543    -0.02446631     0.01449718
    178      1      O          -0.07245688     0.06939362     0.01244550
    179      2      H           0.01282742    -0.06322448    -0.01414856
    180      2      H           0.04575521     0.05376380    -0.05094759
    181      1      O          -0.03682912     0.00156811     0.11510207
    182      2      H          -0.03232345     0.07692790    -0.08485982
    183      2      H           0.04157684    -0.07785869    -0.05672150
    184      1      O           0.01170262     0.07370050     0.09490054
    185      2      H          -0.07468032    -0.03933832    -0.03744909
    186      2      H           0.08253009    -0.02266274    -0.05771264
    187      1      O          -0.03220714     0.05375022     0.08178573
    188      2      H           0.07054408    -0.00824706    -0.05180311
    189      2      H          -0.01015854     0.04514619    -0.04371489
    190      1      O           0.05079198    -0.06370154    -0.02757082
    191      2      H           0.01391181     0.06442588    -0.03173859
    192      2      H          -0.05594849     0.00072813    -0.02076122
 SUM OF ATOMIC FORCES           0.15299549    -0.02052064    -0.08903615     0.17820256

 -------------------------------------------------------------------------------
 -                                                                             -
 -                                DBCSR STATISTICS                             -
 -                                                                             -
 -------------------------------------------------------------------------------
 COUNTER                                    TOTAL       BLAS       SMM       ACC
 flops     5 x     5 x   256           3729510400       0.0%    100.0%      0.0%
 flops    13 x     5 x   256           4387568640       0.0%    100.0%      0.0%
 flops     5 x    13 x   256           4537827840       0.0%    100.0%      0.0%
 flops    13 x    13 x   256           6485187072       0.0%    100.0%      0.0%
 flops inhomo. stacks                           0       0.0%      0.0%      0.0%
 flops total                        19.140094E+09       0.0%    100.0%      0.0%
 flops max/rank                     19.140094E+09       0.0%    100.0%      0.0%
 matmuls inhomo. stacks                         0       0.0%      0.0%      0.0%
 matmuls total                             634508       0.0%    100.0%      0.0%
 number of processed stacks                 42140       0.0%    100.0%      0.0%
 average stack size                                     0.0      15.1       0.0
 marketing flops                   333.927416E+09
 -------------------------------------------------------------------------------
 # multiplications                            301
 max memory usage/rank              30.522343E+09
 # max total images/rank                        1
 # max 3D layers                                1
 # MPI messages exchanged                       0
 MPI messages size (bytes):
  total size                         0.000000E+00
  min size                           0.000000E+00
  max size                           0.000000E+00
  average size                       0.000000E+00
 MPI breakdown and total messages size (bytes):
             size <=      128                   0                        0
       128 < size <=     8192                   0                        0
      8192 < size <=    32768                   0                        0
     32768 < size <=   131072                   0                        0
    131072 < size <=  4194304                   0                        0
   4194304 < size <= 16777216                   0                        0
  16777216 < size                               0                        0
 -------------------------------------------------------------------------------

 MEMORY| Estimated peak process memory [MiB]                               29103

 -------------------------------------------------------------------------------
 -                                                                             -
 -                           R E F E R E N C E S                               -
 -                                                                             -
 -------------------------------------------------------------------------------
 
 CP2K version 7.1, the CP2K developers group (2019).
 CP2K is freely available from https://www.cp2k.org/ .

 Schuett, Ole; Messmer, Peter; Hutter, Juerg; VandeVondele, Joost. 
 Electronic Structure Calculations on Graphics Processing Units, John
 Wiley & Sons, Ltd, 173-190 (2016). 
 GPU-Accelerated Sparse Matrix-Matrix Multiplication for
 Linear Scaling Density Functional Theory.
 https://dx.doi.org/10.1002/9781118670712.ch8

 Borstnik, U; VandeVondele, J; Weber, V; Hutter, J. 
 PARALLEL COMPUTING, 40 (5-6), 47-58 (2014). 
 Sparse matrix multiplication: The distributed block-compressed sparse
 row library.
 https://dx.doi.org/10.1016/j.parco.2014.03.012

 Hutter, J; Iannuzzi, M; Schiffmann, F; VandeVondele, J. 
 WIREs Comput Mol Sci., 4 (1), 15-25 (2014). 
 CP2K: atomistic simulations of condensed matter systems.
 https://dx.doi.org/10.1002/wcms.1159

 Krack, M. 
 THEORETICAL CHEMISTRY ACCOUNTS, 114 (1-3), 145-152 (2005). 
 Pseudopotentials for H to Kr optimized for gradient-corrected
 exchange-correlation functionals.
 https://dx.doi.org/10.1007/s00214-005-0655-y

 VandeVondele, J; Krack, M; Mohamed, F; Parrinello, M; Chassaing, T;
 Hutter, J. COMPUTER PHYSICS COMMUNICATIONS, 167 (2), 103-128 (2005). 
 QUICKSTEP: Fast and accurate density functional calculations using a
 mixed Gaussian and plane waves approach.
 https://dx.doi.org/10.1016/j.cpc.2004.12.014

 Frigo, M; Johnson, SG. 
 PROCEEDINGS OF THE IEEE, 93 (2), 216-231 (2005). 
 The design and implementation of FFTW3.
 https://dx.doi.org/10.1109/JPROC.2004.840301

 Hartwigsen, C; Goedecker, S; Hutter, J. 
 PHYSICAL REVIEW B, 58 (7), 3641-3662 (1998). 
 Relativistic separable dual-space Gaussian pseudopotentials from H to Rn.
 https://dx.doi.org/10.1103/PhysRevB.58.3641

 Lippert, G; Hutter, J; Parrinello, M. 
 MOLECULAR PHYSICS, 92 (3), 477-487 (1997). 
 A hybrid Gaussian and plane wave density functional scheme.
 https://dx.doi.org/10.1080/002689797170220

 Goedecker, S; Teter, M; Hutter, J. 
 PHYSICAL REVIEW B, 54 (3), 1703-1710 (1996). 
 Separable dual-space Gaussian pseudopotentials.
 https://dx.doi.org/10.1103/PhysRevB.54.1703


 -------------------------------------------------------------------------------
 -                                                                             -
 -                                T I M I N G                                  -
 -                                                                             -
 -------------------------------------------------------------------------------
 SUBROUTINE                       CALLS  ASD         SELF TIME        TOTAL TIME
                                MAXIMUM       AVERAGE  MAXIMUM  AVERAGE  MAXIMUM
 CP2K                                 1  1.0    1.040    1.040 6987.609 6987.609
 qs_forces                            1  2.0    0.000    0.000 6976.565 6976.565
 qs_energies                          1  3.0    0.000    0.000 6972.962 6972.962
 scf_env_do_scf                       1  4.0    0.001    0.001 6961.656 6961.656
 scf_env_do_scf_inner_loop          300  5.0    0.049    0.049 6961.655 6961.655
 gspace_mixing                      299  6.0   42.247   42.247 2908.292 2908.292
 broyden_mixing                     299  7.0 2626.044 2626.044 2626.047 2626.047
 qs_scf_new_mos                     300  6.0    0.008    0.008 1931.640 1931.640
 eigensolver                        300  7.0    0.034    0.034 1899.358 1899.358
 cp_fm_syevd                        300  8.0 1268.933 1268.933 1270.048 1270.048
 pw_transfer                       3912  9.9    0.382    0.382 1121.628 1121.628
 fft_wrap_pw1pw2                   3310 10.9    0.051    0.051 1096.271 1096.271
 rebuild_ks_matrix                  301  7.0    0.001    0.001 1092.381 1092.381
 qs_ks_build_kohn_sham_matrix       301  8.0    0.085    0.085 1092.379 1092.379
 qs_ks_update_qs_env                300  6.0    0.004    0.004 1089.130 1089.130
 qs_rho_update_rho                  301  6.0    0.003    0.003 1034.385 1034.385
 calculate_rho_elec                 301  7.0  517.011  517.011 1034.382 1034.382
 fft_wrap_pw1pw2_70                1504 11.2   87.577   87.577 1008.123 1008.123
 cp_fm_cholesky_restore             900  8.0  628.180  628.180  628.180  628.180
 fft3d_s                           3311 12.9  515.676  515.676  515.702  515.702
 density_rs2pw                      301  8.0    0.032    0.032  509.916  509.916
 pw_scatter_s                      1804 13.2  410.038  410.038  410.038  410.038
 pw_poisson_solve                   301  9.0  335.391  335.391  360.716  360.716
 sum_up_and_integrate               301  9.0   18.678   18.678  287.011  287.011
 integrate_v_rspace                 301 10.0    7.666    7.666  268.332  268.332
 potential_pw2rs                    301 11.0    2.504    2.504  259.668  259.668
 qs_vxc_create                      301  9.0    0.008    0.008  160.324  160.324
 xc_vxc_pw_create                   301 10.0   42.429   42.429  160.316  160.316
 -------------------------------------------------------------------------------

 The number of warnings for this run is : 1
 
 -------------------------------------------------------------------------------
  **** **** ******  **  PROGRAM ENDED AT                 2020-05-30 07:07:28.526
 ***** ** ***  *** **   PROGRAM RAN ON                                   gnode44
 **    ****   ******    PROGRAM RAN BY                               mayank.modi
 ***** **    ** ** **   PROGRAM PROCESS ID                                  4936
  **** **  *******  **  PROGRAM STOPPED IN /home/mayank.modi/ab-initio-thermodyn
                                           amics-of-water/mayank/cp2k_energy_cal
                                           culations
