 DBCSR| CPU Multiplication driver                                           XSMM
 DBCSR| Multrec recursion limit                                              512
 DBCSR| Multiplication stack size                                           1000
 DBCSR| Maximum elements for images                                    UNLIMITED
 DBCSR| Multiplicative factor virtual images                                   1
 DBCSR| Use multiplication densification                                       T
 DBCSR| Multiplication size stacks                                             3


  **** **** ******  **  PROGRAM STARTED AT               2020-05-29 03:09:10.761
 ***** ** ***  *** **   PROGRAM STARTED ON                               gnode44
 **    ****   ******    PROGRAM STARTED BY                           mayank.modi
 ***** **    ** ** **   PROGRAM PROCESS ID                                 25549
  **** **  *******  **  PROGRAM STARTED IN /home/mayank.modi/ab-initio-thermodyn
                                           amics-of-water/mayank/cp2k_energy_cal
                                           culations

 CP2K| version string:                                          CP2K version 7.1
 CP2K| source code revision number:                                  git:e635599
 CP2K| cp2kflags: omp libint fftw3 libxc xsmm spglib                            
 CP2K| is freely available from                            https://www.cp2k.org/
 CP2K| Program compiled at                          Mon Dec 23 19:23:12 CET 2019
 CP2K| Program compiled on                                                pc9404
 CP2K| Program compiled for                                Linux-x86-64-gfortran
 CP2K| Data directory path                                        /opt/cp2k/data
 CP2K| Input file name                                 input_training/input30.in

 GLOBAL| Force Environment number                                              1
 GLOBAL| Basis set file name                                           BASIS_SET
 GLOBAL| Potential file name                                      GTH_POTENTIALS
 GLOBAL| MM Potential file name                                     MM_POTENTIAL
 GLOBAL| Coordinate file name                                      __STD_INPUT__
 GLOBAL| Method name                                                        CP2K
 GLOBAL| Project name                                                   H2O_bulk
 GLOBAL| Preferred FFT library                                             FFTW3
 GLOBAL| Preferred diagonalization lib.                                       SL
 GLOBAL| Run type                                                   ENERGY_FORCE
 GLOBAL| All-to-all communication in single precision                          F
 GLOBAL| FFTs using library dependent lengths                                  F
 GLOBAL| Global print level                                                  LOW
 GLOBAL| MPI I/O enabled                                                       T
 GLOBAL| Total number of message passing processes                             1
 GLOBAL| Number of threads for this process                                   36
 GLOBAL| This output is from process                                           0
 GLOBAL| CPU model name                Intel(R) Xeon(R) CPU E5-2640 v4 @ 2.40GHz
 GLOBAL| CPUID                                                              1002
 GLOBAL| Compiled for CPUID                                                    0

 MEMORY| system memory details [Kb]
 MEMORY|                        rank 0           min           max       average
 MEMORY| MemTotal            131893056     131893056     131893056     131893056
 MEMORY| MemFree             119194204     119194204     119194204     119194204
 MEMORY| Buffers               2122100       2122100       2122100       2122100
 MEMORY| Cached                3087420       3087420       3087420       3087420
 MEMORY| Slab                  3313268       3313268       3313268       3313268
 MEMORY| SReclaimable          3100888       3100888       3100888       3100888
 MEMORY| MemLikelyFree       127504612     127504612     127504612     127504612


 GENERATE| WARNING:: No connections detected for Hydrogen - Atom Nr:        20 !
 GENERATE| WARNING:: No connections detected for Hydrogen - Atom Nr:        77 !
 GENERATE|  Preliminary Number of Bonds generated:                             0
 GENERATE|  Achieved consistency in connectivity generation.

 *******************************************************************************
 *******************************************************************************
 **                                                                           **
 **     #####                         ##              ##                      **
 **    ##   ##            ##          ##              ##                      **
 **   ##     ##                       ##            ######                    **
 **   ##     ##  ##   ##  ##   #####  ##  ##   ####   ##    #####    #####    **
 **   ##     ##  ##   ##  ##  ##      ## ##   ##      ##   ##   ##  ##   ##   **
 **   ##  ## ##  ##   ##  ##  ##      ####     ###    ##   ######   ######    **
 **    ##  ###   ##   ##  ##  ##      ## ##      ##   ##   ##       ##        **
 **     #######   #####   ##   #####  ##  ##  ####    ##    #####   ##        **
 **           ##                                                    ##        **
 **                                                                           **
 **                                                ... make the atoms dance   **
 **                                                                           **
 **            Copyright (C) by CP2K developers group (2000 - 2019)           **
 **                                                                           **
 *******************************************************************************


 TOTAL NUMBERS AND MAXIMUM NUMBERS

  Total number of            - Atomic kinds:                                   2
                             - Atoms:                                        192
                             - Shell sets:                                   384
                             - Shells:                                       704
                             - Primitive Cartesian functions:                960
                             - Cartesian basis functions:                   1536
                             - Spherical basis functions:                   1472

  Maximum angular momentum of- Orbital basis functions:                        2
                             - Local part of the GTH pseudopotential:          2
                             - Non-local part of the GTH pseudopotential:      0


 SCF PARAMETERS         Density guess:                                    ATOMIC
                        --------------------------------------------------------
                        max_scf:                                             300
                        max_scf_history:                                       0
                        max_diis:                                              4
                        --------------------------------------------------------
                        eps_scf:                                        1.00E-07
                        eps_scf_history:                                0.00E+00
                        eps_diis:                                       1.00E-01
                        eps_eigval:                                     1.00E-05
                        --------------------------------------------------------
                        level_shift [a.u.]:                                 0.00
                        --------------------------------------------------------
                        Mixing method:                            BROYDEN_MIXING
                                                charge density mixing in g-space
                        --------------------------------------------------------
                        No outer SCF

 Number of electrons:                                                        512
 Number of occupied orbitals:                                                256
 Number of molecular orbitals:                                               256

 Number of orbital functions:                                               1472
 Number of independent orbital functions:                                   1472

 Extrapolation method: initial_guess


 SCF WAVEFUNCTION OPTIMIZATION

  Step     Update method      Time    Convergence         Total energy    Change
  ------------------------------------------------------------------------------
     1 NoMix/Diag. 0.40E+00   10.4     0.68793960     -1064.1429341184 -1.06E+03
     2 Broy./Diag. 0.40E+00   15.7     1.91808842      -996.4667557289  6.77E+01
     3 Broy./Diag. 0.40E+00   17.7     1.94183887     -1261.9099378214 -2.65E+02
     4 Broy./Diag. 0.40E+00   18.5     1.74916676     -1115.9409464735  1.46E+02
     5 Broy./Diag. 0.40E+00   18.3     1.68415962     -1098.8662107520  1.71E+01
     6 Broy./Diag. 0.40E+00   19.1     1.81593736     -1097.6449888827  1.22E+00
     7 Broy./Diag. 0.40E+00   20.0     1.27382599     -1089.7076653365  7.94E+00
     8 Broy./Diag. 0.40E+00   21.8     1.72926207     -1079.2381990881  1.05E+01
     9 Broy./Diag. 0.40E+00   23.6     1.79024841     -1078.3013709102  9.37E-01
    10 Broy./Diag. 0.40E+00   24.3     1.66658318     -1077.8772463191  4.24E-01
    11 Broy./Diag. 0.40E+00   24.6     1.72923847     -1075.7502340683  2.13E+00
    12 Broy./Diag. 0.40E+00   24.0     1.77686402     -1082.3519128130 -6.60E+00
    13 Broy./Diag. 0.40E+00   23.9     1.78919535     -1079.4827787887  2.87E+00
    14 Broy./Diag. 0.40E+00   23.9     1.81297949     -1079.2142825896  2.68E-01
    15 Broy./Diag. 0.40E+00   24.4     1.77813611     -1074.9892783530  4.23E+00
    16 Broy./Diag. 0.40E+00   24.6     1.63474736     -1075.0725938956 -8.33E-02
    17 Broy./Diag. 0.40E+00   24.5     1.71331435     -1074.3497164328  7.23E-01
    18 Broy./Diag. 0.40E+00   24.4     1.73908120     -1075.6267818356 -1.28E+00
    19 Broy./Diag. 0.40E+00   24.3     1.80790040     -1078.5674743541 -2.94E+00
    20 Broy./Diag. 0.40E+00   24.5     1.28134464     -1076.1126581591  2.45E+00
    21 Broy./Diag. 0.40E+00   24.3     1.29550539     -1073.3150015892  2.80E+00
    22 Broy./Diag. 0.40E+00   24.2     1.71117397     -1080.6581093470 -7.34E+00
    23 Broy./Diag. 0.40E+00   24.6     1.71820627     -1079.6838648685  9.74E-01
    24 Broy./Diag. 0.40E+00   24.0     1.74520663     -1076.3475536166  3.34E+00
    25 Broy./Diag. 0.40E+00   24.3     1.82214478     -1075.8820091477  4.66E-01
    26 Broy./Diag. 0.40E+00   25.0     1.71712569     -1075.5619959048  3.20E-01
    27 Broy./Diag. 0.40E+00   24.7     1.79739635     -1075.8255068685 -2.64E-01
    28 Broy./Diag. 0.40E+00   24.1     1.68477686     -1073.6530796345  2.17E+00
    29 Broy./Diag. 0.40E+00   24.5     1.80584916     -1080.0918991289 -6.44E+00
    30 Broy./Diag. 0.40E+00   24.1     1.69626273     -1079.3397425642  7.52E-01
    31 Broy./Diag. 0.40E+00   24.2     1.47538226     -1075.9855499543  3.35E+00
    32 Broy./Diag. 0.40E+00   24.6     1.68168935     -1074.4501746820  1.54E+00
    33 Broy./Diag. 0.40E+00   24.7     1.35570569     -1076.6761550477 -2.23E+00
    34 Broy./Diag. 0.40E+00   24.6     1.64228452     -1076.5030223798  1.73E-01
    35 Broy./Diag. 0.40E+00   24.5     1.68982943     -1076.4300440187  7.30E-02
    36 Broy./Diag. 0.40E+00   25.2     1.26996731     -1073.4241648440  3.01E+00
    37 Broy./Diag. 0.40E+00   24.9     1.79686821     -1079.6430545591 -6.22E+00
    38 Broy./Diag. 0.40E+00   25.0     1.83264927     -1079.4268137285  2.16E-01
    39 Broy./Diag. 0.40E+00   24.7     1.70612895     -1076.1471884915  3.28E+00
    40 Broy./Diag. 0.40E+00   24.4     1.71596833     -1078.4159512421 -2.27E+00
    41 Broy./Diag. 0.40E+00   24.4     1.67502434     -1073.0998392317  5.32E+00
    42 Broy./Diag. 0.40E+00   24.6     1.68319993     -1079.8392234158 -6.74E+00
    43 Broy./Diag. 0.40E+00   24.5     1.67952109     -1078.8996148829  9.40E-01
    44 Broy./Diag. 0.40E+00   24.7     1.27905243     -1075.5229866849  3.38E+00
    45 Broy./Diag. 0.40E+00   24.5     1.74458890     -1072.5608392370  2.96E+00
    46 Broy./Diag. 0.40E+00   24.7     1.74764753     -1077.3763251003 -4.82E+00
    47 Broy./Diag. 0.40E+00   24.5     1.79846530     -1079.9933598628 -2.62E+00
    48 Broy./Diag. 0.40E+00   24.7     1.82745650     -1079.4532671921  5.40E-01
    49 Broy./Diag. 0.40E+00   24.7     1.63385277     -1076.6251405396  2.83E+00
    50 Broy./Diag. 0.40E+00   24.5     1.73135274     -1076.2800485189  3.45E-01
    51 Broy./Diag. 0.40E+00   24.6     1.77802813     -1076.0200103125  2.60E-01
    52 Broy./Diag. 0.40E+00   24.6     1.26032697     -1072.7398483134  3.28E+00
    53 Broy./Diag. 0.40E+00   25.0     1.26032697     -1078.5379971847 -5.80E+00
    54 Broy./Diag. 0.40E+00   24.6     1.66040683     -1075.6043480762  2.93E+00
    55 Broy./Diag. 0.40E+00   24.5     1.70623364     -1079.6234164903 -4.02E+00
    56 Broy./Diag. 0.40E+00   24.6     1.71086055     -1076.7651533334  2.86E+00
    57 Broy./Diag. 0.40E+00   24.2     1.75235072     -1076.4210625324  3.44E-01
    58 Broy./Diag. 0.40E+00   24.6     1.69380957     -1076.1589286070  2.62E-01
    59 Broy./Diag. 0.40E+00   24.7     1.75436939     -1075.7592388194  4.00E-01
    60 Broy./Diag. 0.40E+00   24.5     1.80641901     -1075.6828630951  7.64E-02
    61 Broy./Diag. 0.40E+00   24.1     1.58079264     -1075.6359903610  4.69E-02
    62 Broy./Diag. 0.40E+00   24.5     1.26765095     -1076.7322172701 -1.10E+00
    63 Broy./Diag. 0.40E+00   23.5     1.82519131     -1071.8381383282  4.89E+00
    64 Broy./Diag. 0.40E+00   24.2     1.82356959     -1077.6081411159 -5.77E+00
    65 Broy./Diag. 0.40E+00   24.3     1.70827491     -1079.1471705822 -1.54E+00
    66 Broy./Diag. 0.40E+00   24.2     1.66280370     -1076.5227319044  2.62E+00
    67 Broy./Diag. 0.40E+00   24.7     1.66903683     -1076.1396506265  3.83E-01
    68 Broy./Diag. 0.40E+00   24.2     1.77583382     -1076.1655521573 -2.59E-02
    69 Broy./Diag. 0.40E+00   25.5     1.79824073     -1078.7588309589 -2.59E+00
    70 Broy./Diag. 0.40E+00   24.3     1.71024763     -1073.8024181362  4.96E+00
    71 Broy./Diag. 0.40E+00   24.5     1.73492139     -1079.4204371019 -5.62E+00
    72 Broy./Diag. 0.40E+00   24.1     1.41720350     -1075.9001495998  3.52E+00
    73 Broy./Diag. 0.40E+00   24.1     1.24283631     -1076.5188540685 -6.19E-01
    74 Broy./Diag. 0.40E+00   25.2     1.73687387     -1073.2767121696  3.24E+00
    75 Broy./Diag. 0.40E+00   24.4     1.75496329     -1077.1208245687 -3.84E+00
    76 Broy./Diag. 0.40E+00   24.4     1.67096326     -1076.9064410639  2.14E-01
    77 Broy./Diag. 0.40E+00   23.4     1.70747279     -1079.3886615034 -2.48E+00
    78 Broy./Diag. 0.40E+00   24.0     1.77756203     -1076.6741037715  2.71E+00
    79 Broy./Diag. 0.40E+00   24.3     1.65962395     -1078.5073842665 -1.83E+00
    80 Broy./Diag. 0.40E+00   24.5     1.64079197     -1073.7835592674  4.72E+00
    81 Broy./Diag. 0.40E+00   24.8     1.80977656     -1079.4703831173 -5.69E+00
    82 Broy./Diag. 0.40E+00   24.3     1.37219617     -1075.8720416920  3.60E+00
    83 Broy./Diag. 0.40E+00   25.4     1.68924080     -1079.1819616587 -3.31E+00
    84 Broy./Diag. 0.40E+00   24.5     1.75435532     -1072.7241499131  6.46E+00
    85 Broy./Diag. 0.40E+00   24.9     1.75092526     -1076.8480653379 -4.12E+00
    86 Broy./Diag. 0.40E+00   24.6     1.64789383     -1076.6797693605  1.68E-01
    87 Broy./Diag. 0.40E+00   24.4     1.53750384     -1077.1657499700 -4.86E-01
    88 Broy./Diag. 0.40E+00   24.6     1.71458668     -1076.3301757982  8.36E-01
    89 Broy./Diag. 0.40E+00   24.6     1.73465964     -1079.3037887331 -2.97E+00
    90 Broy./Diag. 0.40E+00   24.8     1.39389851     -1072.8878157890  6.42E+00
    91 Broy./Diag. 0.40E+00   24.7     1.65306680     -1079.4566765736 -6.57E+00
    92 Broy./Diag. 0.40E+00   24.5     1.71538325     -1076.2397418820  3.22E+00
    93 Broy./Diag. 0.40E+00   24.6     1.80951561     -1078.4710274830 -2.23E+00
    94 Broy./Diag. 0.40E+00   24.5     1.82990025     -1079.6006781121 -1.13E+00
    95 Broy./Diag. 0.40E+00   24.2     1.71691019     -1079.3020886926  2.99E-01
    96 Broy./Diag. 0.40E+00   24.7     1.75752408     -1072.2934002191  7.01E+00
    97 Broy./Diag. 0.40E+00   24.4     1.75188874     -1076.8549351163 -4.56E+00
    98 Broy./Diag. 0.40E+00   24.7     1.24580588     -1076.5933670369  2.62E-01
    99 Broy./Diag. 0.40E+00   24.1     1.30847184     -1073.2430597501  3.35E+00
   100 Broy./Diag. 0.40E+00   24.4     1.66226281     -1078.9809952368 -5.74E+00
   101 Broy./Diag. 0.40E+00   24.2     1.70390243     -1078.9064948927  7.45E-02
   102 Broy./Diag. 0.40E+00   22.8     1.78182994     -1076.5232551114  2.38E+00
   103 Broy./Diag. 0.40E+00   23.8     1.81171828     -1079.0948879872 -2.57E+00
   104 Broy./Diag. 0.40E+00   23.8     1.71421160     -1073.1758926185  5.92E+00
   105 Broy./Diag. 0.40E+00   24.3     1.73039200     -1079.1924728346 -6.02E+00
   106 Broy./Diag. 0.40E+00   24.5     1.74724933     -1073.3054299188  5.89E+00
   107 Broy./Diag. 0.40E+00   24.6     1.74619225     -1079.9416747437 -6.64E+00
   108 Broy./Diag. 0.40E+00   24.4     1.75835306     -1076.7697403702  3.17E+00
   109 Broy./Diag. 0.40E+00   25.0     1.66993018     -1079.6852463999 -2.92E+00
   110 Broy./Diag. 0.40E+00   24.3     1.69736527     -1076.3370826515  3.35E+00
   111 Broy./Diag. 0.40E+00   24.4     1.71621835     -1078.7153754425 -2.38E+00
   112 Broy./Diag. 0.40E+00   24.4     1.67199586     -1078.6161640059  9.92E-02
   113 Broy./Diag. 0.40E+00   24.3     1.71186278     -1079.1159787356 -5.00E-01
   114 Broy./Diag. 0.40E+00   24.4     1.36622563     -1075.4412701608  3.67E+00
   115 Broy./Diag. 0.40E+00   24.6     1.26814932     -1075.2187467694  2.23E-01
   116 Broy./Diag. 0.40E+00   24.1     1.83400566     -1072.6430182493  2.58E+00
   117 Broy./Diag. 0.40E+00   24.3     1.82760383     -1080.1287260596 -7.49E+00
   118 Broy./Diag. 0.40E+00   23.3     1.78051319     -1076.0762016308  4.05E+00
   119 Broy./Diag. 0.40E+00   23.9     1.66540616     -1072.9009661126  3.18E+00
   120 Broy./Diag. 0.40E+00   24.0     1.68468948     -1079.4119287580 -6.51E+00
   121 Broy./Diag. 0.40E+00   24.1     1.68158681     -1075.8579189595  3.55E+00
   122 Broy./Diag. 0.40E+00   23.9     1.28210172     -1072.6336100816  3.22E+00
   123 Broy./Diag. 0.40E+00   24.0     1.25325930     -1079.7834738230 -7.15E+00
   124 Broy./Diag. 0.40E+00   24.2     1.72328720     -1074.0594021498  5.72E+00
   125 Broy./Diag. 0.40E+00   24.9     1.75270179     -1076.2037671300 -2.14E+00
   126 Broy./Diag. 0.40E+00   24.0     1.20772304     -1076.1367581528  6.70E-02
   127 Broy./Diag. 0.40E+00   24.8     1.75522026     -1079.1596418024 -3.02E+00
   128 Broy./Diag. 0.40E+00   23.4     1.78748000     -1079.2139659789 -5.43E-02
   129 Broy./Diag. 0.40E+00   24.6     1.85675268     -1078.6956718620  5.18E-01
   130 Broy./Diag. 0.40E+00   25.4     1.72631158     -1078.5385048367  1.57E-01
   131 Broy./Diag. 0.40E+00   24.6     1.68496787     -1073.2982508265  5.24E+00
   132 Broy./Diag. 0.40E+00   24.5     1.69189773     -1079.3670923960 -6.07E+00
   133 Broy./Diag. 0.40E+00   24.3     1.66066573     -1072.9093001571  6.46E+00
   134 Broy./Diag. 0.40E+00   24.3     1.65294743     -1080.1581113636 -7.25E+00
   135 Broy./Diag. 0.40E+00   22.9     1.25519717     -1076.9875686418  3.17E+00
   136 Broy./Diag. 0.40E+00   23.4     1.78430378     -1076.3313569828  6.56E-01
   137 Broy./Diag. 0.40E+00   24.3     1.79232654     -1076.6135047876 -2.82E-01
   138 Broy./Diag. 0.40E+00   24.7     1.78588202     -1076.1213241195  4.92E-01
   139 Broy./Diag. 0.40E+00   24.8     1.71945857     -1075.7832062178  3.38E-01
   140 Broy./Diag. 0.40E+00   24.1     1.64876697     -1072.8295914632  2.95E+00
   141 Broy./Diag. 0.40E+00   24.0     1.43758135     -1076.4310297499 -3.60E+00
   142 Broy./Diag. 0.40E+00   24.3     1.69654828     -1079.4020576270 -2.97E+00
   143 Broy./Diag. 0.40E+00   25.0     1.73733418     -1075.1008754374  4.30E+00
   144 Broy./Diag. 0.40E+00   25.2     1.75978357     -1079.3934851712 -4.29E+00
   145 Broy./Diag. 0.40E+00   24.4     1.67506441     -1079.0300245145  3.63E-01
   146 Broy./Diag. 0.40E+00   24.9     1.30896980     -1078.5286032567  5.01E-01
   147 Broy./Diag. 0.40E+00   24.6     1.83233520     -1078.3347446575  1.94E-01
   148 Broy./Diag. 0.40E+00   24.8     1.72613943     -1079.0886315545 -7.54E-01
   149 Broy./Diag. 0.40E+00   24.9     1.78970677     -1076.1870785015  2.90E+00
   150 Broy./Diag. 0.40E+00   24.6     0.21476999     -1071.9683452833  4.22E+00
   151 Broy./Diag. 0.40E+00   24.3     1.25000790     -1073.9884531320 -2.02E+00
   152 Broy./Diag. 0.40E+00   25.2     1.09707402     -1078.0682214574 -4.08E+00
   153 Broy./Diag. 0.40E+00   22.6     1.77611040     -1076.7992639123  1.27E+00
   154 Broy./Diag. 0.40E+00   23.6     1.78955872     -1076.1585107928  6.41E-01
   155 Broy./Diag. 0.40E+00   23.4     1.29635082     -1074.3123000606  1.85E+00
   156 Broy./Diag. 0.40E+00   24.2     1.32960786     -1079.5947762501 -5.28E+00
   157 Broy./Diag. 0.40E+00   23.5     1.70196183     -1076.3545479890  3.24E+00
   158 Broy./Diag. 0.40E+00   24.1     1.52321748     -1078.8995668084 -2.55E+00
   159 Broy./Diag. 0.40E+00   24.0     1.62264196     -1076.4805772091  2.42E+00
   160 Broy./Diag. 0.40E+00   24.1     1.45225064     -1079.5019774965 -3.02E+00
   161 Broy./Diag. 0.40E+00   24.4     1.28962344     -1075.4887031939  4.01E+00
   162 Broy./Diag. 0.40E+00   24.6     1.82824379     -1072.0760626187  3.41E+00
   163 Broy./Diag. 0.40E+00   24.7     1.80141781     -1078.2340241375 -6.16E+00
   164 Broy./Diag. 0.40E+00   24.7     1.68928817     -1079.6777546632 -1.44E+00
   165 Broy./Diag. 0.40E+00   24.8     1.74086721     -1079.1328245900  5.45E-01
   166 Broy./Diag. 0.40E+00   24.8     1.40617630     -1075.9671585668  3.17E+00
   167 Broy./Diag. 0.40E+00   24.7     1.27366664     -1072.9302479624  3.04E+00
   168 Broy./Diag. 0.40E+00   24.9     1.71025272     -1076.2775593356 -3.35E+00
   169 Broy./Diag. 0.40E+00   24.7     1.74492689     -1076.4189290973 -1.41E-01
   170 Broy./Diag. 0.40E+00   24.5     1.78714103     -1073.1371817689  3.28E+00
   171 Broy./Diag. 0.40E+00   24.9     1.78426432     -1079.3437828684 -6.21E+00
   172 Broy./Diag. 0.40E+00   23.7     1.73703246     -1076.3714496535  2.97E+00
   173 Broy./Diag. 0.40E+00   24.6     1.78686168     -1075.9468402033  4.25E-01
   174 Broy./Diag. 0.40E+00   24.7     1.74698126     -1076.3274656079 -3.81E-01
   175 Broy./Diag. 0.40E+00   24.3     1.73238018     -1078.8648758514 -2.54E+00
   176 Broy./Diag. 0.40E+00   24.2     1.57519858     -1076.3502120081  2.51E+00
   177 Broy./Diag. 0.40E+00   24.6     1.30578724     -1076.0407790748  3.09E-01
   178 Broy./Diag. 0.40E+00   24.6     1.65174252     -1076.2804745254 -2.40E-01
   179 Broy./Diag. 0.40E+00   24.4     1.68973552     -1079.4552997772 -3.17E+00
   180 Broy./Diag. 0.40E+00   23.0     1.79993055     -1072.3053141038  7.15E+00
   181 Broy./Diag. 0.40E+00   24.1     1.81439727     -1079.9837330271 -7.68E+00
   182 Broy./Diag. 0.40E+00   25.3     1.76607582     -1076.7472527171  3.24E+00
   183 Broy./Diag. 0.40E+00   24.6     1.29432250     -1073.2012912362  3.55E+00
   184 Broy./Diag. 0.40E+00   24.7     1.32431688     -1078.6068290684 -5.41E+00
   185 Broy./Diag. 0.40E+00   24.0     1.76710964     -1072.3800300853  6.23E+00
   186 Broy./Diag. 0.40E+00   24.6     1.74404046     -1080.0308478920 -7.65E+00
   187 Broy./Diag. 0.40E+00   24.8     1.65629092     -1079.7511077615  2.80E-01
   188 Broy./Diag. 0.40E+00   24.3     1.41383881     -1076.8178004995  2.93E+00
   189 Broy./Diag. 0.40E+00   24.9     1.77255451     -1077.8765347574 -1.06E+00
   190 Broy./Diag. 0.40E+00   25.5     1.82252750     -1078.5657459493 -6.89E-01
   191 Broy./Diag. 0.40E+00   23.9     1.73262973     -1075.8101171887  2.76E+00
   192 Broy./Diag. 0.40E+00   24.5     1.80802273     -1075.6383043866  1.72E-01
   193 Broy./Diag. 0.40E+00   24.5     1.40919455     -1072.3150998874  3.32E+00
   194 Broy./Diag. 0.40E+00   23.1     1.25082154     -1079.2215227830 -6.91E+00
   195 Broy./Diag. 0.40E+00   21.6     1.42157609     -1076.3359594995  2.89E+00
   196 Broy./Diag. 0.40E+00   23.0     1.29038511     -1076.6988000423 -3.63E-01
   197 Broy./Diag. 0.40E+00   21.2     1.65254434     -1076.5629662558  1.36E-01
   198 Broy./Diag. 0.40E+00   24.1     1.79480122     -1079.2582947426 -2.70E+00
   199 Broy./Diag. 0.40E+00   24.0     1.81312277     -1078.8677284905  3.91E-01
   200 Broy./Diag. 0.40E+00   24.5     1.80790425     -1075.8492194867  3.02E+00
   201 Broy./Diag. 0.40E+00   24.5     1.64422723     -1072.3789967435  3.47E+00
   202 Broy./Diag. 0.40E+00   23.9     1.67022230     -1077.2218885543 -4.84E+00
   203 Broy./Diag. 0.40E+00   24.2     1.65369844     -1080.0935143735 -2.87E+00
   204 Broy./Diag. 0.40E+00   24.3     1.65155705     -1076.6035424889  3.49E+00
   205 Broy./Diag. 0.40E+00   25.1     1.43653477     -1076.3120117332  2.92E-01
   206 Broy./Diag. 0.40E+00   25.1     1.77203810     -1073.1208508586  3.19E+00
   207 Broy./Diag. 0.40E+00   24.5     1.51497565     -1079.2959727594 -6.18E+00
   208 Broy./Diag. 0.40E+00   24.2     1.79238913     -1078.8557255334  4.40E-01
   209 Broy./Diag. 0.40E+00   25.4     1.40909612     -1076.1975916840  2.66E+00
   210 Broy./Diag. 0.40E+00   24.6     1.28616304     -1079.0381519324 -2.84E+00
   211 Broy./Diag. 0.40E+00   24.5     1.42159809     -1075.9293339427  3.11E+00
   212 Broy./Diag. 0.40E+00   24.6     1.65991003     -1073.5928589303  2.34E+00
   213 Broy./Diag. 0.40E+00   25.1     1.67814313     -1079.6978427764 -6.10E+00
   214 Broy./Diag. 0.40E+00   24.6     1.72889324     -1079.2157875424  4.82E-01
   215 Broy./Diag. 0.40E+00   24.8     1.76624354     -1079.1838847331  3.19E-02
   216 Broy./Diag. 0.40E+00   24.4     1.54885397     -1076.6626710637  2.52E+00
   217 Broy./Diag. 0.40E+00   24.7     1.61414042     -1076.0328449819  6.30E-01
   218 Broy./Diag. 0.40E+00   24.6     1.65705468     -1072.8417292485  3.19E+00
   219 Broy./Diag. 0.40E+00   24.2     1.67772642     -1079.6819212412 -6.84E+00
   220 Broy./Diag. 0.40E+00   24.3     1.72226096     -1072.8364933409  6.85E+00
   221 Broy./Diag. 0.40E+00   24.0     1.72847096     -1079.5429443744 -6.71E+00
   222 Broy./Diag. 0.40E+00   23.9     1.26499292     -1074.7355365832  4.81E+00
   223 Broy./Diag. 0.40E+00   24.2     1.46188696     -1076.5752103903 -1.84E+00
   224 Broy./Diag. 0.40E+00   24.0     1.74978865     -1076.7692417630 -1.94E-01
   225 Broy./Diag. 0.40E+00   24.1     1.78513340     -1076.2064333484  5.63E-01
   226 Broy./Diag. 0.40E+00   24.3     1.80635330     -1072.8285698118  3.38E+00
   227 Broy./Diag. 0.40E+00   24.4     1.81625494     -1079.0367416218 -6.21E+00
   228 Broy./Diag. 0.40E+00   24.0     1.70528544     -1076.4098032918  2.63E+00
   229 Broy./Diag. 0.40E+00   25.6     0.44776142     -1078.8136596441 -2.40E+00
   230 Broy./Diag. 0.40E+00   24.4     1.70393913     -1079.2978656588 -4.84E-01
   231 Broy./Diag. 0.40E+00   23.8     1.71427725     -1072.9252713746  6.37E+00
   232 Broy./Diag. 0.40E+00   24.2     1.73733821     -1079.6119135825 -6.69E+00
   233 Broy./Diag. 0.40E+00   24.5     1.25971081     -1076.2289027012  3.38E+00
   234 Broy./Diag. 0.40E+00   25.0     1.25048429     -1076.0788974887  1.50E-01
   235 Broy./Diag. 0.40E+00   24.8     1.45282041     -1074.1747077692  1.90E+00
   236 Broy./Diag. 0.40E+00   24.6     1.64987398     -1076.3212215472 -2.15E+00
   237 Broy./Diag. 0.40E+00   24.8     1.65089928     -1076.2892230145  3.20E-02
   238 Broy./Diag. 0.40E+00   24.7     1.80469157     -1076.3578724156 -6.86E-02
   239 Broy./Diag. 0.40E+00   24.4     1.82445002     -1079.5138573783 -3.16E+00
   240 Broy./Diag. 0.40E+00   24.5     1.72985723     -1072.8866879636  6.63E+00
   241 Broy./Diag. 0.40E+00   24.9     1.75038905     -1079.3471354339 -6.46E+00
   242 Broy./Diag. 0.40E+00   25.0     1.76264644     -1076.2708345496  3.08E+00
   243 Broy./Diag. 0.40E+00   24.7     1.70290734     -1075.9559004177  3.15E-01
   244 Broy./Diag. 0.40E+00   24.4     1.43633603     -1075.8908517965  6.50E-02
   245 Broy./Diag. 0.40E+00   24.5     1.65980676     -1073.8803950990  2.01E+00
   246 Broy./Diag. 0.40E+00   22.8     1.43280702     -1079.3507580161 -5.47E+00
   247 Broy./Diag. 0.40E+00   24.0     1.76201552     -1078.6978183304  6.53E-01
   248 Broy./Diag. 0.40E+00   24.5     1.79702153     -1078.4178818381  2.80E-01
   249 Broy./Diag. 0.40E+00   23.9     1.30565302     -1073.0831195293  5.33E+00
   250 Broy./Diag. 0.40E+00   24.7     1.73754210     -1076.8185303439 -3.74E+00
   251 Broy./Diag. 0.40E+00   22.4     1.75620811     -1079.8719999877 -3.05E+00
   252 Broy./Diag. 0.40E+00   23.4     1.74682522     -1079.5655123540  3.06E-01
   253 Broy./Diag. 0.40E+00   24.0     1.65460029     -1076.1354527846  3.43E+00
   254 Broy./Diag. 0.40E+00   23.7     1.29671223     -1076.4141314591 -2.79E-01
   255 Broy./Diag. 0.40E+00   24.4     1.26471807     -1073.4704722923  2.94E+00
   256 Broy./Diag. 0.40E+00   25.5     0.82206918     -1076.7467575438 -3.28E+00
   257 Broy./Diag. 0.40E+00   24.7     1.73609647     -1076.9194460333 -1.73E-01
   258 Broy./Diag. 0.40E+00   23.7     0.84792649     -1079.1526056471 -2.23E+00
   259 Broy./Diag. 0.40E+00   24.1     1.74068364     -1077.9058762126  1.25E+00
   260 Broy./Diag. 0.40E+00   25.2     1.74250428     -1076.2245909792  1.68E+00
   261 Broy./Diag. 0.40E+00   22.8     1.80239476     -1079.2142264537 -2.99E+00
   262 Broy./Diag. 0.40E+00   23.7     1.64816949     -1076.0722943913  3.14E+00
   263 Broy./Diag. 0.40E+00   24.2     1.69709584     -1076.4197629561 -3.47E-01
   264 Broy./Diag. 0.40E+00   24.0     1.28520127     -1075.9461409740  4.74E-01
   265 Broy./Diag. 0.40E+00   24.2     1.66977466     -1072.7198570173  3.23E+00
   266 Broy./Diag. 0.40E+00   25.2     1.69890540     -1080.3506990304 -7.63E+00
   267 Broy./Diag. 0.40E+00   24.6     1.43473273     -1080.0499899167  3.01E-01
   268 Broy./Diag. 0.40E+00   24.3     1.79952231     -1076.4908218095  3.56E+00
   269 Broy./Diag. 0.40E+00   23.8     1.81467729     -1077.1128210306 -6.22E-01
   270 Broy./Diag. 0.40E+00   24.1     1.58652287     -1075.7087306294  1.40E+00
   271 Broy./Diag. 0.40E+00   24.2     1.48704279     -1075.4407214217  2.68E-01
   272 Broy./Diag. 0.40E+00   24.8     1.51520160     -1075.8209426121 -3.80E-01
   273 Broy./Diag. 0.40E+00   24.6     1.53208965     -1077.2018848610 -1.38E+00
   274 Broy./Diag. 0.40E+00   24.8     1.11186604     -1076.4598584158  7.42E-01
   275 Broy./Diag. 0.40E+00   25.9     1.67124164     -1074.3336938789  2.13E+00
   276 Broy./Diag. 0.40E+00   24.6     1.73506650     -1080.0639520095 -5.73E+00
   277 Broy./Diag. 0.40E+00   24.7     1.79633400     -1076.3207469718  3.74E+00
   278 Broy./Diag. 0.40E+00   25.8     1.79450802     -1072.8461389831  3.47E+00
   279 Broy./Diag. 0.40E+00   24.6     1.81194511     -1079.7067120636 -6.86E+00
   280 Broy./Diag. 0.40E+00   25.4     1.74486446     -1079.5176111852  1.89E-01
   281 Broy./Diag. 0.40E+00   24.2     1.39223471     -1076.3089245000  3.21E+00
   282 Broy./Diag. 0.40E+00   24.7     1.41293250     -1075.6872710716  6.22E-01
   283 Broy./Diag. 0.40E+00   24.7     1.71968002     -1076.2510613405 -5.64E-01
   284 Broy./Diag. 0.40E+00   24.4     1.24713595     -1076.8705478217 -6.19E-01
   285 Broy./Diag. 0.40E+00   24.8     1.28093357     -1078.4056168833 -1.54E+00
   286 Broy./Diag. 0.40E+00   24.9     1.74638534     -1075.9360584921  2.47E+00
   287 Broy./Diag. 0.40E+00   24.8     1.78718103     -1076.3667151259 -4.31E-01
   288 Broy./Diag. 0.40E+00   24.5     1.66370627     -1072.8348859562  3.53E+00
   289 Broy./Diag. 0.40E+00   24.8     1.68571218     -1079.9907028847 -7.16E+00
   290 Broy./Diag. 0.40E+00   24.9     1.24443233     -1079.2449950108  7.46E-01
   291 Broy./Diag. 0.40E+00   24.6     1.64300648     -1073.2817927302  5.96E+00
   292 Broy./Diag. 0.40E+00   24.6     1.67876341     -1079.2419673321 -5.96E+00
   293 Broy./Diag. 0.40E+00   24.9     1.80739142     -1079.1720724958  6.99E-02
   294 Broy./Diag. 0.40E+00   24.6     1.25095163     -1079.7033827667 -5.31E-01
   295 Broy./Diag. 0.40E+00   24.8     1.30499805     -1076.0082041410  3.70E+00
   296 Broy./Diag. 0.40E+00   24.9     1.78056650     -1075.9184376177  8.98E-02
   297 Broy./Diag. 0.40E+00   24.5     1.78476336     -1076.9581458599 -1.04E+00
   298 Broy./Diag. 0.40E+00   24.4     1.66583542     -1073.1958831644  3.76E+00
   299 Broy./Diag. 0.40E+00   23.3     1.71407633     -1079.2514555527 -6.06E+00
   300 Broy./Diag. 0.40E+00   23.6     1.75056941     -1079.2476260993  3.83E-03

  Leaving inner SCF loop after reaching   300 steps.


  Electronic density on regular grids:       -511.9997107252        0.0002892748
  Core density on regular grids:              511.9999548228       -0.0000451772
  Total charge density on r-space grids:        0.0002440976
  Total charge density g-space grids:           0.0002440976

  Overlap energy of the core charge distribution:               0.00000000000000
  Self energy of the core charge distribution:              -2838.21791979120962
  Core Hamiltonian energy:                                    756.68616941215919
  Hartree energy:                                            1240.91186035985561
  Exchange-correlation energy:                               -238.62773608012287

  Total energy:                                             -1079.24762609931759

 *** WARNING in qs_scf.F:542 :: SCF run NOT converged ***


 ENERGY| Total FORCE_EVAL ( QS ) energy (a.u.):            -1073.717713971292142


 ATOMIC FORCES in [a.u.]

 # Atom   Kind   Element          X              Y              Z
      1      1      O           0.03370144     0.04356914    -0.15389794
      2      2      H          -0.06188867     0.04845033    -0.02063619
      3      2      H           0.03204958    -0.03667877     0.06037600
      4      1      O           0.02186266    -0.05847165     0.00674556
      5      2      H          -0.00614732     0.05000364    -0.08110074
      6      2      H          -0.05581215     0.03998604     0.02994365
      7      1      O          -0.02437043    -0.07545776    -0.01946406
      8      2      H          -0.03946300     0.10496849     0.06856081
      9      2      H           0.06078834    -0.05672353     0.04064419
     10      1      O          -0.05892533     0.00629258    -0.04273764
     11      2      H           0.00248271     0.11866532     0.04797625
     12      2      H           0.04311820    -0.05351366     0.11028747
     13      1      O           0.05642656     0.04102782    -0.09144378
     14      2      H          -0.06742228     0.01506376     0.03061472
     15      2      H          -0.03334501    -0.06795688    -0.07130805
     16      1      O           0.03390697    -0.08608048    -0.13016738
     17      2      H          -0.01976232     0.04724702    -0.04205163
     18      2      H           0.01707312    -0.04874079     0.02871097
     19      1      O          -0.03397270    -0.05191484     0.02674952
     20      2      H           0.00547308     0.00012887    -0.01454849
     21      2      H           0.01417154     0.02708691     0.02309513
     22      1      O          -0.01884676     0.10651495     0.06376796
     23      2      H          -0.02166995    -0.08450128    -0.08006266
     24      2      H           0.07382340    -0.00054037     0.01394327
     25      1      O           0.06659313     0.08827645     0.05511643
     26      2      H          -0.07847254    -0.03660448     0.02863859
     27      2      H           0.01487362    -0.00671281    -0.09214385
     28      1      O          -0.01451362    -0.12466805     0.16731722
     29      2      H          -0.03598188     0.07013285    -0.00748857
     30      2      H           0.07782391     0.02865428    -0.03008004
     31      1      O          -0.04789605    -0.09945289     0.05682263
     32      2      H          -0.02959454     0.04104481     0.04765289
     33      2      H           0.04837912    -0.01606290    -0.05704330
     34      1      O           0.00682876    -0.08183102    -0.14599982
     35      2      H          -0.06764920     0.00104127     0.03446553
     36      2      H           0.04999415    -0.05088854     0.01984448
     37      1      O           0.05057620    -0.08688547     0.10051639
     38      2      H           0.03486548     0.09556551    -0.00876173
     39      2      H          -0.04460247    -0.00873779    -0.09888696
     40      1      O           0.09328277    -0.11917193    -0.23597051
     41      2      H           0.00259848    -0.08665682     0.15708037
     42      2      H          -0.10852773     0.15027645     0.01121109
     43      1      O           0.03202519    -0.00762740     0.05396107
     44      2      H          -0.05468912     0.07295855    -0.02640512
     45      2      H           0.06125350     0.03828391     0.04732532
     46      1      O          -0.03877448    -0.05657308    -0.00935236
     47      2      H           0.01606666     0.04605888    -0.03444213
     48      2      H          -0.00113408    -0.06002295    -0.01584035
     49      1      O          -0.07403614     0.04289449     0.15222745
     50      2      H          -0.00954827    -0.04430099    -0.00396173
     51      2      H           0.04359726     0.08006635    -0.07260436
     52      1      O           0.03649312     0.05801117    -0.16475566
     53      2      H          -0.02694922    -0.07956276     0.01395746
     54      2      H          -0.05900505     0.04041517     0.02731479
     55      1      O          -0.00519435     0.02398195    -0.04194943
     56      2      H           0.04895937     0.02571250     0.08364262
     57      2      H          -0.07263804    -0.04114382     0.00106841
     58      1      O           0.03912582    -0.10690642     0.00348573
     59      2      H          -0.07240941    -0.05233086     0.00725033
     60      2      H          -0.00412779     0.08192664     0.04075636
     61      1      O          -0.01154316     0.13024544     0.03718465
     62      2      H           0.06776082    -0.04856047    -0.04610084
     63      2      H          -0.02142850    -0.00665725     0.04114346
     64      1      O           0.00041279     0.06252406     0.00174781
     65      2      H          -0.05841708     0.00141346    -0.02675485
     66      2      H           0.07498952     0.00562670    -0.01817249
     67      1      O           0.06603736    -0.01820302    -0.04938779
     68      2      H          -0.04111132     0.08337178    -0.06150505
     69      2      H          -0.04596188    -0.05519374    -0.07511644
     70      1      O           0.01155507     0.01528163     0.00185964
     71      2      H          -0.00699158     0.00296162     0.04340764
     72      2      H          -0.04136115    -0.04509097    -0.05022354
     73      1      O           0.07975976    -0.01276873    -0.14741474
     74      2      H           0.00114454    -0.09457998    -0.02567066
     75      2      H          -0.04845323     0.04930242     0.06276822
     76      1      O          -0.04556304    -0.02767584    -0.11200943
     77      2      H          -0.00875617    -0.00482765     0.03543541
     78      2      H           0.00016264    -0.04564512     0.03572099
     79      1      O          -0.09807343     0.06912419     0.03844689
     80      2      H           0.07818131     0.07880495    -0.02465391
     81      2      H           0.02883074    -0.04017318    -0.08440203
     82      1      O          -0.05644702    -0.09667905     0.08187308
     83      2      H           0.02346979     0.02407413     0.08888622
     84      2      H           0.04049882     0.01235026    -0.05834632
     85      1      O          -0.01018711    -0.10127384    -0.02484512
     86      2      H           0.01602854     0.02440607     0.07556872
     87      2      H          -0.03070989     0.09409014    -0.00606323
     88      1      O          -0.02846807    -0.03074417    -0.04537276
     89      2      H          -0.04282676    -0.01191990     0.05201960
     90      2      H           0.06026769     0.05479488     0.03630171
     91      1      O          -0.01189289    -0.12024628    -0.01612920
     92      2      H           0.04584648    -0.03466488    -0.09975348
     93      2      H           0.00182454     0.05468151    -0.00996349
     94      1      O          -0.06569649     0.09047882     0.02033555
     95      2      H          -0.00032255     0.01157659     0.06070908
     96      2      H           0.05423634    -0.02505220    -0.08540185
     97      1      O           0.03120681    -0.10135132     0.00650475
     98      2      H          -0.01441096     0.06346723    -0.01184040
     99      2      H           0.01445163    -0.01702144    -0.04482520
    100      1      O           0.03199406    -0.07096260    -0.08235505
    101      2      H          -0.05214930     0.05187642    -0.02226690
    102      2      H           0.02984573     0.08304598     0.01518157
    103      1      O           0.05330391    -0.02663465    -0.07498130
    104      2      H          -0.04516616    -0.05769298    -0.00899983
    105      2      H          -0.01212194     0.04479151     0.05382536
    106      1      O           0.06630784    -0.01254008     0.16987736
    107      2      H          -0.04781483     0.03178383     0.00118930
    108      2      H           0.01682406    -0.05654930    -0.07403777
    109      1      O           0.02982300    -0.01510192     0.14144890
    110      2      H          -0.06128804     0.01355686    -0.00582282
    111      2      H           0.03380721     0.05249706     0.01854513
    112      1      O          -0.01773686     0.12553633    -0.02531016
    113      2      H           0.07840130    -0.01437656    -0.03323409
    114      2      H          -0.03390242    -0.03840429     0.02265945
    115      1      O           0.02299710    -0.00699655    -0.14674325
    116      2      H          -0.01691801    -0.09066361    -0.03658350
    117      2      H          -0.03339450     0.06887419     0.04743188
    118      1      O          -0.05758396    -0.11841168     0.05194435
    119      2      H           0.06157513     0.02127422    -0.08067941
    120      2      H           0.02962219     0.00880198     0.11360222
    121      1      O          -0.09300136    -0.06602495     0.10372588
    122      2      H           0.02537061    -0.07592439     0.07280874
    123      2      H           0.05412079     0.07482185    -0.02547420
    124      1      O          -0.00142878    -0.00809154    -0.13990636
    125      2      H           0.06923346    -0.01540183     0.01411751
    126      2      H          -0.03824581     0.03583547     0.03893555
    127      1      O           0.02010831    -0.05269951    -0.10516149
    128      2      H          -0.01738743     0.03311152     0.07432372
    129      2      H          -0.01777518     0.08583136    -0.07982052
    130      1      O           0.02783525    -0.12633129    -0.02964226
    131      2      H          -0.02765254     0.00574853    -0.05116489
    132      2      H           0.03024316     0.04486625     0.02087829
    133      1      O           0.05359331    -0.07077791    -0.02079003
    134      2      H          -0.05105308     0.00845462     0.07706194
    135      2      H           0.00192245     0.05483069    -0.09409991
    136      1      O          -0.05653510     0.04188505    -0.14228781
    137      2      H           0.02855696    -0.02366459     0.03000165
    138      2      H           0.03658535     0.04645401     0.00990679
    139      1      O           0.05130552    -0.03661934    -0.11457112
    140      2      H          -0.02050612     0.04556497     0.02213611
    141      2      H           0.00140662    -0.03024018     0.07551894
    142      1      O          -0.09886725    -0.03142111    -0.17730152
    143      2      H           0.00459442     0.05110999     0.03231314
    144      2      H           0.04137806    -0.07637206    -0.01108721
    145      1      O           0.07135541     0.02138394     0.06385586
    146      2      H          -0.02365127    -0.05805458     0.03130118
    147      2      H          -0.02353297     0.03628612    -0.12001083
    148      1      O          -0.00914707     0.02781116     0.11638992
    149      2      H          -0.01754501    -0.04363402     0.00461968
    150      2      H          -0.01343016     0.01467044    -0.04968688
    151      1      O          -0.07514644     0.01635602    -0.14802203
    152      2      H           0.01241886     0.05971295     0.04157874
    153      2      H           0.01815011    -0.08590024    -0.03002464
    154      1      O          -0.06801422     0.08366640     0.07743402
    155      2      H           0.05985980     0.02942130    -0.04464973
    156      2      H           0.01978493    -0.04040047     0.04245583
    157      1      O           0.05612988    -0.03545997     0.11534063
    158      2      H          -0.08232487    -0.00672347     0.03810110
    159      2      H          -0.00123765    -0.01829133    -0.05392184
    160      1      O          -0.00177134     0.04576903     0.09624464
    161      2      H           0.05577352    -0.05064708     0.05450839
    162      2      H          -0.07329444    -0.03680680    -0.05694457
    163      1      O           0.06648662     0.07755760    -0.02623676
    164      2      H          -0.02665757     0.07221016    -0.06439533
    165      2      H          -0.03028815    -0.07690522    -0.05157844
    166      1      O           0.06049630     0.02050940    -0.06572252
    167      2      H          -0.02550055     0.08982855    -0.00262323
    168      2      H          -0.06006148    -0.03922710     0.03712422
    169      1      O          -0.06987977    -0.09423450    -0.12189331
    170      2      H           0.07254201    -0.01018264     0.00634025
    171      2      H           0.01659546     0.07316270     0.06494154
    172      1      O          -0.01258757    -0.04399759     0.14995178
    173      2      H           0.06117337     0.01182642    -0.01774851
    174      2      H          -0.05473295     0.02360403    -0.06805877
    175      1      O           0.07549638     0.12487450    -0.09682085
    176      2      H          -0.01745503    -0.00819244     0.03182422
    177      2      H          -0.05064828    -0.02137363    -0.08408460
    178      1      O          -0.03135993    -0.07115093     0.01339948
    179      2      H           0.08403387    -0.00612124     0.00691250
    180      2      H          -0.02912939     0.05290452     0.08487092
    181      1      O           0.02636426    -0.08051460    -0.08648389
    182      2      H          -0.05179615     0.02732722     0.04541105
    183      2      H           0.03894046     0.06081633    -0.02879484
    184      1      O           0.00842102    -0.06217624     0.14715385
    185      2      H           0.00785533     0.04265145    -0.02795902
    186      2      H          -0.02381513    -0.06978575    -0.07305560
    187      1      O          -0.03395857    -0.04014511    -0.08349252
    188      2      H           0.09364605     0.03203938     0.02946030
    189      2      H          -0.02060857     0.07989342     0.08167124
    190      1      O           0.08134956     0.08027196     0.04221341
    191      2      H          -0.09103080    -0.05742850    -0.08513379
    192      2      H          -0.00915068    -0.00404912     0.12358259
 SUM OF ATOMIC FORCES          -0.10176850    -0.11036580    -0.85161602     0.86474695

 -------------------------------------------------------------------------------
 -                                                                             -
 -                                DBCSR STATISTICS                             -
 -                                                                             -
 -------------------------------------------------------------------------------
 COUNTER                                    TOTAL       BLAS       SMM       ACC
 flops     5 x     5 x   256           3868211200       0.0%    100.0%      0.0%
 flops     5 x    13 x   256           4678069760       0.0%    100.0%      0.0%
 flops    13 x     5 x   256           4748190720       0.0%    100.0%      0.0%
 flops    13 x    13 x   256           6771681280       0.0%    100.0%      0.0%
 flops inhomo. stacks                           0       0.0%      0.0%      0.0%
 flops total                        20.066153E+09       0.0%    100.0%      0.0%
 flops max/rank                     20.066153E+09       0.0%    100.0%      0.0%
 matmuls inhomo. stacks                         0       0.0%      0.0%      0.0%
 matmuls total                             663705       0.0%    100.0%      0.0%
 number of processed stacks                 42140       0.0%    100.0%      0.0%
 average stack size                                     0.0      15.8       0.0
 marketing flops                   333.927416E+09
 -------------------------------------------------------------------------------
 # multiplications                            301
 max memory usage/rank              30.536696E+09
 # max total images/rank                        1
 # max 3D layers                                1
 # MPI messages exchanged                       0
 MPI messages size (bytes):
  total size                         0.000000E+00
  min size                           0.000000E+00
  max size                           0.000000E+00
  average size                       0.000000E+00
 MPI breakdown and total messages size (bytes):
             size <=      128                   0                        0
       128 < size <=     8192                   0                        0
      8192 < size <=    32768                   0                        0
     32768 < size <=   131072                   0                        0
    131072 < size <=  4194304                   0                        0
   4194304 < size <= 16777216                   0                        0
  16777216 < size                               0                        0
 -------------------------------------------------------------------------------

 MEMORY| Estimated peak process memory [MiB]                               29130

 -------------------------------------------------------------------------------
 -                                                                             -
 -                           R E F E R E N C E S                               -
 -                                                                             -
 -------------------------------------------------------------------------------
 
 CP2K version 7.1, the CP2K developers group (2019).
 CP2K is freely available from https://www.cp2k.org/ .

 Schuett, Ole; Messmer, Peter; Hutter, Juerg; VandeVondele, Joost. 
 Electronic Structure Calculations on Graphics Processing Units, John
 Wiley & Sons, Ltd, 173-190 (2016). 
 GPU-Accelerated Sparse Matrix-Matrix Multiplication for
 Linear Scaling Density Functional Theory.
 https://dx.doi.org/10.1002/9781118670712.ch8

 Borstnik, U; VandeVondele, J; Weber, V; Hutter, J. 
 PARALLEL COMPUTING, 40 (5-6), 47-58 (2014). 
 Sparse matrix multiplication: The distributed block-compressed sparse
 row library.
 https://dx.doi.org/10.1016/j.parco.2014.03.012

 Hutter, J; Iannuzzi, M; Schiffmann, F; VandeVondele, J. 
 WIREs Comput Mol Sci., 4 (1), 15-25 (2014). 
 CP2K: atomistic simulations of condensed matter systems.
 https://dx.doi.org/10.1002/wcms.1159

 Krack, M. 
 THEORETICAL CHEMISTRY ACCOUNTS, 114 (1-3), 145-152 (2005). 
 Pseudopotentials for H to Kr optimized for gradient-corrected
 exchange-correlation functionals.
 https://dx.doi.org/10.1007/s00214-005-0655-y

 VandeVondele, J; Krack, M; Mohamed, F; Parrinello, M; Chassaing, T;
 Hutter, J. COMPUTER PHYSICS COMMUNICATIONS, 167 (2), 103-128 (2005). 
 QUICKSTEP: Fast and accurate density functional calculations using a
 mixed Gaussian and plane waves approach.
 https://dx.doi.org/10.1016/j.cpc.2004.12.014

 Frigo, M; Johnson, SG. 
 PROCEEDINGS OF THE IEEE, 93 (2), 216-231 (2005). 
 The design and implementation of FFTW3.
 https://dx.doi.org/10.1109/JPROC.2004.840301

 Hartwigsen, C; Goedecker, S; Hutter, J. 
 PHYSICAL REVIEW B, 58 (7), 3641-3662 (1998). 
 Relativistic separable dual-space Gaussian pseudopotentials from H to Rn.
 https://dx.doi.org/10.1103/PhysRevB.58.3641

 Lippert, G; Hutter, J; Parrinello, M. 
 MOLECULAR PHYSICS, 92 (3), 477-487 (1997). 
 A hybrid Gaussian and plane wave density functional scheme.
 https://dx.doi.org/10.1080/002689797170220

 Goedecker, S; Teter, M; Hutter, J. 
 PHYSICAL REVIEW B, 54 (3), 1703-1710 (1996). 
 Separable dual-space Gaussian pseudopotentials.
 https://dx.doi.org/10.1103/PhysRevB.54.1703


 -------------------------------------------------------------------------------
 -                                                                             -
 -                                T I M I N G                                  -
 -                                                                             -
 -------------------------------------------------------------------------------
 SUBROUTINE                       CALLS  ASD         SELF TIME        TOTAL TIME
                                MAXIMUM       AVERAGE  MAXIMUM  AVERAGE  MAXIMUM
 CP2K                                 1  1.0    1.043    1.043 7294.426 7294.426
 qs_forces                            1  2.0    0.000    0.000 7283.392 7283.392
 qs_energies                          1  3.0    0.000    0.000 7279.617 7279.617
 scf_env_do_scf                       1  4.0    0.001    0.001 7268.186 7268.186
 scf_env_do_scf_inner_loop          300  5.0    0.058    0.058 7268.185 7268.185
 gspace_mixing                      299  6.0   42.361   42.361 3028.090 3028.090
 broyden_mixing                     299  7.0 2737.990 2737.990 2737.994 2737.994
 qs_scf_new_mos                     300  6.0    0.009    0.009 1994.404 1994.404
 eigensolver                        300  7.0    0.032    0.032 1923.455 1923.455
 cp_fm_syevd                        300  8.0 1293.625 1293.625 1294.899 1294.899
 pw_transfer                       3912  9.9    0.382    0.382 1191.679 1191.679
 rebuild_ks_matrix                  301  7.0    0.001    0.001 1172.277 1172.277
 qs_ks_build_kohn_sham_matrix       301  8.0    0.099    0.099 1172.276 1172.276
 qs_ks_update_qs_env                300  6.0    0.004    0.004 1168.906 1168.906
 fft_wrap_pw1pw2                   3310 10.9    0.062    0.062 1159.528 1159.528
 qs_rho_update_rho                  301  6.0    0.003    0.003 1077.476 1077.476
 calculate_rho_elec                 301  7.0  520.927  520.927 1077.473 1077.473
 fft_wrap_pw1pw2_70                1504 11.2   91.166   91.166 1050.713 1050.713
 cp_fm_cholesky_restore             900  8.0  627.417  627.417  627.417  627.417
 fft3d_s                           3311 12.9  555.941  555.941  555.980  555.980
 density_rs2pw                      301  8.0    0.042    0.042  546.737  546.737
 pw_scatter_s                      1804 13.2  412.009  412.009  412.009  412.009
 pw_poisson_solve                   301  9.0  334.832  334.832  366.951  366.951
 sum_up_and_integrate               301  9.0   17.676   17.676  342.052  342.052
 integrate_v_rspace                 301 10.0   10.854   10.854  324.375  324.375
 potential_pw2rs                    301 11.0    2.573    2.573  288.637  288.637
 qs_vxc_create                      301  9.0    0.007    0.007  167.821  167.821
 xc_vxc_pw_create                   301 10.0   42.432   42.432  167.814  167.814
 -------------------------------------------------------------------------------

 The number of warnings for this run is : 1
 
 -------------------------------------------------------------------------------
  **** **** ******  **  PROGRAM ENDED AT                 2020-05-29 05:10:45.945
 ***** ** ***  *** **   PROGRAM RAN ON                                   gnode44
 **    ****   ******    PROGRAM RAN BY                               mayank.modi
 ***** **    ** ** **   PROGRAM PROCESS ID                                 25549
  **** **  *******  **  PROGRAM STOPPED IN /home/mayank.modi/ab-initio-thermodyn
                                           amics-of-water/mayank/cp2k_energy_cal
                                           culations
