 DBCSR| CPU Multiplication driver                                           XSMM
 DBCSR| Multrec recursion limit                                              512
 DBCSR| Multiplication stack size                                           1000
 DBCSR| Maximum elements for images                                    UNLIMITED
 DBCSR| Multiplicative factor virtual images                                   1
 DBCSR| Use multiplication densification                                       T
 DBCSR| Multiplication size stacks                                             3


  **** **** ******  **  PROGRAM STARTED AT               2020-05-28 13:22:30.464
 ***** ** ***  *** **   PROGRAM STARTED ON                               gnode44
 **    ****   ******    PROGRAM STARTED BY                           mayank.modi
 ***** **    ** ** **   PROGRAM PROCESS ID                                 15485
  **** **  *******  **  PROGRAM STARTED IN /home/mayank.modi/ab-initio-thermodyn
                                           amics-of-water/mayank/cp2k_energy_cal
                                           culations

 CP2K| version string:                                          CP2K version 7.1
 CP2K| source code revision number:                                  git:e635599
 CP2K| cp2kflags: omp libint fftw3 libxc xsmm spglib                            
 CP2K| is freely available from                            https://www.cp2k.org/
 CP2K| Program compiled at                          Mon Dec 23 19:23:12 CET 2019
 CP2K| Program compiled on                                                pc9404
 CP2K| Program compiled for                                Linux-x86-64-gfortran
 CP2K| Data directory path                                        /opt/cp2k/data
 CP2K| Input file name                                 input_training/input23.in

 GLOBAL| Force Environment number                                              1
 GLOBAL| Basis set file name                                           BASIS_SET
 GLOBAL| Potential file name                                      GTH_POTENTIALS
 GLOBAL| MM Potential file name                                     MM_POTENTIAL
 GLOBAL| Coordinate file name                                      __STD_INPUT__
 GLOBAL| Method name                                                        CP2K
 GLOBAL| Project name                                                   H2O_bulk
 GLOBAL| Preferred FFT library                                             FFTW3
 GLOBAL| Preferred diagonalization lib.                                       SL
 GLOBAL| Run type                                                   ENERGY_FORCE
 GLOBAL| All-to-all communication in single precision                          F
 GLOBAL| FFTs using library dependent lengths                                  F
 GLOBAL| Global print level                                                  LOW
 GLOBAL| MPI I/O enabled                                                       T
 GLOBAL| Total number of message passing processes                             1
 GLOBAL| Number of threads for this process                                   36
 GLOBAL| This output is from process                                           0
 GLOBAL| CPU model name                Intel(R) Xeon(R) CPU E5-2640 v4 @ 2.40GHz
 GLOBAL| CPUID                                                              1002
 GLOBAL| Compiled for CPUID                                                    0

 MEMORY| system memory details [Kb]
 MEMORY|                        rank 0           min           max       average
 MEMORY| MemTotal            131893056     131893056     131893056     131893056
 MEMORY| MemFree             121133632     121133632     121133632     121133632
 MEMORY| Buffers               2116724       2116724       2116724       2116724
 MEMORY| Cached                3079880       3079880       3079880       3079880
 MEMORY| Slab                  3304200       3304200       3304200       3304200
 MEMORY| SReclaimable          3100832       3100832       3100832       3100832
 MEMORY| MemLikelyFree       129431068     129431068     129431068     129431068


 GENERATE| WARNING:: No connections detected for Hydrogen - Atom Nr:        20 !
 GENERATE|  Preliminary Number of Bonds generated:                             0
 GENERATE|  Achieved consistency in connectivity generation.

 *******************************************************************************
 *******************************************************************************
 **                                                                           **
 **     #####                         ##              ##                      **
 **    ##   ##            ##          ##              ##                      **
 **   ##     ##                       ##            ######                    **
 **   ##     ##  ##   ##  ##   #####  ##  ##   ####   ##    #####    #####    **
 **   ##     ##  ##   ##  ##  ##      ## ##   ##      ##   ##   ##  ##   ##   **
 **   ##  ## ##  ##   ##  ##  ##      ####     ###    ##   ######   ######    **
 **    ##  ###   ##   ##  ##  ##      ## ##      ##   ##   ##       ##        **
 **     #######   #####   ##   #####  ##  ##  ####    ##    #####   ##        **
 **           ##                                                    ##        **
 **                                                                           **
 **                                                ... make the atoms dance   **
 **                                                                           **
 **            Copyright (C) by CP2K developers group (2000 - 2019)           **
 **                                                                           **
 *******************************************************************************


 TOTAL NUMBERS AND MAXIMUM NUMBERS

  Total number of            - Atomic kinds:                                   2
                             - Atoms:                                        192
                             - Shell sets:                                   384
                             - Shells:                                       704
                             - Primitive Cartesian functions:                960
                             - Cartesian basis functions:                   1536
                             - Spherical basis functions:                   1472

  Maximum angular momentum of- Orbital basis functions:                        2
                             - Local part of the GTH pseudopotential:          2
                             - Non-local part of the GTH pseudopotential:      0


 SCF PARAMETERS         Density guess:                                    ATOMIC
                        --------------------------------------------------------
                        max_scf:                                             300
                        max_scf_history:                                       0
                        max_diis:                                              4
                        --------------------------------------------------------
                        eps_scf:                                        1.00E-07
                        eps_scf_history:                                0.00E+00
                        eps_diis:                                       1.00E-01
                        eps_eigval:                                     1.00E-05
                        --------------------------------------------------------
                        level_shift [a.u.]:                                 0.00
                        --------------------------------------------------------
                        Mixing method:                            BROYDEN_MIXING
                                                charge density mixing in g-space
                        --------------------------------------------------------
                        No outer SCF

 Number of electrons:                                                        512
 Number of occupied orbitals:                                                256
 Number of molecular orbitals:                                               256

 Number of orbital functions:                                               1472
 Number of independent orbital functions:                                   1472

 Extrapolation method: initial_guess


 SCF WAVEFUNCTION OPTIMIZATION

  Step     Update method      Time    Convergence         Total energy    Change
  ------------------------------------------------------------------------------
     1 NoMix/Diag. 0.40E+00   10.0     0.68761242     -1064.2324734596 -1.06E+03
     2 Broy./Diag. 0.40E+00   14.4     1.92074294      -996.8698221147  6.74E+01
     3 Broy./Diag. 0.40E+00   16.2     1.93607686     -1260.8251473498 -2.64E+02
     4 Broy./Diag. 0.40E+00   17.3     1.61791813     -1115.4376007259  1.45E+02
     5 Broy./Diag. 0.40E+00   18.0     1.54198660     -1098.1036488333  1.73E+01
     6 Broy./Diag. 0.40E+00   19.5     1.84185224     -1098.5697619329 -4.66E-01
     7 Broy./Diag. 0.40E+00   20.3     1.33533787     -1095.6156546731  2.95E+00
     8 Broy./Diag. 0.40E+00   21.2     0.63754686     -1081.6761341714  1.39E+01
     9 Broy./Diag. 0.40E+00   22.3     1.32089281     -1075.0655673161  6.61E+00
    10 Broy./Diag. 0.40E+00   22.8     1.29989940     -1077.9504862806 -2.88E+00
    11 Broy./Diag. 0.40E+00   21.5     1.39718656     -1078.1999261006 -2.49E-01
    12 Broy./Diag. 0.40E+00   23.1     0.83474032     -1076.7248489184  1.48E+00
    13 Broy./Diag. 0.40E+00   24.3     0.39424376     -1070.4516935654  6.27E+00
    14 Broy./Diag. 0.40E+00   24.4     1.36223038     -1074.7542927737 -4.30E+00
    15 Broy./Diag. 0.40E+00   23.9     1.75014487     -1077.8249908925 -3.07E+00
    16 Broy./Diag. 0.40E+00   24.4     1.81108207     -1075.4286231792  2.40E+00
    17 Broy./Diag. 0.40E+00   24.1     1.22986563     -1077.1554459157 -1.73E+00
    18 Broy./Diag. 0.40E+00   23.5     1.33401141     -1076.1894509128  9.66E-01
    19 Broy./Diag. 0.40E+00   24.4     1.05713107     -1074.7550804081  1.43E+00
    20 Broy./Diag. 0.40E+00   23.6     0.99609490     -1076.8390071839 -2.08E+00
    21 Broy./Diag. 0.40E+00   24.0     0.47470276     -1075.2685095561  1.57E+00
    22 Broy./Diag. 0.40E+00   22.2     0.39365326     -1074.3175725723  9.51E-01
    23 Broy./Diag. 0.40E+00   22.5     0.89272557     -1075.7707397323 -1.45E+00
    24 Broy./Diag. 0.40E+00   23.4     0.72677439     -1077.0516867311 -1.28E+00
    25 Broy./Diag. 0.40E+00   23.9     1.53898559     -1077.8822444225 -8.31E-01
    26 Broy./Diag. 0.40E+00   24.0     1.58612951     -1077.2399241657  6.42E-01
    27 Broy./Diag. 0.40E+00   24.2     1.53163038     -1077.4266385566 -1.87E-01
    28 Broy./Diag. 0.40E+00   23.9     1.68266988     -1078.2464005848 -8.20E-01
    29 Broy./Diag. 0.40E+00   23.7     0.90609747     -1072.9487320198  5.30E+00
    30 Broy./Diag. 0.40E+00   22.8     0.67892344     -1079.3750979121 -6.43E+00
    31 Broy./Diag. 0.40E+00   23.6     0.96720526     -1076.6379284162  2.74E+00
    32 Broy./Diag. 0.40E+00   22.6     0.94562055     -1074.9588922966  1.68E+00
    33 Broy./Diag. 0.40E+00   23.5     1.12614160     -1077.4519677942 -2.49E+00
    34 Broy./Diag. 0.40E+00   23.5     1.04446421     -1076.9718877666  4.80E-01
    35 Broy./Diag. 0.40E+00   23.1     1.15528222     -1075.0688116068  1.90E+00
    36 Broy./Diag. 0.40E+00   23.6     1.53346920     -1077.1284913698 -2.06E+00
    37 Broy./Diag. 0.40E+00   24.6     1.57738622     -1078.0903855225 -9.62E-01
    38 Broy./Diag. 0.40E+00   23.4     0.44651697     -1075.2315705263  2.86E+00
    39 Broy./Diag. 0.40E+00   22.3     1.10057762     -1076.1936973823 -9.62E-01
    40 Broy./Diag. 0.40E+00   23.1     1.25033870     -1076.4888507157 -2.95E-01
    41 Broy./Diag. 0.40E+00   24.4     1.41349392     -1078.3243399476 -1.84E+00
    42 Broy./Diag. 0.40E+00   21.8     1.16339551     -1077.2431663472  1.08E+00
    43 Broy./Diag. 0.40E+00   22.8     1.66807109     -1074.3883412918  2.85E+00
    44 Broy./Diag. 0.40E+00   24.2     1.73852572     -1079.4054903882 -5.02E+00
    45 Broy./Diag. 0.40E+00   24.0     0.82880425     -1077.0628609631  2.34E+00
    46 Broy./Diag. 0.40E+00   24.5     1.32236726     -1075.2336280229  1.83E+00
    47 Broy./Diag. 0.40E+00   21.8     1.27112987     -1076.1744286179 -9.41E-01
    48 Broy./Diag. 0.40E+00   23.7     1.10025594     -1077.6338929674 -1.46E+00
    49 Broy./Diag. 0.40E+00   23.3     1.18133175     -1077.4684229315  1.65E-01
    50 Broy./Diag. 0.40E+00   22.9     0.94705197     -1076.3326637093  1.14E+00
    51 Broy./Diag. 0.40E+00   23.4     1.37529684     -1075.2051936008  1.13E+00
    52 Broy./Diag. 0.40E+00   23.8     1.40651407     -1078.9415538741 -3.74E+00
    53 Broy./Diag. 0.40E+00   24.0     1.44000496     -1074.1947497818  4.75E+00
    54 Broy./Diag. 0.40E+00   23.9     1.43472244     -1077.9112174750 -3.72E+00
    55 Broy./Diag. 0.40E+00   24.4     1.07620009     -1077.3303371028  5.81E-01
    56 Broy./Diag. 0.40E+00   23.6     0.24288643     -1074.4422100167  2.89E+00
    57 Broy./Diag. 0.40E+00   23.6     0.95753317     -1075.7105058002 -1.27E+00
    58 Broy./Diag. 0.40E+00   24.3     0.98561450     -1077.5785941490 -1.87E+00
    59 Broy./Diag. 0.40E+00   22.0     0.25791048     -1075.3544185433  2.22E+00
    60 Broy./Diag. 0.40E+00   22.5     1.09611159     -1075.4551996532 -1.01E-01
    61 Broy./Diag. 0.40E+00   20.6     1.57752693     -1077.5517145421 -2.10E+00
    62 Broy./Diag. 0.40E+00   21.5     1.47001856     -1079.0168469353 -1.47E+00
    63 Broy./Diag. 0.40E+00   22.6     1.69189373     -1074.6240591144  4.39E+00
    64 Broy./Diag. 0.40E+00   23.7     1.64874675     -1078.4867194739 -3.86E+00
    65 Broy./Diag. 0.40E+00   22.8     1.58464382     -1077.3880522890  1.10E+00
    66 Broy./Diag. 0.40E+00   23.5     0.70079900     -1075.8125177930  1.58E+00
    67 Broy./Diag. 0.40E+00   23.6     1.00326854     -1075.2098212388  6.03E-01
    68 Broy./Diag. 0.40E+00   23.9     1.01222561     -1079.4620568069 -4.25E+00
    69 Broy./Diag. 0.40E+00   24.7     1.40234258     -1077.9406298279  1.52E+00
    70 Broy./Diag. 0.40E+00   22.4     1.54287218     -1076.4194870811  1.52E+00
    71 Broy./Diag. 0.40E+00   21.8     1.59597022     -1077.7561044625 -1.34E+00
    72 Broy./Diag. 0.40E+00   23.3     1.46920402     -1074.7742017913  2.98E+00
    73 Broy./Diag. 0.40E+00   23.7     1.60378386     -1079.0103091242 -4.24E+00
    74 Broy./Diag. 0.40E+00   23.6     1.11645884     -1076.7555998080  2.25E+00
    75 Broy./Diag. 0.40E+00   23.3     1.55146282     -1074.0071172955  2.75E+00
    76 Broy./Diag. 0.40E+00   23.7     1.55993431     -1078.7562453235 -4.75E+00
    77 Broy./Diag. 0.40E+00   23.7     0.94285821     -1075.7845162478  2.97E+00
    78 Broy./Diag. 0.40E+00   24.0     1.09278020     -1077.1217898064 -1.34E+00
    79 Broy./Diag. 0.40E+00   24.8     0.51915427     -1074.8186117467  2.30E+00
    80 Broy./Diag. 0.40E+00   22.8     0.61635296     -1075.6881985797 -8.70E-01
    81 Broy./Diag. 0.40E+00   23.0     0.80977616     -1075.3070171579  3.81E-01
    82 Broy./Diag. 0.40E+00   24.4     1.11531818     -1076.7423137522 -1.44E+00
    83 Broy./Diag. 0.40E+00   23.8     1.15425118     -1076.6165064222  1.26E-01
    84 Broy./Diag. 0.40E+00   23.8     0.88010073     -1075.2022110057  1.41E+00
    85 Broy./Diag. 0.40E+00   23.9     1.46655311     -1077.7466801936 -2.54E+00
    86 Broy./Diag. 0.40E+00   23.8     1.79047743     -1079.3574699673 -1.61E+00
    87 Broy./Diag. 0.40E+00   24.0     1.59730947     -1075.9522845184  3.41E+00
    88 Broy./Diag. 0.40E+00   23.5     1.21967562     -1076.0263740769 -7.41E-02
    89 Broy./Diag. 0.40E+00   23.8     1.44096466     -1077.8805074833 -1.85E+00
    90 Broy./Diag. 0.40E+00   23.8     1.23206796     -1073.3194687041  4.56E+00
    91 Broy./Diag. 0.40E+00   23.7     0.06832364     -1077.8940099929 -4.57E+00
    92 Broy./Diag. 0.40E+00   23.4     1.21467401     -1077.9770841020 -8.31E-02
    93 Broy./Diag. 0.40E+00   22.2     1.08337898     -1077.6860591118  2.91E-01
    94 Broy./Diag. 0.40E+00   23.7     1.07870022     -1077.2683079632  4.18E-01
    95 Broy./Diag. 0.40E+00   23.3     1.09103872     -1075.1792430681  2.09E+00
    96 Broy./Diag. 0.40E+00   23.6     1.04323547     -1077.2610821848 -2.08E+00
    97 Broy./Diag. 0.40E+00   23.4     0.97329444     -1075.4718760859  1.79E+00
    98 Broy./Diag. 0.40E+00   24.9     1.51889963     -1078.4547833037 -2.98E+00
    99 Broy./Diag. 0.40E+00   22.4     1.52872272     -1078.7215009895 -2.67E-01
   100 Broy./Diag. 0.40E+00   21.7     0.23968853     -1074.0239242861  4.70E+00
   101 Broy./Diag. 0.40E+00   22.9     0.33429344     -1075.5904114633 -1.57E+00
   102 Broy./Diag. 0.40E+00   22.1     1.11555314     -1074.6594268961  9.31E-01
   103 Broy./Diag. 0.40E+00   22.3     1.59435794     -1077.7303233483 -3.07E+00
   104 Broy./Diag. 0.40E+00   23.3     1.67903617     -1078.5833096494 -8.53E-01
   105 Broy./Diag. 0.40E+00   23.4     1.54256406     -1077.1648326020  1.42E+00
   106 Broy./Diag. 0.40E+00   22.7     1.60940724     -1076.8505149585  3.14E-01
   107 Broy./Diag. 0.40E+00   22.0     0.96248083     -1075.4619937158  1.39E+00
   108 Broy./Diag. 0.40E+00   23.1     1.03742706     -1076.5076780247 -1.05E+00
   109 Broy./Diag. 0.40E+00   23.4     0.99981697     -1075.3426627636  1.17E+00
   110 Broy./Diag. 0.40E+00   23.4     1.09993229     -1075.6871239039 -3.44E-01
   111 Broy./Diag. 0.40E+00   23.5     1.47014872     -1077.2766501833 -1.59E+00
   112 Broy./Diag. 0.40E+00   23.7     1.53515579     -1078.7978637514 -1.52E+00
   113 Broy./Diag. 0.40E+00   22.9     1.60570581     -1077.2583842274  1.54E+00
   114 Broy./Diag. 0.40E+00   22.3     1.29083393     -1076.6455306050  6.13E-01
   115 Broy./Diag. 0.40E+00   25.1     1.65179492     -1073.8343838772  2.81E+00
   116 Broy./Diag. 0.40E+00   23.3     1.71260997     -1079.3952328380 -5.56E+00
   117 Broy./Diag. 0.40E+00   23.8     1.60710485     -1077.2052584747  2.19E+00
   118 Broy./Diag. 0.40E+00   24.0     1.10859818     -1077.0430403185  1.62E-01
   119 Broy./Diag. 0.40E+00   23.7     1.24318497     -1074.0361409855  3.01E+00
   120 Broy./Diag. 0.40E+00   24.2     0.95631864     -1077.7905962200 -3.75E+00
   121 Broy./Diag. 0.40E+00   24.3     1.15511840     -1076.1926747600  1.60E+00
   122 Broy./Diag. 0.40E+00   25.0     1.49845968     -1078.6881220278 -2.50E+00
   123 Broy./Diag. 0.40E+00   23.1     1.18165292     -1074.6924978047  4.00E+00
   124 Broy./Diag. 0.40E+00   22.1     1.33812036     -1078.1150061150 -3.42E+00
   125 Broy./Diag. 0.40E+00   23.0     1.30199339     -1077.0450448694  1.07E+00
   126 Broy./Diag. 0.40E+00   23.6     1.05933818     -1077.1981442940 -1.53E-01
   127 Broy./Diag. 0.40E+00   23.9     1.54981214     -1074.5722001100  2.63E+00
   128 Broy./Diag. 0.40E+00   23.4     1.57980087     -1078.3035488741 -3.73E+00
   129 Broy./Diag. 0.40E+00   23.0     1.06899036     -1078.3898943799 -8.63E-02
   130 Broy./Diag. 0.40E+00   23.8     1.07154110     -1075.0103274677  3.38E+00
   131 Broy./Diag. 0.40E+00   25.3     1.07112487     -1077.1381585505 -2.13E+00
   132 Broy./Diag. 0.40E+00   21.5     1.30716913     -1074.6899633813  2.45E+00
   133 Broy./Diag. 0.40E+00   22.0     1.61317933     -1078.1863442331 -3.50E+00
   134 Broy./Diag. 0.40E+00   21.4     1.53946570     -1079.1289763164 -9.43E-01
   135 Broy./Diag. 0.40E+00   23.8     1.14942384     -1074.3093493748  4.82E+00
   136 Broy./Diag. 0.40E+00   23.8     0.71521656     -1077.5530096404 -3.24E+00
   137 Broy./Diag. 0.40E+00   24.7     0.73889686     -1079.1283752062 -1.58E+00
   138 Broy./Diag. 0.40E+00   22.7     0.98775457     -1077.7838492902  1.34E+00
   139 Broy./Diag. 0.40E+00   22.3     1.41525377     -1077.8544416862 -7.06E-02
   140 Broy./Diag. 0.40E+00   23.5     0.86177420     -1076.9984866439  8.56E-01
   141 Broy./Diag. 0.40E+00   24.0     1.54679860     -1076.6363859567  3.62E-01
   142 Broy./Diag. 0.40E+00   24.6     1.71807226     -1077.3951756231 -7.59E-01
   143 Broy./Diag. 0.40E+00   24.8     1.78439990     -1078.8665583715 -1.47E+00
   144 Broy./Diag. 0.40E+00   24.1     1.22684941     -1076.7185247001  2.15E+00
   145 Broy./Diag. 0.40E+00   23.9     1.44088009     -1074.0002107899  2.72E+00
   146 Broy./Diag. 0.40E+00   24.1     1.41034333     -1079.1589273684 -5.16E+00
   147 Broy./Diag. 0.40E+00   22.6     1.40023744     -1073.8877163358  5.27E+00
   148 Broy./Diag. 0.40E+00   23.3     1.20477246     -1077.5845851454 -3.70E+00
   149 Broy./Diag. 0.40E+00   23.5     1.14212527     -1077.8999937513 -3.15E-01
   150 Broy./Diag. 0.40E+00   23.9     1.16676669     -1074.6996802331  3.20E+00
   151 Broy./Diag. 0.40E+00   23.8     0.20362770     -1076.9696165031 -2.27E+00
   152 Broy./Diag. 0.40E+00   24.4     0.02502745     -1077.3833151779 -4.14E-01
   153 Broy./Diag. 0.40E+00   23.9     0.93890356     -1077.2731723491  1.10E-01
   154 Broy./Diag. 0.40E+00   24.1     0.60697406     -1076.4252472133  8.48E-01
   155 Broy./Diag. 0.40E+00   24.3     1.24162486     -1075.2867786123  1.14E+00
   156 Broy./Diag. 0.40E+00   24.1     1.58459192     -1078.7650774538 -3.48E+00
   157 Broy./Diag. 0.40E+00   23.8     1.58777223     -1077.0801166554  1.68E+00
   158 Broy./Diag. 0.40E+00   23.8     0.96797521     -1074.7628945183  2.32E+00
   159 Broy./Diag. 0.40E+00   24.3     0.91050976     -1079.6002547811 -4.84E+00
   160 Broy./Diag. 0.40E+00   24.2     1.05922555     -1078.1258849798  1.47E+00
   161 Broy./Diag. 0.40E+00   23.7     0.51556248     -1075.7230508022  2.40E+00
   162 Broy./Diag. 0.40E+00   23.8     1.79124092     -1074.7544869536  9.69E-01
   163 Broy./Diag. 0.40E+00   24.0     1.77786651     -1078.6438462810 -3.89E+00
   164 Broy./Diag. 0.40E+00   23.8     0.95192820     -1075.8929749720  2.75E+00
   165 Broy./Diag. 0.40E+00   24.0     1.46291279     -1076.7049291766 -8.12E-01
   166 Broy./Diag. 0.40E+00   24.9     1.56414236     -1075.8121145717  8.93E-01
   167 Broy./Diag. 0.40E+00   23.9     1.61227056     -1077.1903802063 -1.38E+00
   168 Broy./Diag. 0.40E+00   24.5     1.15654023     -1076.5108389067  6.80E-01
   169 Broy./Diag. 0.40E+00   23.8     1.07749499     -1073.3881780538  3.12E+00
   170 Broy./Diag. 0.40E+00   23.8     1.01995784     -1077.4128600760 -4.02E+00
   171 Broy./Diag. 0.40E+00   24.0     1.09209500     -1076.0063001731  1.41E+00
   172 Broy./Diag. 0.40E+00   24.2     1.10913174     -1077.2117934655 -1.21E+00
   173 Broy./Diag. 0.40E+00   21.7     0.94663488     -1077.4876568925 -2.76E-01
   174 Broy./Diag. 0.40E+00   22.6     1.53238704     -1074.5459345267  2.94E+00
   175 Broy./Diag. 0.40E+00   22.1     1.56131363     -1077.2280117661 -2.68E+00
   176 Broy./Diag. 0.40E+00   22.2     0.99437527     -1077.1306817517  9.73E-02
   177 Broy./Diag. 0.40E+00   22.9     1.31499588     -1075.9247492956  1.21E+00
   178 Broy./Diag. 0.40E+00   23.4     1.48704208     -1077.9424816179 -2.02E+00
   179 Broy./Diag. 0.40E+00   24.0     1.16495197     -1073.9127598468  4.03E+00
   180 Broy./Diag. 0.40E+00   24.8     1.06024491     -1077.8867305428 -3.97E+00
   181 Broy./Diag. 0.40E+00   23.6     0.97114268     -1076.5937193856  1.29E+00
   182 Broy./Diag. 0.40E+00   24.8     1.43074442     -1075.2449682908  1.35E+00
   183 Broy./Diag. 0.40E+00   22.5     1.53137625     -1078.8739343599 -3.63E+00
   184 Broy./Diag. 0.40E+00   22.5     1.11316092     -1076.8812215017  1.99E+00
   185 Broy./Diag. 0.40E+00   22.6     1.10632322     -1074.0628239954  2.82E+00
   186 Broy./Diag. 0.40E+00   20.9     1.03025858     -1077.9650916340 -3.90E+00
   187 Broy./Diag. 0.40E+00   22.4     1.40528616     -1075.2619959704  2.70E+00
   188 Broy./Diag. 0.40E+00   23.7     1.72230424     -1078.8644444029 -3.60E+00
   189 Broy./Diag. 0.40E+00   23.9     1.53533633     -1075.0142649027  3.85E+00
   190 Broy./Diag. 0.40E+00   24.1     1.55903594     -1078.8019332514 -3.79E+00
   191 Broy./Diag. 0.40E+00   24.1     0.92341761     -1076.8766204265  1.93E+00
   192 Broy./Diag. 0.40E+00   23.3     1.00268179     -1076.5686779568  3.08E-01
   193 Broy./Diag. 0.40E+00   23.3     1.25539832     -1077.4816289092 -9.13E-01
   194 Broy./Diag. 0.40E+00   21.0     1.13949578     -1077.9892353791 -5.08E-01
   195 Broy./Diag. 0.40E+00   23.8     1.20765077     -1074.8378789594  3.15E+00
   196 Broy./Diag. 0.40E+00   22.5     0.98646215     -1079.1797348075 -4.34E+00
   197 Broy./Diag. 0.40E+00   22.2     0.19754115     -1074.7551581142  4.42E+00
   198 Broy./Diag. 0.40E+00   21.6     1.54116369     -1075.7322292156 -9.77E-01
   199 Broy./Diag. 0.40E+00   22.4     1.56141845     -1077.4520032271 -1.72E+00
   200 Broy./Diag. 0.40E+00   21.3     1.57075737     -1077.4084117848  4.36E-02
   201 Broy./Diag. 0.40E+00   23.7     0.29006844     -1075.0785733886  2.33E+00
   202 Broy./Diag. 0.40E+00   23.1     1.67127626     -1074.6824316664  3.96E-01
   203 Broy./Diag. 0.40E+00   22.4     1.77463495     -1078.7985881818 -4.12E+00
   204 Broy./Diag. 0.40E+00   23.9     1.62303597     -1079.2014619983 -4.03E-01
   205 Broy./Diag. 0.40E+00   23.9     1.33518378     -1077.1179434331  2.08E+00
   206 Broy./Diag. 0.40E+00   24.3     1.19891708     -1075.5698400147  1.55E+00
   207 Broy./Diag. 0.40E+00   24.7     1.06172984     -1075.8039227043 -2.34E-01
   208 Broy./Diag. 0.40E+00   23.2     1.11076046     -1074.2805087613  1.52E+00
   209 Broy./Diag. 0.40E+00   24.0     1.56269154     -1077.8326940821 -3.55E+00
   210 Broy./Diag. 0.40E+00   25.3     1.60030328     -1078.1016079820 -2.69E-01
   211 Broy./Diag. 0.40E+00   21.7     0.69591597     -1076.1226864510  1.98E+00
   212 Broy./Diag. 0.40E+00   22.2     0.60014202     -1075.2919434414  8.31E-01
   213 Broy./Diag. 0.40E+00   21.4     1.07039813     -1074.4818805884  8.10E-01
   214 Broy./Diag. 0.40E+00   23.7     1.74424124     -1078.3392771515 -3.86E+00
   215 Broy./Diag. 0.40E+00   23.4     1.72885609     -1079.0065589100 -6.67E-01
   216 Broy./Diag. 0.40E+00   23.7     0.97776445     -1074.8554647812  4.15E+00
   217 Broy./Diag. 0.40E+00   23.7     1.32315441     -1079.2172492675 -4.36E+00
   218 Broy./Diag. 0.40E+00   23.8     1.24879037     -1077.3032474776  1.91E+00
   219 Broy./Diag. 0.40E+00   24.0     1.54538182     -1075.0633718845  2.24E+00
   220 Broy./Diag. 0.40E+00   22.2     1.56564963     -1077.4267297047 -2.36E+00
   221 Broy./Diag. 0.40E+00   23.5     0.87647192     -1077.2606441716  1.66E-01
   222 Broy./Diag. 0.40E+00   22.7     0.88151083     -1076.8530017331  4.08E-01
   223 Broy./Diag. 0.40E+00   23.3     1.31007916     -1077.3258869388 -4.73E-01
   224 Broy./Diag. 0.40E+00   23.7     1.18684273     -1074.2420274173  3.08E+00
   225 Broy./Diag. 0.40E+00   24.4     1.54322658     -1077.6346007616 -3.39E+00
   226 Broy./Diag. 0.40E+00   25.3     1.56490835     -1077.6802920456 -4.57E-02
   227 Broy./Diag. 0.40E+00   22.1     1.77200092     -1079.3160076683 -1.64E+00
   228 Broy./Diag. 0.40E+00   22.8     1.79229437     -1078.5521825406  7.64E-01
   229 Broy./Diag. 0.40E+00   23.4     1.39497973     -1073.7086188998  4.84E+00
   230 Broy./Diag. 0.40E+00   23.1     1.19662881     -1077.9235997057 -4.21E+00
   231 Broy./Diag. 0.40E+00   21.7     1.17185083     -1075.7647933918  2.16E+00
   232 Broy./Diag. 0.40E+00   22.3     1.58106045     -1078.7664658353 -3.00E+00
   233 Broy./Diag. 0.40E+00   23.8     1.15560057     -1077.4534451068  1.31E+00
   234 Broy./Diag. 0.40E+00   24.0     1.55106517     -1074.8814171842  2.57E+00
   235 Broy./Diag. 0.40E+00   23.4     1.55627856     -1077.3944365727 -2.51E+00
   236 Broy./Diag. 0.40E+00   23.1     1.24071447     -1077.3616076156  3.28E-02
   237 Broy./Diag. 0.40E+00   23.9     1.06214811     -1077.5139523005 -1.52E-01
   238 Broy./Diag. 0.40E+00   23.7     1.55898177     -1074.7165999885  2.80E+00
   239 Broy./Diag. 0.40E+00   23.5     1.63630205     -1078.8964832815 -4.18E+00
   240 Broy./Diag. 0.40E+00   24.0     0.77376589     -1075.0917209359  3.80E+00
   241 Broy./Diag. 0.40E+00   24.4     1.18529426     -1078.7003365427 -3.61E+00
   242 Broy./Diag. 0.40E+00   22.3     1.17148403     -1077.8608084536  8.40E-01
   243 Broy./Diag. 0.40E+00   23.1     1.19072864     -1074.2945719341  3.57E+00
   244 Broy./Diag. 0.40E+00   23.0     0.89689126     -1077.5036466332 -3.21E+00
   245 Broy./Diag. 0.40E+00   22.0     1.01906367     -1077.7602994175 -2.57E-01
   246 Broy./Diag. 0.40E+00   23.0     1.54861242     -1075.1144014707  2.65E+00
   247 Broy./Diag. 0.40E+00   23.4     1.57641530     -1079.2573765562 -4.14E+00
   248 Broy./Diag. 0.40E+00   23.6     0.88404158     -1076.7683577025  2.49E+00
   249 Broy./Diag. 0.40E+00   23.2     1.58586494     -1077.4472823608 -6.79E-01
   250 Broy./Diag. 0.40E+00   21.3     1.62360710     -1078.2626967032 -8.15E-01
   251 Broy./Diag. 0.40E+00   24.0     1.42062829     -1076.6836199536  1.58E+00
   252 Broy./Diag. 0.40E+00   23.1     1.50199053     -1076.1647945019  5.19E-01
   253 Broy./Diag. 0.40E+00   22.4     0.75106648     -1073.2851332139  2.88E+00
   254 Broy./Diag. 0.40E+00   23.6     0.80822009     -1076.8921224701 -3.61E+00
   255 Broy./Diag. 0.40E+00   23.1     1.18204924     -1074.9180035518  1.97E+00
   256 Broy./Diag. 0.40E+00   23.6     0.96956552     -1077.6355415440 -2.72E+00
   257 Broy./Diag. 0.40E+00   24.0     1.21635146     -1076.5550457943  1.08E+00
   258 Broy./Diag. 0.40E+00   23.8     1.51516065     -1077.4043843555 -8.49E-01
   259 Broy./Diag. 0.40E+00   25.3     1.45604300     -1078.8287656556 -1.42E+00
   260 Broy./Diag. 0.40E+00   24.0     1.16431963     -1074.5500584499  4.28E+00
   261 Broy./Diag. 0.40E+00   23.6     1.54959237     -1077.8406312260 -3.29E+00
   262 Broy./Diag. 0.40E+00   22.7     1.56798666     -1077.7326212563  1.08E-01
   263 Broy./Diag. 0.40E+00   22.1     1.46155127     -1077.8878737232 -1.55E-01
   264 Broy./Diag. 0.40E+00   23.1     0.90568763     -1073.8850243538  4.00E+00
   265 Broy./Diag. 0.40E+00   23.5     0.98285881     -1076.8180405534 -2.93E+00
   266 Broy./Diag. 0.40E+00   23.7     1.03296757     -1077.5706691923 -7.53E-01
   267 Broy./Diag. 0.40E+00   24.0     0.69782063     -1076.8834529368  6.87E-01
   268 Broy./Diag. 0.40E+00   24.8     1.54587205     -1075.1375193850  1.75E+00
   269 Broy./Diag. 0.40E+00   23.8     1.56152259     -1077.1792108745 -2.04E+00
   270 Broy./Diag. 0.40E+00   24.9     1.22794345     -1074.8511286351  2.33E+00
   271 Broy./Diag. 0.40E+00   23.2     1.00623819     -1077.6559822842 -2.80E+00
   272 Broy./Diag. 0.40E+00   24.2     0.76376630     -1078.1076315129 -4.52E-01
   273 Broy./Diag. 0.40E+00   23.9     0.71071430     -1076.2149159502  1.89E+00
   274 Broy./Diag. 0.40E+00   23.5     1.69843741     -1074.4297546114  1.79E+00
   275 Broy./Diag. 0.40E+00   23.5     1.72030512     -1077.3547622484 -2.93E+00
   276 Broy./Diag. 0.40E+00   23.5     1.56090845     -1077.4712142222 -1.16E-01
   277 Broy./Diag. 0.40E+00   24.0     1.58829607     -1078.8302313459 -1.36E+00
   278 Broy./Diag. 0.40E+00   25.0     1.56044752     -1077.5302284049  1.30E+00
   279 Broy./Diag. 0.40E+00   22.0     1.58975152     -1076.0109311027  1.52E+00
   280 Broy./Diag. 0.40E+00   23.3     1.13625919     -1073.8550188684  2.16E+00
   281 Broy./Diag. 0.40E+00   23.2     1.10119554     -1076.6440690252 -2.79E+00
   282 Broy./Diag. 0.40E+00   23.2     0.85056089     -1077.7377430572 -1.09E+00
   283 Broy./Diag. 0.40E+00   23.7     0.92127072     -1077.3135505918  4.24E-01
   284 Broy./Diag. 0.40E+00   22.9     0.85545247     -1076.1954546892  1.12E+00
   285 Broy./Diag. 0.40E+00   23.0     1.16094514     -1076.0094601426  1.86E-01
   286 Broy./Diag. 0.40E+00   22.5     1.09454227     -1077.1671862319 -1.16E+00
   287 Broy./Diag. 0.40E+00   24.4     1.27477694     -1074.1568420110  3.01E+00
   288 Broy./Diag. 0.40E+00   22.4     1.43746318     -1078.5132298822 -4.36E+00
   289 Broy./Diag. 0.40E+00   22.6     1.29049052     -1077.6462928819  8.67E-01
   290 Broy./Diag. 0.40E+00   21.5     1.47340604     -1074.4693820134  3.18E+00
   291 Broy./Diag. 0.40E+00   21.9     1.53528132     -1078.2048701939 -3.74E+00
   292 Broy./Diag. 0.40E+00   22.9     1.57203452     -1077.1330011553  1.07E+00
   293 Broy./Diag. 0.40E+00   24.3     1.54761192     -1074.4974380183  2.64E+00
   294 Broy./Diag. 0.40E+00   24.6     1.56702631     -1076.3531906791 -1.86E+00
   295 Broy./Diag. 0.40E+00   24.3     1.06429170     -1074.7868031189  1.57E+00
   296 Broy./Diag. 0.40E+00   22.0     1.00117871     -1077.9223980235 -3.14E+00
   297 Broy./Diag. 0.40E+00   24.6     0.90394157     -1077.5298796229  3.93E-01
   298 Broy./Diag. 0.40E+00   24.4     1.29693451     -1078.8012115308 -1.27E+00
   299 Broy./Diag. 0.40E+00   23.5     1.15461210     -1074.4589845624  4.34E+00
   300 Broy./Diag. 0.40E+00   24.5     1.65394751     -1077.2439708882 -2.78E+00

  Leaving inner SCF loop after reaching   300 steps.


  Electronic density on regular grids:       -512.0000763007       -0.0000763007
  Core density on regular grids:              511.9999812784       -0.0000187216
  Total charge density on r-space grids:       -0.0000950223
  Total charge density g-space grids:          -0.0000950223

  Overlap energy of the core charge distribution:               0.00000000000000
  Self energy of the core charge distribution:              -2838.21791979120962
  Core Hamiltonian energy:                                    758.96591464575511
  Hartree energy:                                            1240.70477744212462
  Exchange-correlation energy:                               -238.69674318486230

  Total energy:                                             -1077.24397088819205

 *** WARNING in qs_scf.F:542 :: SCF run NOT converged ***


 ENERGY| Total FORCE_EVAL ( QS ) energy (a.u.):            -1071.953969063139994


 ATOMIC FORCES in [a.u.]

 # Atom   Kind   Element          X              Y              Z
      1      1      O          -0.01112760    -0.06611680     0.04480673
      2      2      H          -0.06277337     0.10602682     0.00874187
      3      2      H           0.05161227    -0.03317862    -0.08604024
      4      1      O          -0.04994403     0.05261400    -0.01713095
      5      2      H           0.00388627     0.02056382     0.05299728
      6      2      H           0.07380511    -0.05903138    -0.07525776
      7      1      O          -0.00479651     0.02471271    -0.13254126
      8      2      H           0.01404346    -0.04732459     0.02782258
      9      2      H           0.02339147     0.09859678    -0.00846480
     10      1      O           0.00623848    -0.10138886     0.01815056
     11      2      H           0.06179425     0.06739545     0.01377974
     12      2      H          -0.05296456     0.01563545    -0.08176681
     13      1      O          -0.01054123     0.04042803    -0.14982711
     14      2      H           0.05787187     0.04578376    -0.01900826
     15      2      H          -0.01352125    -0.04819305     0.08438579
     16      1      O          -0.02453627    -0.05284244    -0.07805081
     17      2      H           0.05824505    -0.03010947    -0.06197576
     18      2      H          -0.01476574     0.06123349     0.03456258
     19      1      O          -0.00461941     0.01880766     0.04508421
     20      2      H          -0.00763636    -0.02741306    -0.04968475
     21      2      H           0.01918994    -0.00014690     0.02828825
     22      1      O          -0.07469673     0.09148877     0.08146282
     23      2      H          -0.00378502    -0.05126531    -0.05493105
     24      2      H           0.04636139    -0.00331676     0.04293455
     25      1      O          -0.04204731    -0.09911306     0.19521665
     26      2      H           0.03397767    -0.04662380    -0.07959362
     27      2      H          -0.02100416     0.10829922    -0.00069708
     28      1      O           0.01927906     0.06308652     0.12948066
     29      2      H           0.01061958     0.04545023     0.02787872
     30      2      H           0.02945021     0.02355658    -0.01460014
     31      1      O          -0.06237216     0.02178871    -0.01725749
     32      2      H           0.01820074     0.04319971    -0.00415095
     33      2      H           0.02271201    -0.03113272     0.03206261
     34      1      O          -0.07790603     0.04729894    -0.11984509
     35      2      H           0.01649653     0.04474767     0.00765357
     36      2      H           0.05716136    -0.01246726     0.00493111
     37      1      O           0.09570950    -0.07751088     0.06789446
     38      2      H          -0.05176462    -0.00187053    -0.03297329
     39      2      H          -0.04960682     0.06892727     0.02967298
     40      1      O          -0.07600349    -0.09502993    -0.01845749
     41      2      H          -0.00657817     0.03194505    -0.03547583
     42      2      H           0.05942489     0.02810091     0.05843318
     43      1      O          -0.05139781     0.01651940     0.11928897
     44      2      H           0.01485589     0.01237551    -0.12737866
     45      2      H           0.05877035     0.02626898     0.02840522
     46      1      O           0.09641196    -0.10593013     0.02358730
     47      2      H           0.00954850     0.04338062     0.01607898
     48      2      H          -0.06324401    -0.03735566    -0.06423907
     49      1      O          -0.08864354     0.06000270     0.05055539
     50      2      H           0.05104721    -0.03133725     0.01693831
     51      2      H           0.02800348     0.05075098    -0.02735934
     52      1      O           0.08338799    -0.05117628    -0.07941659
     53      2      H           0.02091091     0.10192691     0.06650957
     54      2      H          -0.12625481     0.05021894    -0.06813954
     55      1      O          -0.03249553    -0.10586302     0.08801057
     56      2      H          -0.02575782     0.05091898    -0.04387388
     57      2      H           0.08215299    -0.01146985     0.04812977
     58      1      O           0.04536716     0.11539216     0.10756032
     59      2      H          -0.01900640     0.04323273    -0.05065441
     60      2      H           0.02277025    -0.04860444    -0.02011489
     61      1      O           0.07899406    -0.00356601     0.08151271
     62      2      H          -0.09212922    -0.02730854     0.05926283
     63      2      H           0.04298060    -0.03112419    -0.10446431
     64      1      O          -0.07004461    -0.02815404     0.15952108
     65      2      H           0.02735727     0.08253183    -0.01217095
     66      2      H           0.04123001    -0.09137209    -0.01762449
     67      1      O          -0.05365256     0.09269885    -0.01008676
     68      2      H          -0.01802916    -0.07783475     0.03453889
     69      2      H           0.07966893    -0.02337266    -0.01182990
     70      1      O          -0.04502755     0.01315571     0.06737362
     71      2      H           0.08336753     0.00073340     0.05128736
     72      2      H          -0.01947198    -0.00578289    -0.08981830
     73      1      O          -0.03920424     0.08252789    -0.01543643
     74      2      H           0.05230576    -0.00733233     0.07943699
     75      2      H          -0.03112485    -0.04402654     0.01975613
     76      1      O          -0.06053245     0.05208407    -0.02801446
     77      2      H           0.06567647     0.00646726    -0.06231732
     78      2      H          -0.01676160    -0.05638247     0.00183753
     79      1      O          -0.07436993     0.01801192     0.05719505
     80      2      H          -0.00357243    -0.05176038     0.08168316
     81      2      H           0.04495038    -0.03405573    -0.07856984
     82      1      O          -0.03749091    -0.04584660     0.12223619
     83      2      H           0.01700597    -0.06852276    -0.03398570
     84      2      H           0.00393909     0.06798638    -0.01258093
     85      1      O          -0.11562888     0.05144402     0.05103867
     86      2      H           0.07025538    -0.00711515     0.00380321
     87      2      H           0.03937423     0.06418514    -0.10268130
     88      1      O          -0.07999550     0.10749302    -0.07802246
     89      2      H          -0.00690473    -0.05487316     0.10294152
     90      2      H           0.07844323     0.01429669    -0.05702121
     91      1      O           0.00541739    -0.00649266    -0.03806566
     92      2      H           0.02667087    -0.00069807    -0.02505592
     93      2      H          -0.02770931     0.03271787    -0.00430901
     94      1      O          -0.03667976    -0.03329429    -0.17477476
     95      2      H           0.06109437    -0.00846090     0.06362292
     96      2      H          -0.03664618     0.03101516     0.02110926
     97      1      O          -0.11639306     0.09232242    -0.06711699
     98      2      H           0.04286056    -0.03659491    -0.11228077
     99      2      H           0.05795387     0.00022945     0.04473838
    100      1      O          -0.06918620     0.02845322     0.08855149
    101      2      H          -0.00646652    -0.01164101    -0.06040497
    102      2      H           0.04169921     0.09597026    -0.03150189
    103      1      O           0.02441239    -0.06999944     0.03550568
    104      2      H           0.05196394     0.04918574     0.03299750
    105      2      H          -0.07239255     0.04285085    -0.01827941
    106      1      O          -0.00380181     0.11984987     0.16734227
    107      2      H           0.07721621    -0.01147265    -0.01288641
    108      2      H          -0.06998295    -0.01960036    -0.00561021
    109      1      O          -0.09292546    -0.02402469     0.02066992
    110      2      H           0.02038273     0.09992286    -0.00529134
    111      2      H           0.05216261    -0.01236145     0.02217922
    112      1      O          -0.01429469    -0.03811700    -0.07874286
    113      2      H          -0.00994029     0.08274557     0.04368119
    114      2      H           0.06863417     0.00764277    -0.01313145
    115      1      O          -0.03726790    -0.04604116     0.12824084
    116      2      H          -0.03463385     0.06558753     0.01926269
    117      2      H           0.09257264     0.01370544     0.04337961
    118      1      O          -0.01786591     0.03932624    -0.14609318
    119      2      H           0.02384910    -0.03785680    -0.04381060
    120      2      H          -0.01555550     0.03194778     0.09671803
    121      1      O          -0.06181615     0.01723581    -0.02941272
    122      2      H           0.04985145     0.05229250     0.03336720
    123      2      H           0.05043153     0.02617738    -0.07052820
    124      1      O          -0.07956983     0.09575446     0.10076688
    125      2      H           0.08735558     0.00828973    -0.01074492
    126      2      H          -0.03126799    -0.09241898     0.03369643
    127      1      O          -0.05268590     0.02215604     0.01977793
    128      2      H          -0.02872858     0.05273768    -0.06685001
    129      2      H           0.09627369    -0.03587512    -0.02585636
    130      1      O           0.04973590    -0.12698674    -0.04077256
    131      2      H           0.04302529     0.03667271     0.02767215
    132      2      H          -0.06172930     0.02057570    -0.04067724
    133      1      O          -0.06696370    -0.14672850    -0.10196493
    134      2      H           0.04835738     0.02470194    -0.03091726
    135      2      H          -0.02063679     0.02868452     0.05698926
    136      1      O           0.05760114    -0.00995999    -0.02812161
    137      2      H          -0.03816161    -0.01652153    -0.10817927
    138      2      H          -0.03879448     0.07703145     0.04250465
    139      1      O           0.01158422    -0.12682977     0.02316189
    140      2      H           0.05592639    -0.02325059    -0.03305489
    141      2      H          -0.04598142     0.10165804     0.03955463
    142      1      O           0.01868712    -0.06879030    -0.16254981
    143      2      H           0.01679256    -0.04274181     0.08764896
    144      2      H          -0.00448109     0.10908378     0.02497009
    145      1      O           0.06508566    -0.06655611     0.14430588
    146      2      H          -0.06422116    -0.07201200    -0.01577127
    147      2      H          -0.01459229     0.05585888    -0.03317727
    148      1      O          -0.05453085    -0.01368723    -0.06129509
    149      2      H           0.00579786     0.07831289     0.05053072
    150      2      H           0.04768361    -0.02610528    -0.07053296
    151      1      O          -0.03060178     0.03809357    -0.01974184
    152      2      H          -0.02788123    -0.04636729     0.00163779
    153      2      H           0.03081517    -0.05877545    -0.06630645
    154      1      O           0.03348703    -0.01224013    -0.07544843
    155      2      H          -0.02856253     0.00457278    -0.04349017
    156      2      H           0.03624781     0.02570917     0.08224293
    157      1      O          -0.00247209     0.03025278     0.04031594
    158      2      H           0.06963709     0.05400697     0.05108705
    159      2      H          -0.01920700     0.00595677    -0.03973264
    160      1      O          -0.01995493     0.11154373     0.20910327
    161      2      H          -0.02082912    -0.13823399    -0.20544668
    162      2      H           0.00048589    -0.03805273     0.00934836
    163      1      O          -0.01795510    -0.15111591     0.07592507
    164      2      H           0.07075345     0.05788679    -0.02899841
    165      2      H          -0.07970270     0.08806941    -0.01479653
    166      1      O          -0.05877196    -0.04640715     0.11225292
    167      2      H           0.01878336     0.06025376     0.01000176
    168      2      H           0.05448433    -0.05268798    -0.00998320
    169      1      O          -0.11262941     0.05698633    -0.15258763
    170      2      H           0.05333741    -0.04886179    -0.03536645
    171      2      H           0.05118077     0.05095066     0.05157143
    172      1      O           0.02370487    -0.01762912     0.13480084
    173      2      H          -0.11642878     0.00217796    -0.06507802
    174      2      H           0.06430883     0.04811888    -0.07473621
    175      1      O          -0.02565832     0.02892361     0.12298845
    176      2      H          -0.00189815    -0.08780235     0.02420767
    177      2      H          -0.01370715     0.01169340    -0.06997144
    178      1      O           0.04428333     0.03358649     0.10077691
    179      2      H          -0.01496602    -0.10079024     0.04095105
    180      2      H          -0.00640034    -0.00261646    -0.12004310
    181      1      O           0.01377210    -0.06174266     0.02432137
    182      2      H          -0.06471131    -0.02449227    -0.00695341
    183      2      H           0.03333322     0.03864088    -0.01828308
    184      1      O          -0.04939846    -0.06827546     0.10213757
    185      2      H           0.07616566     0.03565091     0.03948353
    186      2      H          -0.03830142     0.08890471    -0.04586536
    187      1      O           0.08719778     0.10067734     0.02416876
    188      2      H          -0.00776634    -0.07725008    -0.00334877
    189      2      H          -0.04852739    -0.00746880     0.07735081
    190      1      O           0.02589944     0.14854877     0.06665360
    191      2      H          -0.08926298    -0.05330254    -0.02208670
    192      2      H           0.05468988    -0.06215204     0.02411557
 SUM OF ATOMIC FORCES           0.09666461     0.84056773     0.29356092     0.89558705

 -------------------------------------------------------------------------------
 -                                                                             -
 -                                DBCSR STATISTICS                             -
 -                                                                             -
 -------------------------------------------------------------------------------
 COUNTER                                    TOTAL       BLAS       SMM       ACC
 flops     5 x     5 x   256           3694835200       0.0%    100.0%      0.0%
 flops     5 x    13 x   256           4437655040       0.0%    100.0%      0.0%
 flops    13 x     5 x   256           4457689600       0.0%    100.0%      0.0%
 flops    13 x    13 x   256           6667501568       0.0%    100.0%      0.0%
 flops inhomo. stacks                           0       0.0%      0.0%      0.0%
 flops total                        19.257681E+09       0.0%    100.0%      0.0%
 flops max/rank                     19.257681E+09       0.0%    100.0%      0.0%
 matmuls inhomo. stacks                         0       0.0%      0.0%      0.0%
 matmuls total                             633003       0.0%    100.0%      0.0%
 number of processed stacks                 42140       0.0%    100.0%      0.0%
 average stack size                                     0.0      15.0       0.0
 marketing flops                   333.927416E+09
 -------------------------------------------------------------------------------
 # multiplications                            301
 max memory usage/rank              30.522061E+09
 # max total images/rank                        1
 # max 3D layers                                1
 # MPI messages exchanged                       0
 MPI messages size (bytes):
  total size                         0.000000E+00
  min size                           0.000000E+00
  max size                           0.000000E+00
  average size                       0.000000E+00
 MPI breakdown and total messages size (bytes):
             size <=      128                   0                        0
       128 < size <=     8192                   0                        0
      8192 < size <=    32768                   0                        0
     32768 < size <=   131072                   0                        0
    131072 < size <=  4194304                   0                        0
   4194304 < size <= 16777216                   0                        0
  16777216 < size                               0                        0
 -------------------------------------------------------------------------------

 MEMORY| Estimated peak process memory [MiB]                               29103

 -------------------------------------------------------------------------------
 -                                                                             -
 -                           R E F E R E N C E S                               -
 -                                                                             -
 -------------------------------------------------------------------------------
 
 CP2K version 7.1, the CP2K developers group (2019).
 CP2K is freely available from https://www.cp2k.org/ .

 Schuett, Ole; Messmer, Peter; Hutter, Juerg; VandeVondele, Joost. 
 Electronic Structure Calculations on Graphics Processing Units, John
 Wiley & Sons, Ltd, 173-190 (2016). 
 GPU-Accelerated Sparse Matrix-Matrix Multiplication for
 Linear Scaling Density Functional Theory.
 https://dx.doi.org/10.1002/9781118670712.ch8

 Borstnik, U; VandeVondele, J; Weber, V; Hutter, J. 
 PARALLEL COMPUTING, 40 (5-6), 47-58 (2014). 
 Sparse matrix multiplication: The distributed block-compressed sparse
 row library.
 https://dx.doi.org/10.1016/j.parco.2014.03.012

 Hutter, J; Iannuzzi, M; Schiffmann, F; VandeVondele, J. 
 WIREs Comput Mol Sci., 4 (1), 15-25 (2014). 
 CP2K: atomistic simulations of condensed matter systems.
 https://dx.doi.org/10.1002/wcms.1159

 Krack, M. 
 THEORETICAL CHEMISTRY ACCOUNTS, 114 (1-3), 145-152 (2005). 
 Pseudopotentials for H to Kr optimized for gradient-corrected
 exchange-correlation functionals.
 https://dx.doi.org/10.1007/s00214-005-0655-y

 VandeVondele, J; Krack, M; Mohamed, F; Parrinello, M; Chassaing, T;
 Hutter, J. COMPUTER PHYSICS COMMUNICATIONS, 167 (2), 103-128 (2005). 
 QUICKSTEP: Fast and accurate density functional calculations using a
 mixed Gaussian and plane waves approach.
 https://dx.doi.org/10.1016/j.cpc.2004.12.014

 Frigo, M; Johnson, SG. 
 PROCEEDINGS OF THE IEEE, 93 (2), 216-231 (2005). 
 The design and implementation of FFTW3.
 https://dx.doi.org/10.1109/JPROC.2004.840301

 Hartwigsen, C; Goedecker, S; Hutter, J. 
 PHYSICAL REVIEW B, 58 (7), 3641-3662 (1998). 
 Relativistic separable dual-space Gaussian pseudopotentials from H to Rn.
 https://dx.doi.org/10.1103/PhysRevB.58.3641

 Lippert, G; Hutter, J; Parrinello, M. 
 MOLECULAR PHYSICS, 92 (3), 477-487 (1997). 
 A hybrid Gaussian and plane wave density functional scheme.
 https://dx.doi.org/10.1080/002689797170220

 Goedecker, S; Teter, M; Hutter, J. 
 PHYSICAL REVIEW B, 54 (3), 1703-1710 (1996). 
 Separable dual-space Gaussian pseudopotentials.
 https://dx.doi.org/10.1103/PhysRevB.54.1703


 -------------------------------------------------------------------------------
 -                                                                             -
 -                                T I M I N G                                  -
 -                                                                             -
 -------------------------------------------------------------------------------
 SUBROUTINE                       CALLS  ASD         SELF TIME        TOTAL TIME
                                MAXIMUM       AVERAGE  MAXIMUM  AVERAGE  MAXIMUM
 CP2K                                 1  1.0    1.131    1.131 7000.832 7000.832
 qs_forces                            1  2.0    0.000    0.000 6989.669 6989.669
 qs_energies                          1  3.0    0.000    0.000 6985.960 6985.960
 scf_env_do_scf                       1  4.0    0.001    0.001 6974.484 6974.484
 scf_env_do_scf_inner_loop          300  5.0    0.050    0.050 6974.483 6974.483
 gspace_mixing                      299  6.0   42.145   42.145 2917.374 2917.374
 broyden_mixing                     299  7.0 2635.057 2635.057 2635.061 2635.061
 qs_scf_new_mos                     300  6.0    0.009    0.009 1933.105 1933.105
 eigensolver                        300  7.0    0.036    0.036 1900.590 1900.590
 cp_fm_syevd                        300  8.0 1265.924 1265.924 1267.021 1267.021
 pw_transfer                       3912  9.9    0.373    0.373 1121.805 1121.805
 fft_wrap_pw1pw2                   3310 10.9    0.049    0.049 1096.232 1096.232
 rebuild_ks_matrix                  301  7.0    0.001    0.001 1089.191 1089.191
 qs_ks_build_kohn_sham_matrix       301  8.0    0.086    0.086 1089.190 1089.190
 qs_ks_update_qs_env                300  6.0    0.004    0.004 1085.839 1085.839
 qs_rho_update_rho                  301  6.0    0.003    0.003 1040.309 1040.309
 calculate_rho_elec                 301  7.0  521.733  521.733 1040.305 1040.305
 fft_wrap_pw1pw2_70                1504 11.2   87.021   87.021 1007.647 1007.647
 cp_fm_cholesky_restore             900  8.0  632.449  632.449  632.449  632.449
 fft3d_s                           3311 12.9  516.107  516.107  516.133  516.133
 density_rs2pw                      301  8.0    0.033    0.033  511.044  511.044
 pw_scatter_s                      1804 13.2  410.296  410.296  410.296  410.296
 pw_poisson_solve                   301  9.0  333.968  333.968  359.519  359.519
 sum_up_and_integrate               301  9.0   18.042   18.042  285.218  285.218
 integrate_v_rspace                 301 10.0    7.679    7.679  267.175  267.175
 potential_pw2rs                    301 11.0    2.485    2.485  258.109  258.109
 qs_vxc_create                      301  9.0    0.007    0.007  160.720  160.720
 xc_vxc_pw_create                   301 10.0   42.272   42.272  160.713  160.713
 -------------------------------------------------------------------------------

 The number of warnings for this run is : 1
 
 -------------------------------------------------------------------------------
  **** **** ******  **  PROGRAM ENDED AT                 2020-05-28 15:19:12.087
 ***** ** ***  *** **   PROGRAM RAN ON                                   gnode44
 **    ****   ******    PROGRAM RAN BY                               mayank.modi
 ***** **    ** ** **   PROGRAM PROCESS ID                                 15485
  **** **  *******  **  PROGRAM STOPPED IN /home/mayank.modi/ab-initio-thermodyn
                                           amics-of-water/mayank/cp2k_energy_cal
                                           culations
