 DBCSR| CPU Multiplication driver                                           XSMM
 DBCSR| Multrec recursion limit                                              512
 DBCSR| Multiplication stack size                                           1000
 DBCSR| Maximum elements for images                                    UNLIMITED
 DBCSR| Multiplicative factor virtual images                                   1
 DBCSR| Use multiplication densification                                       T
 DBCSR| Multiplication size stacks                                             3


  **** **** ******  **  PROGRAM STARTED AT               2020-05-29 15:07:56.022
 ***** ** ***  *** **   PROGRAM STARTED ON                               gnode44
 **    ****   ******    PROGRAM STARTED BY                           mayank.modi
 ***** **    ** ** **   PROGRAM PROCESS ID                                 34911
  **** **  *******  **  PROGRAM STARTED IN /home/mayank.modi/ab-initio-thermodyn
                                           amics-of-water/mayank/cp2k_energy_cal
                                           culations

 CP2K| version string:                                          CP2K version 7.1
 CP2K| source code revision number:                                  git:e635599
 CP2K| cp2kflags: omp libint fftw3 libxc xsmm spglib                            
 CP2K| is freely available from                            https://www.cp2k.org/
 CP2K| Program compiled at                          Mon Dec 23 19:23:12 CET 2019
 CP2K| Program compiled on                                                pc9404
 CP2K| Program compiled for                                Linux-x86-64-gfortran
 CP2K| Data directory path                                        /opt/cp2k/data
 CP2K| Input file name                                 input_training/input36.in

 GLOBAL| Force Environment number                                              1
 GLOBAL| Basis set file name                                           BASIS_SET
 GLOBAL| Potential file name                                      GTH_POTENTIALS
 GLOBAL| MM Potential file name                                     MM_POTENTIAL
 GLOBAL| Coordinate file name                                      __STD_INPUT__
 GLOBAL| Method name                                                        CP2K
 GLOBAL| Project name                                                   H2O_bulk
 GLOBAL| Preferred FFT library                                             FFTW3
 GLOBAL| Preferred diagonalization lib.                                       SL
 GLOBAL| Run type                                                   ENERGY_FORCE
 GLOBAL| All-to-all communication in single precision                          F
 GLOBAL| FFTs using library dependent lengths                                  F
 GLOBAL| Global print level                                                  LOW
 GLOBAL| MPI I/O enabled                                                       T
 GLOBAL| Total number of message passing processes                             1
 GLOBAL| Number of threads for this process                                   36
 GLOBAL| This output is from process                                           0
 GLOBAL| CPU model name                Intel(R) Xeon(R) CPU E5-2640 v4 @ 2.40GHz
 GLOBAL| CPUID                                                              1002
 GLOBAL| Compiled for CPUID                                                    0

 MEMORY| system memory details [Kb]
 MEMORY|                        rank 0           min           max       average
 MEMORY| MemTotal            131893056     131893056     131893056     131893056
 MEMORY| MemFree             119093984     119093984     119093984     119093984
 MEMORY| Buffers               2125636       2125636       2125636       2125636
 MEMORY| Cached                3186620       3186620       3186620       3186620
 MEMORY| Slab                  3312076       3312076       3312076       3312076
 MEMORY| SReclaimable          3101288       3101288       3101288       3101288
 MEMORY| MemLikelyFree       127507528     127507528     127507528     127507528


 GENERATE| WARNING:: No connections detected for Hydrogen - Atom Nr:        77 !
 GENERATE|  Preliminary Number of Bonds generated:                             0
 GENERATE|  Achieved consistency in connectivity generation.

 *******************************************************************************
 *******************************************************************************
 **                                                                           **
 **     #####                         ##              ##                      **
 **    ##   ##            ##          ##              ##                      **
 **   ##     ##                       ##            ######                    **
 **   ##     ##  ##   ##  ##   #####  ##  ##   ####   ##    #####    #####    **
 **   ##     ##  ##   ##  ##  ##      ## ##   ##      ##   ##   ##  ##   ##   **
 **   ##  ## ##  ##   ##  ##  ##      ####     ###    ##   ######   ######    **
 **    ##  ###   ##   ##  ##  ##      ## ##      ##   ##   ##       ##        **
 **     #######   #####   ##   #####  ##  ##  ####    ##    #####   ##        **
 **           ##                                                    ##        **
 **                                                                           **
 **                                                ... make the atoms dance   **
 **                                                                           **
 **            Copyright (C) by CP2K developers group (2000 - 2019)           **
 **                                                                           **
 *******************************************************************************


 TOTAL NUMBERS AND MAXIMUM NUMBERS

  Total number of            - Atomic kinds:                                   2
                             - Atoms:                                        192
                             - Shell sets:                                   384
                             - Shells:                                       704
                             - Primitive Cartesian functions:                960
                             - Cartesian basis functions:                   1536
                             - Spherical basis functions:                   1472

  Maximum angular momentum of- Orbital basis functions:                        2
                             - Local part of the GTH pseudopotential:          2
                             - Non-local part of the GTH pseudopotential:      0


 SCF PARAMETERS         Density guess:                                    ATOMIC
                        --------------------------------------------------------
                        max_scf:                                             300
                        max_scf_history:                                       0
                        max_diis:                                              4
                        --------------------------------------------------------
                        eps_scf:                                        1.00E-07
                        eps_scf_history:                                0.00E+00
                        eps_diis:                                       1.00E-01
                        eps_eigval:                                     1.00E-05
                        --------------------------------------------------------
                        level_shift [a.u.]:                                 0.00
                        --------------------------------------------------------
                        Mixing method:                            BROYDEN_MIXING
                                                charge density mixing in g-space
                        --------------------------------------------------------
                        No outer SCF

 Number of electrons:                                                        512
 Number of occupied orbitals:                                                256
 Number of molecular orbitals:                                               256

 Number of orbital functions:                                               1472
 Number of independent orbital functions:                                   1472

 Extrapolation method: initial_guess


 SCF WAVEFUNCTION OPTIMIZATION

  Step     Update method      Time    Convergence         Total energy    Change
  ------------------------------------------------------------------------------
     1 NoMix/Diag. 0.40E+00   10.6     0.68793960     -1064.2478889590 -1.06E+03
     2 Broy./Diag. 0.40E+00   16.2     1.92779533      -994.7542401320  6.95E+01
     3 Broy./Diag. 0.40E+00   17.7     1.94456798     -1266.9281589155 -2.72E+02
     4 Broy./Diag. 0.40E+00   18.0     1.68708933     -1133.6772256666  1.33E+02
     5 Broy./Diag. 0.40E+00   17.8     1.70647323     -1096.1164415769  3.76E+01
     6 Broy./Diag. 0.40E+00   18.2     1.86098025     -1101.3297159510 -5.21E+00
     7 Broy./Diag. 0.40E+00   20.9     1.86550625     -1102.1277976110 -7.98E-01
     8 Broy./Diag. 0.40E+00   22.4     1.80702730     -1093.1795180441  8.95E+00
     9 Broy./Diag. 0.40E+00   23.7     1.86847809     -1081.8596048685  1.13E+01
    10 Broy./Diag. 0.40E+00   24.7     1.82469204     -1080.9806434538  8.79E-01
    11 Broy./Diag. 0.40E+00   25.3     1.86472558     -1077.4069911115  3.57E+00
    12 Broy./Diag. 0.40E+00   24.4     1.83013322     -1079.1753018894 -1.77E+00
    13 Broy./Diag. 0.40E+00   23.8     1.73802426     -1063.0545244107  1.61E+01
    14 Broy./Diag. 0.40E+00   23.8     1.81327024     -1084.5937954268 -2.15E+01
    15 Broy./Diag. 0.40E+00   23.0     1.85568412     -1081.6753058351  2.92E+00
    16 Broy./Diag. 0.40E+00   24.6     1.77645826     -1086.8248784672 -5.15E+00
    17 Broy./Diag. 0.40E+00   24.6     1.78476708     -1079.0214167187  7.80E+00
    18 Broy./Diag. 0.40E+00   24.4     1.32780042     -1071.9306569546  7.09E+00
    19 Broy./Diag. 0.40E+00   24.7     1.31424209     -1071.5945266035  3.36E-01
    20 Broy./Diag. 0.40E+00   24.7     1.39486862     -1079.2768920375 -7.68E+00
    21 Broy./Diag. 0.40E+00   24.5     1.51831782     -1074.8953281024  4.38E+00
    22 Broy./Diag. 0.40E+00   24.4     1.62039379     -1078.8850526109 -3.99E+00
    23 Broy./Diag. 0.40E+00   23.9     1.69215282     -1076.1010588543  2.78E+00
    24 Broy./Diag. 0.40E+00   24.3     1.74202933     -1077.5772660450 -1.48E+00
    25 Broy./Diag. 0.40E+00   24.5     1.81438199     -1079.3017175340 -1.72E+00
    26 Broy./Diag. 0.40E+00   24.2     1.78994444     -1082.8180253990 -3.52E+00
    27 Broy./Diag. 0.40E+00   24.6     1.71754331     -1071.8134469669  1.10E+01
    28 Broy./Diag. 0.40E+00   24.0     1.81920025     -1076.2207938109 -4.41E+00
    29 Broy./Diag. 0.40E+00   24.1     1.78145181     -1075.9044817936  3.16E-01
    30 Broy./Diag. 0.40E+00   24.5     1.78527062     -1075.7970611636  1.07E-01
    31 Broy./Diag. 0.40E+00   23.9     1.71151956     -1074.7902967079  1.01E+00
    32 Broy./Diag. 0.40E+00   23.5     1.75074810     -1079.5942407384 -4.80E+00
    33 Broy./Diag. 0.40E+00   24.2     1.76117920     -1079.7337727962 -1.40E-01
    34 Broy./Diag. 0.40E+00   23.7     1.75679512     -1071.7284200465  8.01E+00
    35 Broy./Diag. 0.40E+00   23.1     1.81701230     -1081.6980657873 -9.97E+00
    36 Broy./Diag. 0.40E+00   24.0     1.20443099     -1076.2607164346  5.44E+00
    37 Broy./Diag. 0.40E+00   24.1     1.23918722     -1073.5302141409  2.73E+00
    38 Broy./Diag. 0.40E+00   24.0     1.46193370     -1071.5747774517  1.96E+00
    39 Broy./Diag. 0.40E+00   24.3     1.74999402     -1076.0828942667 -4.51E+00
    40 Broy./Diag. 0.40E+00   24.1     1.73513521     -1078.1743303198 -2.09E+00
    41 Broy./Diag. 0.40E+00   24.4     1.74342831     -1072.8634902702  5.31E+00
    42 Broy./Diag. 0.40E+00   24.6     1.77738882     -1084.3234182684 -1.15E+01
    43 Broy./Diag. 0.40E+00   24.5     1.71598683     -1083.3057948686  1.02E+00
    44 Broy./Diag. 0.40E+00   24.5     1.72958940     -1074.3653284334  8.94E+00
    45 Broy./Diag. 0.40E+00   24.4     1.80079842     -1082.7028463937 -8.34E+00
    46 Broy./Diag. 0.40E+00   24.3     1.79407495     -1074.9568321349  7.75E+00
    47 Broy./Diag. 0.40E+00   24.7     1.75095128     -1080.9989450164 -6.04E+00
    48 Broy./Diag. 0.40E+00   24.5     1.83624255     -1078.6396807348  2.36E+00
    49 Broy./Diag. 0.40E+00   24.8     1.80790357     -1079.3949719025 -7.55E-01
    50 Broy./Diag. 0.40E+00   24.7     1.75737877     -1074.1247221557  5.27E+00
    51 Broy./Diag. 0.40E+00   24.4     1.83798183     -1077.8106620739 -3.69E+00
    52 Broy./Diag. 0.40E+00   24.6     1.77688998     -1075.6854214986  2.13E+00
    53 Broy./Diag. 0.40E+00   24.4     1.80006956     -1071.1871276975  4.50E+00
    54 Broy./Diag. 0.40E+00   24.4     1.86944228     -1077.4218538582 -6.23E+00
    55 Broy./Diag. 0.40E+00   24.4     1.69876820     -1070.4726723599  6.95E+00
    56 Broy./Diag. 0.40E+00   24.3     1.75067319     -1081.9895125829 -1.15E+01
    57 Broy./Diag. 0.40E+00   24.6     1.79346584     -1081.5005984447  4.89E-01
    58 Broy./Diag. 0.40E+00   24.6     1.51589888     -1071.7767001623  9.72E+00
    59 Broy./Diag. 0.40E+00   24.4     1.66945423     -1077.9315574668 -6.15E+00
    60 Broy./Diag. 0.40E+00   24.7     1.75233019     -1074.8936871324  3.04E+00
    61 Broy./Diag. 0.40E+00   24.5     1.80981441     -1075.5934276564 -7.00E-01
    62 Broy./Diag. 0.40E+00   24.7     1.71193608     -1073.9286897924  1.66E+00
    63 Broy./Diag. 0.40E+00   24.3     1.38013377     -1077.3636608244 -3.43E+00
    64 Broy./Diag. 0.40E+00   23.5     1.37777326     -1071.8104957145  5.55E+00
    65 Broy./Diag. 0.40E+00   24.8     1.71900119     -1079.9951542148 -8.18E+00
    66 Broy./Diag. 0.40E+00   24.5     1.75448801     -1082.1284366533 -2.13E+00
    67 Broy./Diag. 0.40E+00   25.6     1.81760592     -1083.5021226154 -1.37E+00
    68 Broy./Diag. 0.40E+00   25.7     1.52510102     -1074.7384595655  8.76E+00
    69 Broy./Diag. 0.40E+00   24.4     1.71421458     -1078.2349441342 -3.50E+00
    70 Broy./Diag. 0.40E+00   24.0     1.76931425     -1078.3322804097 -9.73E-02
    71 Broy./Diag. 0.40E+00   24.6     1.70730473     -1073.8064766259  4.53E+00
    72 Broy./Diag. 0.40E+00   24.7     1.78041921     -1074.7181259010 -9.12E-01
    73 Broy./Diag. 0.40E+00   24.6     1.81947368     -1073.7640068567  9.54E-01
    74 Broy./Diag. 0.40E+00   24.5     1.83378846     -1077.4669876196 -3.70E+00
    75 Broy./Diag. 0.40E+00   24.8     1.83597904     -1079.1006234456 -1.63E+00
    76 Broy./Diag. 0.40E+00   22.4     1.80965497     -1075.2636363062  3.84E+00
    77 Broy./Diag. 0.40E+00   24.2     1.74944329     -1073.9004827205  1.36E+00
    78 Broy./Diag. 0.40E+00   24.2     1.70583531     -1080.6878264720 -6.79E+00
    79 Broy./Diag. 0.40E+00   24.3     1.70408899     -1077.2833572569  3.40E+00
    80 Broy./Diag. 0.40E+00   24.2     1.34376474     -1075.5611205546  1.72E+00
    81 Broy./Diag. 0.40E+00   23.9     1.75020466     -1074.2905314987  1.27E+00
    82 Broy./Diag. 0.40E+00   24.3     1.78923559     -1078.5716519615 -4.28E+00
    83 Broy./Diag. 0.40E+00   24.4     1.78688242     -1075.6080892402  2.96E+00
    84 Broy./Diag. 0.40E+00   23.7     1.75912793     -1076.2202406240 -6.12E-01
    85 Broy./Diag. 0.40E+00   24.3     1.73668411     -1076.9125532634 -6.92E-01
    86 Broy./Diag. 0.40E+00   24.2     1.85030169     -1073.2272996783  3.69E+00
    87 Broy./Diag. 0.40E+00   24.3     1.63275719     -1075.6599764369 -2.43E+00
    88 Broy./Diag. 0.40E+00   23.8     1.45847159     -1080.3742900801 -4.71E+00
    89 Broy./Diag. 0.40E+00   24.2     1.67913774     -1074.0158901995  6.36E+00
    90 Broy./Diag. 0.40E+00   24.4     1.75140464     -1079.0397375805 -5.02E+00
    91 Broy./Diag. 0.40E+00   24.6     1.78179532     -1076.9110515111  2.13E+00
    92 Broy./Diag. 0.40E+00   24.0     1.66314528     -1076.4352793015  4.76E-01
    93 Broy./Diag. 0.40E+00   24.5     1.66706224     -1077.3932145103 -9.58E-01
    94 Broy./Diag. 0.40E+00   25.2     1.79948680     -1076.5483597197  8.45E-01
    95 Broy./Diag. 0.40E+00   25.3     1.68445356     -1076.1734362173  3.75E-01
    96 Broy./Diag. 0.40E+00   24.6     1.75389009     -1073.8761364691  2.30E+00
    97 Broy./Diag. 0.40E+00   24.9     1.68220023     -1080.3262649193 -6.45E+00
    98 Broy./Diag. 0.40E+00   23.8     1.76319920     -1076.8112329689  3.52E+00
    99 Broy./Diag. 0.40E+00   24.8     1.79152969     -1074.1501111049  2.66E+00
   100 Broy./Diag. 0.40E+00   24.8     1.75243048     -1078.4843628030 -4.33E+00
   101 Broy./Diag. 0.40E+00   24.8     1.78594617     -1075.3727426667  3.11E+00
   102 Broy./Diag. 0.40E+00   24.7     1.43730536     -1071.9459061085  3.43E+00
   103 Broy./Diag. 0.40E+00   24.5     1.70343567     -1077.7865451742 -5.84E+00
   104 Broy./Diag. 0.40E+00   25.1     1.82578229     -1079.3475021666 -1.56E+00
   105 Broy./Diag. 0.40E+00   22.5     1.82778534     -1074.2726241177  5.07E+00
   106 Broy./Diag. 0.40E+00   23.5     1.79413551     -1079.4935492368 -5.22E+00
   107 Broy./Diag. 0.40E+00   23.6     1.71040335     -1077.4254949743  2.07E+00
   108 Broy./Diag. 0.40E+00   24.4     1.71370103     -1073.0132850196  4.41E+00
   109 Broy./Diag. 0.40E+00   24.3     1.67756185     -1074.2272426492 -1.21E+00
   110 Broy./Diag. 0.40E+00   23.6     1.70784250     -1081.7395444156 -7.51E+00
   111 Broy./Diag. 0.40E+00   23.9     1.49492228     -1077.9665676324  3.77E+00
   112 Broy./Diag. 0.40E+00   24.2     1.61024058     -1073.8181300249  4.15E+00
   113 Broy./Diag. 0.40E+00   24.1     1.77806681     -1074.7132615226 -8.95E-01
   114 Broy./Diag. 0.40E+00   24.6     1.80846693     -1078.4184842334 -3.71E+00
   115 Broy./Diag. 0.40E+00   24.5     1.39181650     -1072.8068221225  5.61E+00
   116 Broy./Diag. 0.40E+00   24.8     1.67572454     -1076.6526043832 -3.85E+00
   117 Broy./Diag. 0.40E+00   24.9     1.72782992     -1079.0269763350 -2.37E+00
   118 Broy./Diag. 0.40E+00   24.6     1.78952612     -1074.8855708247  4.14E+00
   119 Broy./Diag. 0.40E+00   24.6     1.66389924     -1078.6521637965 -3.77E+00
   120 Broy./Diag. 0.40E+00   24.5     1.71205857     -1073.8468739572  4.81E+00
   121 Broy./Diag. 0.40E+00   24.9     1.71675061     -1079.4960619997 -5.65E+00
   122 Broy./Diag. 0.40E+00   24.8     1.56657688     -1074.8828331198  4.61E+00
   123 Broy./Diag. 0.40E+00   24.7     1.73690483     -1073.1801669787  1.70E+00
   124 Broy./Diag. 0.40E+00   24.4     1.79360453     -1080.5999950901 -7.42E+00
   125 Broy./Diag. 0.40E+00   25.2     1.78531368     -1074.6259591977  5.97E+00
   126 Broy./Diag. 0.40E+00   24.2     1.83305258     -1076.1919737384 -1.57E+00
   127 Broy./Diag. 0.40E+00   23.8     1.79575604     -1075.0949838156  1.10E+00
   128 Broy./Diag. 0.40E+00   24.7     1.71469664     -1076.8912165900 -1.80E+00
   129 Broy./Diag. 0.40E+00   24.4     1.53284103     -1077.6845762804 -7.93E-01
   130 Broy./Diag. 0.40E+00   25.2     1.70606762     -1074.2767534323  3.41E+00
   131 Broy./Diag. 0.40E+00   24.0     1.76419280     -1076.4451380345 -2.17E+00
   132 Broy./Diag. 0.40E+00   24.8     1.60712267     -1074.4391272889  2.01E+00
   133 Broy./Diag. 0.40E+00   24.8     1.72955668     -1078.0350004584 -3.60E+00
   134 Broy./Diag. 0.40E+00   24.6     1.85457291     -1075.9081031226  2.13E+00
   135 Broy./Diag. 0.40E+00   24.7     1.80019287     -1076.4075765485 -4.99E-01
   136 Broy./Diag. 0.40E+00   24.7     1.78370106     -1072.5600302719  3.85E+00
   137 Broy./Diag. 0.40E+00   24.6     1.40933902     -1077.3891689154 -4.83E+00
   138 Broy./Diag. 0.40E+00   24.7     1.74151026     -1077.5330870593 -1.44E-01
   139 Broy./Diag. 0.40E+00   24.5     1.80034392     -1073.8485688479  3.68E+00
   140 Broy./Diag. 0.40E+00   24.8     1.72508031     -1073.3416562163  5.07E-01
   141 Broy./Diag. 0.40E+00   24.9     1.77063234     -1082.3857943071 -9.04E+00
   142 Broy./Diag. 0.40E+00   24.7     1.67754057     -1075.1954101238  7.19E+00
   143 Broy./Diag. 0.40E+00   24.3     1.67275140     -1077.4205172014 -2.23E+00
   144 Broy./Diag. 0.40E+00   24.3     1.75696219     -1076.9636401730  4.57E-01
   145 Broy./Diag. 0.40E+00   24.2     1.82126429     -1075.9083914518  1.06E+00
   146 Broy./Diag. 0.40E+00   24.3     1.88224858     -1075.7153937079  1.93E-01
   147 Broy./Diag. 0.40E+00   23.1     1.81782417     -1073.0755135842  2.64E+00
   148 Broy./Diag. 0.40E+00   24.1     1.73865672     -1078.2399473985 -5.16E+00
   149 Broy./Diag. 0.40E+00   23.8     1.70054554     -1071.5535662992  6.69E+00
   150 Broy./Diag. 0.40E+00   24.1     1.75053028     -1081.8923820155 -1.03E+01
   151 Broy./Diag. 0.40E+00   24.6     1.72845015     -1081.0654197669  8.27E-01
   152 Broy./Diag. 0.40E+00   24.5     1.65526345     -1072.2867435635  8.78E+00
   153 Broy./Diag. 0.40E+00   23.4     1.70918574     -1078.9634202657 -6.68E+00
   154 Broy./Diag. 0.40E+00   24.2     1.76087292     -1078.6210991675  3.42E-01
   155 Broy./Diag. 0.40E+00   24.1     1.75546323     -1078.8426518330 -2.22E-01
   156 Broy./Diag. 0.40E+00   23.3     1.80255996     -1076.4818765662  2.36E+00
   157 Broy./Diag. 0.40E+00   24.4     1.75637650     -1076.7675436324 -2.86E-01
   158 Broy./Diag. 0.40E+00   24.3     1.79182784     -1076.1872579455  5.80E-01
   159 Broy./Diag. 0.40E+00   25.8     1.70843176     -1076.2355556303 -4.83E-02
   160 Broy./Diag. 0.40E+00   24.8     1.78352382     -1076.2143054046  2.13E-02
   161 Broy./Diag. 0.40E+00   24.4     1.72725260     -1076.1742478579  4.01E-02
   162 Broy./Diag. 0.40E+00   24.3     1.73220952     -1072.8766953058  3.30E+00
   163 Broy./Diag. 0.40E+00   24.5     1.72012310     -1079.9874217146 -7.11E+00
   164 Broy./Diag. 0.40E+00   23.4     1.75624273     -1075.6024398631  4.38E+00
   165 Broy./Diag. 0.40E+00   24.1     1.47547076     -1074.6253586903  9.77E-01
   166 Broy./Diag. 0.40E+00   23.3     1.71934258     -1074.7097703979 -8.44E-02
   167 Broy./Diag. 0.40E+00   25.4     1.75517892     -1079.8456736389 -5.14E+00
   168 Broy./Diag. 0.40E+00   24.4     1.55516755     -1072.7382501735  7.11E+00
   169 Broy./Diag. 0.40E+00   24.4     1.71613390     -1074.3430677203 -1.60E+00
   170 Broy./Diag. 0.40E+00   24.3     1.77225730     -1075.0802747184 -7.37E-01
   171 Broy./Diag. 0.40E+00   24.3     1.78301441     -1078.7773896833 -3.70E+00
   172 Broy./Diag. 0.40E+00   22.8     1.83815855     -1073.9797611937  4.80E+00
   173 Broy./Diag. 0.40E+00   24.5     1.72622454     -1082.7644236384 -8.78E+00
   174 Broy./Diag. 0.40E+00   23.8     1.68688461     -1075.1724853902  7.59E+00
   175 Broy./Diag. 0.40E+00   24.6     1.67921201     -1078.1144382285 -2.94E+00
   176 Broy./Diag. 0.40E+00   24.3     1.75115656     -1078.9087554292 -7.94E-01
   177 Broy./Diag. 0.40E+00   24.2     1.79132356     -1071.4807984572  7.43E+00
   178 Broy./Diag. 0.40E+00   24.4     1.80962651     -1081.6542595195 -1.02E+01
   179 Broy./Diag. 0.40E+00   24.3     1.73436655     -1078.2957368444  3.36E+00
   180 Broy./Diag. 0.40E+00   24.7     1.78296221     -1073.8453371396  4.45E+00
   181 Broy./Diag. 0.40E+00   24.8     1.79665206     -1077.1244575160 -3.28E+00
   182 Broy./Diag. 0.40E+00   25.4     1.43834464     -1073.1757715079  3.95E+00
   183 Broy./Diag. 0.40E+00   25.2     1.76189323     -1073.3522127766 -1.76E-01
   184 Broy./Diag. 0.40E+00   22.5     1.73731263     -1078.1940335246 -4.84E+00
   185 Broy./Diag. 0.40E+00   23.5     1.73043174     -1076.5582382157  1.64E+00
   186 Broy./Diag. 0.40E+00   24.5     1.81227737     -1080.6640952071 -4.11E+00
   187 Broy./Diag. 0.40E+00   24.5     1.80156702     -1072.9224360297  7.74E+00
   188 Broy./Diag. 0.40E+00   24.5     1.77446960     -1079.0854657535 -6.16E+00
   189 Broy./Diag. 0.40E+00   24.8     1.59107609     -1073.9784244214  5.11E+00
   190 Broy./Diag. 0.40E+00   24.1     1.74932465     -1074.3804621852 -4.02E-01
   191 Broy./Diag. 0.40E+00   24.2     1.75925941     -1080.3110074172 -5.93E+00
   192 Broy./Diag. 0.40E+00   24.5     1.74306474     -1074.8039876214  5.51E+00
   193 Broy./Diag. 0.40E+00   24.6     1.68167126     -1075.2723898284 -4.68E-01
   194 Broy./Diag. 0.40E+00   22.5     1.78691473     -1076.9012263864 -1.63E+00
   195 Broy./Diag. 0.40E+00   24.6     1.78148244     -1077.2925494438 -3.91E-01
   196 Broy./Diag. 0.40E+00   24.4     1.73609946     -1073.6692740082  3.62E+00
   197 Broy./Diag. 0.40E+00   24.8     1.81010182     -1077.8769515155 -4.21E+00
   198 Broy./Diag. 0.40E+00   24.1     1.82845900     -1074.3112323929  3.57E+00
   199 Broy./Diag. 0.40E+00   24.1     1.78618568     -1076.2003776880 -1.89E+00
   200 Broy./Diag. 0.40E+00   24.8     1.78833104     -1073.9636475761  2.24E+00
   201 Broy./Diag. 0.40E+00   24.0     1.79863454     -1085.5518610628 -1.16E+01
   202 Broy./Diag. 0.40E+00   23.8     1.77420076     -1075.8372206040  9.71E+00
   203 Broy./Diag. 0.40E+00   24.7     1.28326511     -1075.1550696369  6.82E-01
   204 Broy./Diag. 0.40E+00   24.7     1.76181547     -1074.0528392999  1.10E+00
   205 Broy./Diag. 0.40E+00   24.3     1.82658258     -1079.7616189227 -5.71E+00
   206 Broy./Diag. 0.40E+00   23.5     1.68786222     -1075.3901479538  4.37E+00
   207 Broy./Diag. 0.40E+00   24.1     1.80783389     -1078.0246645073 -2.63E+00
   208 Broy./Diag. 0.40E+00   24.2     1.79784365     -1075.4584050140  2.57E+00
   209 Broy./Diag. 0.40E+00   24.4     1.76343355     -1075.5978670347 -1.39E-01
   210 Broy./Diag. 0.40E+00   24.6     1.81019651     -1072.5597494940  3.04E+00
   211 Broy./Diag. 0.40E+00   24.6     1.80537410     -1084.5862398817 -1.20E+01
   212 Broy./Diag. 0.40E+00   24.5     1.74560353     -1077.3156909465  7.27E+00
   213 Broy./Diag. 0.40E+00   23.7     1.66451344     -1071.4963417520  5.82E+00
   214 Broy./Diag. 0.40E+00   21.9     1.70812850     -1083.2107737664 -1.17E+01
   215 Broy./Diag. 0.40E+00   24.3     1.27125091     -1078.9632104571  4.25E+00
   216 Broy./Diag. 0.40E+00   24.1     1.69600030     -1073.6012510762  5.36E+00
   217 Broy./Diag. 0.40E+00   24.3     1.70851883     -1076.2208164701 -2.62E+00
   218 Broy./Diag. 0.40E+00   24.6     1.74219674     -1073.0530364638  3.17E+00
   219 Broy./Diag. 0.40E+00   24.0     1.77492813     -1077.9341886201 -4.88E+00
   220 Broy./Diag. 0.40E+00   23.7     1.77420391     -1072.2640724950  5.67E+00
   221 Broy./Diag. 0.40E+00   24.4     1.81961682     -1086.8074903207 -1.45E+01
   222 Broy./Diag. 0.40E+00   24.6     1.76853561     -1076.2457642251  1.06E+01
   223 Broy./Diag. 0.40E+00   23.9     1.80456980     -1075.1279346773  1.12E+00
   224 Broy./Diag. 0.40E+00   24.6     1.77209661     -1076.4238569702 -1.30E+00
   225 Broy./Diag. 0.40E+00   24.4     1.46609190     -1078.3733247645 -1.95E+00
   226 Broy./Diag. 0.40E+00   24.4     1.70454693     -1074.3155065455  4.06E+00
   227 Broy./Diag. 0.40E+00   25.3     1.79800973     -1077.5234687010 -3.21E+00
   228 Broy./Diag. 0.40E+00   24.3     1.77257300     -1071.2077947645  6.32E+00
   229 Broy./Diag. 0.40E+00   24.8     1.76810949     -1079.4527166316 -8.24E+00
   230 Broy./Diag. 0.40E+00   24.9     1.32579997     -1077.5826698391  1.87E+00
   231 Broy./Diag. 0.40E+00   24.9     1.68032873     -1076.2710177833  1.31E+00
   232 Broy./Diag. 0.40E+00   24.6     1.75843036     -1074.3172136694  1.95E+00
   233 Broy./Diag. 0.40E+00   24.6     1.81629626     -1074.2634412958  5.38E-02
   234 Broy./Diag. 0.40E+00   25.0     1.68735014     -1074.1765676453  8.69E-02
   235 Broy./Diag. 0.40E+00   24.7     1.71842643     -1076.9546413932 -2.78E+00
   236 Broy./Diag. 0.40E+00   25.1     1.71956482     -1078.7346157536 -1.78E+00
   237 Broy./Diag. 0.40E+00   24.9     1.84322863     -1075.0699420811  3.66E+00
   238 Broy./Diag. 0.40E+00   24.5     1.75301964     -1078.2145923668 -3.14E+00
   239 Broy./Diag. 0.40E+00   24.8     1.76481791     -1075.4174751600  2.80E+00
   240 Broy./Diag. 0.40E+00   24.0     1.67814441     -1077.5488868367 -2.13E+00
   241 Broy./Diag. 0.40E+00   22.9     1.67832591     -1073.6447901186  3.90E+00
   242 Broy./Diag. 0.40E+00   22.8     1.75570492     -1075.5114236836 -1.87E+00
   243 Broy./Diag. 0.40E+00   24.4     1.78988509     -1080.3356179469 -4.82E+00
   244 Broy./Diag. 0.40E+00   24.2     1.67386564     -1072.6872129098  7.65E+00
   245 Broy./Diag. 0.40E+00   24.2     1.69646349     -1076.5840060219 -3.90E+00
   246 Broy./Diag. 0.40E+00   25.4     1.71832329     -1074.7951818137  1.79E+00
   247 Broy./Diag. 0.40E+00   24.7     1.86607486     -1076.4323419240 -1.64E+00
   248 Broy./Diag. 0.40E+00   24.7     1.73552631     -1077.9175576599 -1.49E+00
   249 Broy./Diag. 0.40E+00   23.9     1.78764283     -1077.8793892368  3.82E-02
   250 Broy./Diag. 0.40E+00   24.3     1.86144179     -1076.2368012801  1.64E+00
   251 Broy./Diag. 0.40E+00   24.9     1.71081261     -1073.5695308405  2.67E+00
   252 Broy./Diag. 0.40E+00   24.8     1.81804190     -1076.2350162428 -2.67E+00
   253 Broy./Diag. 0.40E+00   24.7     1.74222294     -1074.7733312650  1.46E+00
   254 Broy./Diag. 0.40E+00   25.1     1.74500866     -1076.9862488191 -2.21E+00
   255 Broy./Diag. 0.40E+00   22.6     1.65888421     -1076.7098207148  2.76E-01
   256 Broy./Diag. 0.40E+00   24.2     1.76955081     -1076.6784973250  3.13E-02
   257 Broy./Diag. 0.40E+00   24.0     1.88134257     -1076.2101450666  4.68E-01
   258 Broy./Diag. 0.40E+00   23.2     1.75414744     -1076.5601788122 -3.50E-01
   259 Broy./Diag. 0.40E+00   23.4     1.81626220     -1072.5094876345  4.05E+00
   260 Broy./Diag. 0.40E+00   24.3     1.67465122     -1078.8262705314 -6.32E+00
   261 Broy./Diag. 0.40E+00   24.8     1.71681094     -1076.3790132307  2.45E+00
   262 Broy./Diag. 0.40E+00   24.3     1.68064412     -1076.5602590593 -1.81E-01
   263 Broy./Diag. 0.40E+00   24.5     1.73522648     -1076.8100567228 -2.50E-01
   264 Broy./Diag. 0.40E+00   24.4     1.74665799     -1071.4666922085  5.34E+00
   265 Broy./Diag. 0.40E+00   24.7     1.75403102     -1086.3945996770 -1.49E+01
   266 Broy./Diag. 0.40E+00   23.0     1.67682090     -1079.7473387666  6.65E+00
   267 Broy./Diag. 0.40E+00   24.4     1.82351028     -1079.6056493163  1.42E-01
   268 Broy./Diag. 0.40E+00   24.4     1.80340721     -1074.0188992259  5.59E+00
   269 Broy./Diag. 0.40E+00   24.3     1.82822599     -1077.0216857420 -3.00E+00
   270 Broy./Diag. 0.40E+00   25.2     1.74436832     -1074.5274185838  2.49E+00
   271 Broy./Diag. 0.40E+00   22.7     1.86825395     -1074.7914355381 -2.64E-01
   272 Broy./Diag. 0.40E+00   24.1     1.46401272     -1076.6921145625 -1.90E+00
   273 Broy./Diag. 0.40E+00   24.3     1.67287444     -1072.8945524327  3.80E+00
   274 Broy./Diag. 0.40E+00   24.3     1.70967545     -1080.4715776236 -7.58E+00
   275 Broy./Diag. 0.40E+00   24.6     1.72031575     -1077.4197250740  3.05E+00
   276 Broy./Diag. 0.40E+00   25.1     1.80909802     -1075.6133530812  1.81E+00
   277 Broy./Diag. 0.40E+00   23.2     1.67314393     -1075.7332987502 -1.20E-01
   278 Broy./Diag. 0.40E+00   25.3     1.80416907     -1075.8573180157 -1.24E-01
   279 Broy./Diag. 0.40E+00   24.7     1.78184095     -1078.5315300464 -2.67E+00
   280 Broy./Diag. 0.40E+00   24.4     1.72040845     -1071.8011732588  6.73E+00
   281 Broy./Diag. 0.40E+00   24.3     1.74211715     -1077.1473345387 -5.35E+00
   282 Broy./Diag. 0.40E+00   25.8     1.77202647     -1081.6513813589 -4.50E+00
   283 Broy./Diag. 0.40E+00   24.7     1.72901757     -1076.2661361542  5.39E+00
   284 Broy./Diag. 0.40E+00   25.6     1.73914153     -1075.5815037980  6.85E-01
   285 Broy./Diag. 0.40E+00   24.5     1.76163521     -1075.9253740129 -3.44E-01
   286 Broy./Diag. 0.40E+00   24.2     1.88879583     -1074.3459010809  1.58E+00
   287 Broy./Diag. 0.40E+00   24.4     1.69227330     -1076.1436623298 -1.80E+00
   288 Broy./Diag. 0.40E+00   23.8     1.35374457     -1076.4004455203 -2.57E-01
   289 Broy./Diag. 0.40E+00   24.2     1.41069083     -1076.4482662052 -4.78E-02
   290 Broy./Diag. 0.40E+00   24.6     1.77793543     -1072.1961623735  4.25E+00
   291 Broy./Diag. 0.40E+00   24.0     1.74561383     -1083.5067626573 -1.13E+01
   292 Broy./Diag. 0.40E+00   23.5     1.71949728     -1080.2260071750  3.28E+00
   293 Broy./Diag. 0.40E+00   24.5     1.76488146     -1074.8750115969  5.35E+00
   294 Broy./Diag. 0.40E+00   24.2     1.79682988     -1072.8224063540  2.05E+00
   295 Broy./Diag. 0.40E+00   24.4     1.79241030     -1076.0036101099 -3.18E+00
   296 Broy./Diag. 0.40E+00   22.6     1.63536060     -1070.6656719603  5.34E+00
   297 Broy./Diag. 0.40E+00   24.7     1.78846996     -1080.3508893665 -9.69E+00
   298 Broy./Diag. 0.40E+00   24.1     1.76799764     -1077.3733676266  2.98E+00
   299 Broy./Diag. 0.40E+00   25.0     1.67270835     -1077.1732035996  2.00E-01
   300 Broy./Diag. 0.40E+00   24.7     1.74502794     -1076.1148516939  1.06E+00

  Leaving inner SCF loop after reaching   300 steps.


  Electronic density on regular grids:       -512.0002448745       -0.0002448745
  Core density on regular grids:              512.0005157864        0.0005157864
  Total charge density on r-space grids:        0.0002709119
  Total charge density g-space grids:           0.0002709119

  Overlap energy of the core charge distribution:               0.00000000000000
  Self energy of the core charge distribution:              -2838.21791979120962
  Core Hamiltonian energy:                                    760.62369505625577
  Hartree energy:                                            1240.12790182230424
  Exchange-correlation energy:                               -238.64852878127871

  Total energy:                                             -1076.11485169392836

 *** WARNING in qs_scf.F:542 :: SCF run NOT converged ***


 ENERGY| Total FORCE_EVAL ( QS ) energy (a.u.):            -1069.594220716817517


 ATOMIC FORCES in [a.u.]

 # Atom   Kind   Element          X              Y              Z
      1      1      O          -0.11342159     0.07700395    -0.11076820
      2      2      H           0.00990340    -0.06144807     0.04563240
      3      2      H           0.10250764    -0.01404755    -0.06279773
      4      1      O          -0.10652378     0.00546248    -0.12479471
      5      2      H           0.04606560    -0.02537300     0.11311076
      6      2      H           0.05616321     0.08334737    -0.08289561
      7      1      O          -0.08788135    -0.10599669    -0.04471501
      8      2      H           0.05872894     0.02007447     0.09744363
      9      2      H           0.00757950     0.09186339    -0.04145901
     10      1      O          -0.07527970    -0.14733896     0.08160564
     11      2      H           0.01405605     0.03909336     0.02911205
     12      2      H           0.03510162     0.04814246    -0.09881286
     13      1      O           0.12078539    -0.06373209     0.06160341
     14      2      H          -0.14161823     0.01982740     0.01761006
     15      2      H           0.03241825     0.04688694    -0.02166585
     16      1      O           0.00104749     0.11610392    -0.00057620
     17      2      H           0.04122170    -0.00988182     0.04167325
     18      2      H          -0.08622727     0.00503568     0.02573839
     19      1      O          -0.03803321     0.06325803    -0.06642887
     20      2      H          -0.01430046    -0.05520176     0.04029958
     21      2      H          -0.00620228     0.02147164    -0.02422111
     22      1      O           0.01564699    -0.00086573    -0.12823360
     23      2      H          -0.05867330    -0.04723661    -0.00201454
     24      2      H           0.06272496    -0.06858167     0.01705104
     25      1      O           0.25504976     0.09558175    -0.00270894
     26      2      H          -0.01580528     0.01966837    -0.03308992
     27      2      H          -0.24294134    -0.03644034    -0.02089103
     28      1      O           0.00961990     0.00109825     0.14300598
     29      2      H          -0.01318444     0.09745467    -0.04065610
     30      2      H           0.04043633    -0.01497767    -0.05155605
     31      1      O          -0.19108941     0.00169389     0.00051079
     32      2      H           0.03052118    -0.12204023    -0.04368422
     33      2      H           0.18224252     0.03866277     0.00454468
     34      1      O           0.05300557     0.05953393    -0.08218004
     35      2      H          -0.05541304    -0.09869220     0.00823274
     36      2      H          -0.04856622     0.04379551     0.01896282
     37      1      O           0.08538615    -0.02344532     0.03146245
     38      2      H           0.00101618     0.01404477     0.04360475
     39      2      H          -0.04171315    -0.02371870     0.01964623
     40      1      O          -0.05520795    -0.10425266    -0.04971199
     41      2      H           0.07970792     0.02660279     0.06095995
     42      2      H          -0.03820246    -0.02676936     0.08063604
     43      1      O          -0.08855633    -0.05575090    -0.09819894
     44      2      H           0.05562379    -0.08290815     0.02985976
     45      2      H           0.01555390     0.09869678     0.02542736
     46      1      O          -0.05403572     0.10063364    -0.13759435
     47      2      H           0.00412544    -0.03566604     0.00213068
     48      2      H           0.06784483    -0.00938288     0.04262889
     49      1      O          -0.04052110    -0.08831672     0.13741374
     50      2      H          -0.04108809     0.10102348    -0.04319734
     51      2      H           0.06796499    -0.01079601     0.02787902
     52      1      O          -0.04247093    -0.00829676     0.00018140
     53      2      H           0.09775475     0.00919597     0.00781414
     54      2      H          -0.04093519    -0.04710412     0.11647246
     55      1      O          -0.09626615    -0.01055322     0.07246701
     56      2      H          -0.00588773     0.08561516    -0.11729917
     57      2      H           0.10440122    -0.01274335    -0.00407008
     58      1      O          -0.02826217     0.03163000    -0.01322182
     59      2      H          -0.03083249    -0.07125464    -0.09063452
     60      2      H           0.08463958     0.05215049     0.00763164
     61      1      O          -0.09223420     0.14500516     0.02092714
     62      2      H           0.03224928    -0.00542809    -0.06069397
     63      2      H           0.02595367    -0.04997143     0.10222469
     64      1      O           0.04402108     0.00766888     0.18762147
     65      2      H          -0.02139995    -0.05602855    -0.05261046
     66      2      H          -0.02509163     0.08025898     0.01128039
     67      1      O          -0.07509520    -0.10232441     0.00166310
     68      2      H          -0.05070109    -0.00601577    -0.07571501
     69      2      H           0.09942023    -0.02041735     0.01687336
     70      1      O          -0.10822174    -0.04521469     0.01703569
     71      2      H           0.09723976    -0.02553391     0.02142612
     72      2      H           0.01262935     0.00409633    -0.12155057
     73      1      O          -0.05537188     0.11444897     0.08998305
     74      2      H           0.05765575     0.01863514    -0.00841334
     75      2      H          -0.03067850    -0.08696063    -0.00058196
     76      1      O          -0.04158430     0.10658456    -0.13226854
     77      2      H          -0.00691420     0.01564252     0.03314075
     78      2      H           0.00589025    -0.02340486    -0.01436838
     79      1      O          -0.03756854    -0.01453406    -0.04416779
     80      2      H           0.04938718     0.04109036     0.03192865
     81      2      H          -0.04151129    -0.05001713     0.06241539
     82      1      O           0.00293576    -0.09043695     0.03545439
     83      2      H          -0.02877611     0.08983641    -0.02681837
     84      2      H          -0.00296295    -0.05334804    -0.11041869
     85      1      O          -0.05382974    -0.03943527     0.01648901
     86      2      H           0.07256459     0.03589551     0.08258373
     87      2      H          -0.00784723     0.02642370    -0.08435369
     88      1      O           0.05248852    -0.05033835     0.16327927
     89      2      H          -0.09750734    -0.02504273     0.00985379
     90      2      H           0.03202932     0.03958572    -0.03351978
     91      1      O          -0.02886622     0.02376384     0.03653315
     92      2      H           0.04999377    -0.02948494    -0.06153016
     93      2      H          -0.01208788    -0.00361971     0.03484279
     94      1      O          -0.04437662    -0.01238396    -0.02453364
     95      2      H          -0.04677294    -0.01742760     0.05100763
     96      2      H           0.05412079     0.01827399     0.03368626
     97      1      O          -0.04568464     0.04333532    -0.10412610
     98      2      H           0.01620124    -0.04169033    -0.01305672
     99      2      H           0.00360660    -0.02996496     0.10442791
    100      1      O          -0.01802154    -0.03828052    -0.02655255
    101      2      H          -0.03398596     0.05444015    -0.10477267
    102      2      H           0.04348134     0.08125123     0.07074717
    103      1      O           0.09963520     0.02489482     0.04362705
    104      2      H          -0.05323068     0.00243632     0.11816881
    105      2      H          -0.05577864     0.00199618    -0.05907446
    106      1      O           0.03370103    -0.08663544     0.02014254
    107      2      H           0.03659728     0.00091562     0.06130237
    108      2      H          -0.07642423     0.01220777     0.06973878
    109      1      O           0.00099897    -0.00004279    -0.05766054
    110      2      H           0.08083981    -0.01518272    -0.00001171
    111      2      H          -0.08820892    -0.04989471    -0.05719703
    112      1      O          -0.03769787    -0.08015319    -0.05373652
    113      2      H          -0.04430953    -0.05189758     0.07165427
    114      2      H           0.05225697     0.06377494     0.07592529
    115      1      O           0.02163428     0.02981245     0.15685646
    116      2      H          -0.08645335     0.00508050    -0.03187378
    117      2      H           0.04418838     0.00864870    -0.06129796
    118      1      O          -0.09535718    -0.00087513    -0.01753507
    119      2      H           0.10530367     0.04303388    -0.02738535
    120      2      H          -0.00971151    -0.06080729     0.00036701
    121      1      O          -0.00807536    -0.08111725    -0.08337838
    122      2      H          -0.00387790     0.04712960    -0.02878391
    123      2      H           0.01094850    -0.00440216    -0.01541111
    124      1      O          -0.09937811     0.06461934    -0.05744094
    125      2      H           0.01573631    -0.09853283     0.01724314
    126      2      H           0.08985019    -0.01186767    -0.04152507
    127      1      O           0.02743152     0.00168086     0.12998530
    128      2      H           0.04832458    -0.01716709    -0.05619592
    129      2      H          -0.04242709     0.02140297    -0.07973974
    130      1      O           0.04719770    -0.03946801     0.03352248
    131      2      H           0.00921370     0.05912145    -0.05257256
    132      2      H          -0.01272451     0.04521790     0.09827646
    133      1      O          -0.01459287    -0.11899503    -0.15357871
    134      2      H           0.02694346     0.00672892     0.05915398
    135      2      H           0.00069185     0.09155994     0.04372436
    136      1      O          -0.01257680    -0.00546780    -0.04827876
    137      2      H          -0.02795937     0.02957969     0.05644637
    138      2      H           0.06996227     0.04728179    -0.00435014
    139      1      O          -0.07893015    -0.00026438     0.16020811
    140      2      H           0.05587025    -0.01781399    -0.07717759
    141      2      H          -0.00572312     0.08021280     0.00202557
    142      1      O          -0.01100890    -0.12115819     0.00307852
    143      2      H           0.00531050    -0.00137854     0.10166508
    144      2      H          -0.00028577     0.09277002    -0.00328608
    145      1      O          -0.09359432    -0.01388999     0.02167259
    146      2      H           0.02318996     0.04676219    -0.03727288
    147      2      H           0.04043831    -0.07762176     0.03038721
    148      1      O          -0.06376485    -0.05875459     0.01811443
    149      2      H           0.06466259     0.06919989    -0.02152950
    150      2      H          -0.01204396    -0.05711918     0.07134106
    151      1      O          -0.04398848     0.12429274    -0.11370947
    152      2      H          -0.01421047     0.02259498     0.05574375
    153      2      H           0.07878471    -0.01384869     0.00091156
    154      1      O          -0.10169488     0.13430092    -0.08532764
    155      2      H           0.04475003    -0.08091833    -0.01631173
    156      2      H           0.02050975     0.06332304     0.09667455
    157      1      O          -0.06346348    -0.11605517     0.02954588
    158      2      H           0.07088771    -0.00960537    -0.03558175
    159      2      H          -0.00242476     0.05318704     0.00776039
    160      1      O           0.03195623     0.08459275     0.06217425
    161      2      H           0.00406937    -0.06735546     0.10057094
    162      2      H          -0.01734328    -0.04690679    -0.03160686
    163      1      O           0.06033000    -0.02350849     0.00354793
    164      2      H          -0.01106724     0.00994249    -0.09577363
    165      2      H          -0.03628024    -0.04781961    -0.02054487
    166      1      O           0.00609234    -0.09097159     0.00333705
    167      2      H          -0.00946641    -0.02570676     0.01603319
    168      2      H           0.01608268     0.02639140     0.03907292
    169      1      O          -0.02047096     0.07405701     0.00626683
    170      2      H           0.01782895    -0.03513077     0.10525371
    171      2      H          -0.01407664    -0.06036243    -0.05123531
    172      1      O          -0.03694045    -0.10667526     0.17946467
    173      2      H          -0.04000324     0.08609764    -0.03754117
    174      2      H           0.08376254     0.02985325    -0.09300176
    175      1      O          -0.04340926     0.05335443     0.01559280
    176      2      H           0.01714273     0.01026171     0.04689730
    177      2      H           0.04256551    -0.06509714     0.02073508
    178      1      O          -0.04226186    -0.02070382    -0.07334899
    179      2      H           0.03939361     0.02365780     0.08107861
    180      2      H          -0.01067317    -0.00856009     0.02279167
    181      1      O          -0.10436151    -0.09507539     0.15280343
    182      2      H          -0.00600078     0.09096443    -0.03820952
    183      2      H           0.06986857     0.00898838    -0.02005597
    184      1      O          -0.01730072    -0.02303085    -0.10011793
    185      2      H          -0.03633323     0.06911492     0.04770838
    186      2      H           0.07898520     0.00292634     0.02709885
    187      1      O           0.07322452    -0.09297644    -0.02690848
    188      2      H          -0.04248024    -0.01824665    -0.00665543
    189      2      H          -0.00991566     0.02359502     0.07992588
    190      1      O           0.00589784     0.07782899     0.00438470
    191      2      H          -0.03118116    -0.08584107     0.04139964
    192      2      H           0.03218763     0.00356851     0.05934044
 SUM OF ATOMIC FORCES          -0.29975477    -0.17516852     0.74816494     0.82479556

 -------------------------------------------------------------------------------
 -                                                                             -
 -                                DBCSR STATISTICS                             -
 -                                                                             -
 -------------------------------------------------------------------------------
 COUNTER                                    TOTAL       BLAS       SMM       ACC
 flops     5 x     5 x   256           3533017600       0.0%    100.0%      0.0%
 flops    13 x     5 x   256           4327464960       0.0%    100.0%      0.0%
 flops     5 x    13 x   256           4327464960       0.0%    100.0%      0.0%
 flops    13 x    13 x   256           6485187072       0.0%    100.0%      0.0%
 flops inhomo. stacks                           0       0.0%      0.0%      0.0%
 flops total                        18.673135E+09       0.0%    100.0%      0.0%
 flops max/rank                     18.673135E+09       0.0%    100.0%      0.0%
 matmuls inhomo. stacks                         0       0.0%      0.0%      0.0%
 matmuls total                             611030       0.0%    100.0%      0.0%
 number of processed stacks                 42140       0.0%    100.0%      0.0%
 average stack size                                     0.0      14.5       0.0
 marketing flops                   333.927416E+09
 -------------------------------------------------------------------------------
 # multiplications                            301
 max memory usage/rank              30.554087E+09
 # max total images/rank                        1
 # max 3D layers                                1
 # MPI messages exchanged                       0
 MPI messages size (bytes):
  total size                         0.000000E+00
  min size                           0.000000E+00
  max size                           0.000000E+00
  average size                       0.000000E+00
 MPI breakdown and total messages size (bytes):
             size <=      128                   0                        0
       128 < size <=     8192                   0                        0
      8192 < size <=    32768                   0                        0
     32768 < size <=   131072                   0                        0
    131072 < size <=  4194304                   0                        0
   4194304 < size <= 16777216                   0                        0
  16777216 < size                               0                        0
 -------------------------------------------------------------------------------

 MEMORY| Estimated peak process memory [MiB]                               29143

 -------------------------------------------------------------------------------
 -                                                                             -
 -                           R E F E R E N C E S                               -
 -                                                                             -
 -------------------------------------------------------------------------------
 
 CP2K version 7.1, the CP2K developers group (2019).
 CP2K is freely available from https://www.cp2k.org/ .

 Schuett, Ole; Messmer, Peter; Hutter, Juerg; VandeVondele, Joost. 
 Electronic Structure Calculations on Graphics Processing Units, John
 Wiley & Sons, Ltd, 173-190 (2016). 
 GPU-Accelerated Sparse Matrix-Matrix Multiplication for
 Linear Scaling Density Functional Theory.
 https://dx.doi.org/10.1002/9781118670712.ch8

 Borstnik, U; VandeVondele, J; Weber, V; Hutter, J. 
 PARALLEL COMPUTING, 40 (5-6), 47-58 (2014). 
 Sparse matrix multiplication: The distributed block-compressed sparse
 row library.
 https://dx.doi.org/10.1016/j.parco.2014.03.012

 Hutter, J; Iannuzzi, M; Schiffmann, F; VandeVondele, J. 
 WIREs Comput Mol Sci., 4 (1), 15-25 (2014). 
 CP2K: atomistic simulations of condensed matter systems.
 https://dx.doi.org/10.1002/wcms.1159

 Krack, M. 
 THEORETICAL CHEMISTRY ACCOUNTS, 114 (1-3), 145-152 (2005). 
 Pseudopotentials for H to Kr optimized for gradient-corrected
 exchange-correlation functionals.
 https://dx.doi.org/10.1007/s00214-005-0655-y

 VandeVondele, J; Krack, M; Mohamed, F; Parrinello, M; Chassaing, T;
 Hutter, J. COMPUTER PHYSICS COMMUNICATIONS, 167 (2), 103-128 (2005). 
 QUICKSTEP: Fast and accurate density functional calculations using a
 mixed Gaussian and plane waves approach.
 https://dx.doi.org/10.1016/j.cpc.2004.12.014

 Frigo, M; Johnson, SG. 
 PROCEEDINGS OF THE IEEE, 93 (2), 216-231 (2005). 
 The design and implementation of FFTW3.
 https://dx.doi.org/10.1109/JPROC.2004.840301

 Hartwigsen, C; Goedecker, S; Hutter, J. 
 PHYSICAL REVIEW B, 58 (7), 3641-3662 (1998). 
 Relativistic separable dual-space Gaussian pseudopotentials from H to Rn.
 https://dx.doi.org/10.1103/PhysRevB.58.3641

 Lippert, G; Hutter, J; Parrinello, M. 
 MOLECULAR PHYSICS, 92 (3), 477-487 (1997). 
 A hybrid Gaussian and plane wave density functional scheme.
 https://dx.doi.org/10.1080/002689797170220

 Goedecker, S; Teter, M; Hutter, J. 
 PHYSICAL REVIEW B, 54 (3), 1703-1710 (1996). 
 Separable dual-space Gaussian pseudopotentials.
 https://dx.doi.org/10.1103/PhysRevB.54.1703


 -------------------------------------------------------------------------------
 -                                                                             -
 -                                T I M I N G                                  -
 -                                                                             -
 -------------------------------------------------------------------------------
 SUBROUTINE                       CALLS  ASD         SELF TIME        TOTAL TIME
                                MAXIMUM       AVERAGE  MAXIMUM  AVERAGE  MAXIMUM
 CP2K                                 1  1.0    1.045    1.045 7278.633 7278.633
 qs_forces                            1  2.0    0.000    0.000 7267.271 7267.271
 qs_energies                          1  3.0    0.000    0.000 7263.350 7263.350
 scf_env_do_scf                       1  4.0    0.001    0.001 7251.802 7251.802
 scf_env_do_scf_inner_loop          300  5.0    0.050    0.050 7251.802 7251.802
 gspace_mixing                      299  6.0   42.267   42.267 3006.988 3006.988
 broyden_mixing                     299  7.0 2717.640 2717.640 2717.643 2717.643
 qs_scf_new_mos                     300  6.0    0.008    0.008 1989.181 1989.181
 eigensolver                        300  7.0    0.035    0.035 1916.629 1916.629
 cp_fm_syevd                        300  8.0 1274.653 1274.653 1275.821 1275.821
 pw_transfer                       3912  9.9    0.384    0.384 1183.429 1183.429
 rebuild_ks_matrix                  301  7.0    0.001    0.001 1169.093 1169.093
 qs_ks_build_kohn_sham_matrix       301  8.0    0.117    0.117 1169.092 1169.092
 qs_ks_update_qs_env                300  6.0    0.004    0.004 1165.588 1165.588
 fft_wrap_pw1pw2                   3310 10.9    0.049    0.049 1151.723 1151.723
 qs_rho_update_rho                  301  6.0    0.002    0.002 1090.981 1090.981
 calculate_rho_elec                 301  7.0  547.699  547.699 1090.978 1090.978
 fft_wrap_pw1pw2_70                1504 11.2   91.133   91.133 1044.174 1044.174
 cp_fm_cholesky_restore             900  8.0  639.718  639.718  639.718  639.718
 fft3d_s                           3311 12.9  552.374  552.374  552.409  552.409
 density_rs2pw                      301  8.0    0.031    0.031  533.876  533.876
 pw_scatter_s                      1804 13.2  410.245  410.245  410.245  410.245
 pw_poisson_solve                   301  9.0  333.402  333.402  365.072  365.072
 sum_up_and_integrate               301  9.0   17.869   17.869  340.912  340.912
 integrate_v_rspace                 301 10.0   10.586   10.586  323.042  323.042
 potential_pw2rs                    301 11.0    2.615    2.615  287.231  287.231
 qs_vxc_create                      301  9.0    0.007    0.007  167.122  167.122
 xc_vxc_pw_create                   301 10.0   42.461   42.461  167.115  167.115
 -------------------------------------------------------------------------------

 The number of warnings for this run is : 1
 
 -------------------------------------------------------------------------------
  **** **** ******  **  PROGRAM ENDED AT                 2020-05-29 17:09:15.169
 ***** ** ***  *** **   PROGRAM RAN ON                                   gnode44
 **    ****   ******    PROGRAM RAN BY                               mayank.modi
 ***** **    ** ** **   PROGRAM PROCESS ID                                 34911
  **** **  *******  **  PROGRAM STOPPED IN /home/mayank.modi/ab-initio-thermodyn
                                           amics-of-water/mayank/cp2k_energy_cal
                                           culations
