 DBCSR| CPU Multiplication driver                                           XSMM
 DBCSR| Multrec recursion limit                                              512
 DBCSR| Multiplication stack size                                           1000
 DBCSR| Maximum elements for images                                    UNLIMITED
 DBCSR| Multiplicative factor virtual images                                   1
 DBCSR| Use multiplication densification                                       T
 DBCSR| Multiplication size stacks                                             3


  **** **** ******  **  PROGRAM STARTED AT               2020-05-30 17:13:31.421
 ***** ** ***  *** **   PROGRAM STARTED ON                               gnode44
 **    ****   ******    PROGRAM STARTED BY                           mayank.modi
 ***** **    ** ** **   PROGRAM PROCESS ID                                 13850
  **** **  *******  **  PROGRAM STARTED IN /home/mayank.modi/ab-initio-thermodyn
                                           amics-of-water/mayank/cp2k_energy_cal
                                           culations

 CP2K| version string:                                          CP2K version 7.1
 CP2K| source code revision number:                                  git:e635599
 CP2K| cp2kflags: omp libint fftw3 libxc xsmm spglib                            
 CP2K| is freely available from                            https://www.cp2k.org/
 CP2K| Program compiled at                          Mon Dec 23 19:23:12 CET 2019
 CP2K| Program compiled on                                                pc9404
 CP2K| Program compiled for                                Linux-x86-64-gfortran
 CP2K| Data directory path                                        /opt/cp2k/data
 CP2K| Input file name                                 input_training/input49.in

 GLOBAL| Force Environment number                                              1
 GLOBAL| Basis set file name                                           BASIS_SET
 GLOBAL| Potential file name                                      GTH_POTENTIALS
 GLOBAL| MM Potential file name                                     MM_POTENTIAL
 GLOBAL| Coordinate file name                                      __STD_INPUT__
 GLOBAL| Method name                                                        CP2K
 GLOBAL| Project name                                                   H2O_bulk
 GLOBAL| Preferred FFT library                                             FFTW3
 GLOBAL| Preferred diagonalization lib.                                       SL
 GLOBAL| Run type                                                   ENERGY_FORCE
 GLOBAL| All-to-all communication in single precision                          F
 GLOBAL| FFTs using library dependent lengths                                  F
 GLOBAL| Global print level                                                  LOW
 GLOBAL| MPI I/O enabled                                                       T
 GLOBAL| Total number of message passing processes                             1
 GLOBAL| Number of threads for this process                                   36
 GLOBAL| This output is from process                                           0
 GLOBAL| CPU model name                Intel(R) Xeon(R) CPU E5-2640 v4 @ 2.40GHz
 GLOBAL| CPUID                                                              1002
 GLOBAL| Compiled for CPUID                                                    0

 MEMORY| system memory details [Kb]
 MEMORY|                        rank 0           min           max       average
 MEMORY| MemTotal            131893056     131893056     131893056     131893056
 MEMORY| MemFree             120576236     120576236     120576236     120576236
 MEMORY| Buffers               2132316       2132316       2132316       2132316
 MEMORY| Cached                3618168       3618168       3618168       3618168
 MEMORY| Slab                  3314152       3314152       3314152       3314152
 MEMORY| SReclaimable          3108148       3108148       3108148       3108148
 MEMORY| MemLikelyFree       129434868     129434868     129434868     129434868


 GENERATE|  Preliminary Number of Bonds generated:                             0
 GENERATE|  Achieved consistency in connectivity generation.

 *******************************************************************************
 *******************************************************************************
 **                                                                           **
 **     #####                         ##              ##                      **
 **    ##   ##            ##          ##              ##                      **
 **   ##     ##                       ##            ######                    **
 **   ##     ##  ##   ##  ##   #####  ##  ##   ####   ##    #####    #####    **
 **   ##     ##  ##   ##  ##  ##      ## ##   ##      ##   ##   ##  ##   ##   **
 **   ##  ## ##  ##   ##  ##  ##      ####     ###    ##   ######   ######    **
 **    ##  ###   ##   ##  ##  ##      ## ##      ##   ##   ##       ##        **
 **     #######   #####   ##   #####  ##  ##  ####    ##    #####   ##        **
 **           ##                                                    ##        **
 **                                                                           **
 **                                                ... make the atoms dance   **
 **                                                                           **
 **            Copyright (C) by CP2K developers group (2000 - 2019)           **
 **                                                                           **
 *******************************************************************************


 TOTAL NUMBERS AND MAXIMUM NUMBERS

  Total number of            - Atomic kinds:                                   2
                             - Atoms:                                        192
                             - Shell sets:                                   384
                             - Shells:                                       704
                             - Primitive Cartesian functions:                960
                             - Cartesian basis functions:                   1536
                             - Spherical basis functions:                   1472

  Maximum angular momentum of- Orbital basis functions:                        2
                             - Local part of the GTH pseudopotential:          2
                             - Non-local part of the GTH pseudopotential:      0


 SCF PARAMETERS         Density guess:                                    ATOMIC
                        --------------------------------------------------------
                        max_scf:                                             300
                        max_scf_history:                                       0
                        max_diis:                                              4
                        --------------------------------------------------------
                        eps_scf:                                        1.00E-07
                        eps_scf_history:                                0.00E+00
                        eps_diis:                                       1.00E-01
                        eps_eigval:                                     1.00E-05
                        --------------------------------------------------------
                        level_shift [a.u.]:                                 0.00
                        --------------------------------------------------------
                        Mixing method:                            BROYDEN_MIXING
                                                charge density mixing in g-space
                        --------------------------------------------------------
                        No outer SCF

 Number of electrons:                                                        512
 Number of occupied orbitals:                                                256
 Number of molecular orbitals:                                               256

 Number of orbital functions:                                               1472
 Number of independent orbital functions:                                   1472

 Extrapolation method: initial_guess


 SCF WAVEFUNCTION OPTIMIZATION

  Step     Update method      Time    Convergence         Total energy    Change
  ------------------------------------------------------------------------------
     1 NoMix/Diag. 0.40E+00   10.0     0.59723520     -1064.2682622893 -1.06E+03
     2 Broy./Diag. 0.40E+00   14.9     1.91400665      -997.4064328577  6.69E+01
     3 Broy./Diag. 0.40E+00   16.7     1.94497433     -1259.3486572971 -2.62E+02
     4 Broy./Diag. 0.40E+00   17.6     1.94549577     -1107.6974412247  1.52E+02
     5 Broy./Diag. 0.40E+00   17.8     1.88825618     -1100.0483802074  7.65E+00
     6 Broy./Diag. 0.40E+00   19.0     0.42163103     -1096.4343025634  3.61E+00
     7 Broy./Diag. 0.40E+00   20.0     0.31194130     -1077.5267974560  1.89E+01
     8 Broy./Diag. 0.40E+00   20.6     1.67218966     -1075.5248793570  2.00E+00
     9 Broy./Diag. 0.40E+00   22.1     1.67766581     -1079.9729907962 -4.45E+00
    10 Broy./Diag. 0.40E+00   23.4     0.91527403     -1079.4946190070  4.78E-01
    11 Broy./Diag. 0.40E+00   22.6     1.68080254     -1077.3428029398  2.15E+00
    12 Broy./Diag. 0.40E+00   23.9     1.67313152     -1078.7238855307 -1.38E+00
    13 Broy./Diag. 0.40E+00   23.7     0.93676453     -1077.4475491907  1.28E+00
    14 Broy./Diag. 0.40E+00   24.4     1.65885922     -1076.4298671093  1.02E+00
    15 Broy./Diag. 0.40E+00   23.3     0.89898989     -1077.0920703875 -6.62E-01
    16 Broy./Diag. 0.40E+00   23.8     0.08830139     -1076.7672766419  3.25E-01
    17 Broy./Diag. 0.40E+00   24.0     0.04235954     -1074.4024339015  2.36E+00
    18 Broy./Diag. 0.40E+00   24.4     1.45994351     -1075.9494202199 -1.55E+00
    19 Broy./Diag. 0.40E+00   23.9     1.50334066     -1078.2748226287 -2.33E+00
    20 Broy./Diag. 0.40E+00   24.0     1.53173759     -1077.3280464792  9.47E-01
    21 Broy./Diag. 0.40E+00   23.7     0.93899471     -1077.0231137734  3.05E-01
    22 Broy./Diag. 0.40E+00   24.1     0.06083523     -1074.9768732380  2.05E+00
    23 Broy./Diag. 0.40E+00   22.0     1.66211081     -1076.6795282467 -1.70E+00
    24 Broy./Diag. 0.40E+00   22.7     0.68843917     -1077.8278318203 -1.15E+00
    25 Broy./Diag. 0.40E+00   23.5     0.86323481     -1077.4659882278  3.62E-01
    26 Broy./Diag. 0.40E+00   24.7     1.57377755     -1077.4860828813 -2.01E-02
    27 Broy./Diag. 0.40E+00   23.0     0.04874919     -1075.4295345508  2.06E+00
    28 Broy./Diag. 0.40E+00   23.4     1.57324241     -1075.4605277792 -3.10E-02
    29 Broy./Diag. 0.40E+00   24.3     1.57132970     -1078.1325327058 -2.67E+00
    30 Broy./Diag. 0.40E+00   23.4     1.32104064     -1075.6461904966  2.49E+00
    31 Broy./Diag. 0.40E+00   23.8     1.33981383     -1077.6650932910 -2.02E+00
    32 Broy./Diag. 0.40E+00   23.8     1.32794718     -1077.7887360788 -1.24E-01
    33 Broy./Diag. 0.40E+00   25.0     0.93467193     -1077.4757600620  3.13E-01
    34 Broy./Diag. 0.40E+00   23.7     0.92502096     -1075.7778772085  1.70E+00
    35 Broy./Diag. 0.40E+00   24.1     1.49360208     -1077.4239069275 -1.65E+00
    36 Broy./Diag. 0.40E+00   23.9     1.50100952     -1077.4582067958 -3.43E-02
    37 Broy./Diag. 0.40E+00   22.9     1.54522720     -1077.4096933082  4.85E-02
    38 Broy./Diag. 0.40E+00   21.8     1.54352121     -1075.0969912497  2.31E+00
    39 Broy./Diag. 0.40E+00   21.5     1.50917715     -1078.3788382131 -3.28E+00
    40 Broy./Diag. 0.40E+00   23.1     1.05647381     -1076.1155734372  2.26E+00
    41 Broy./Diag. 0.40E+00   23.3     1.74154467     -1077.5562078315 -1.44E+00
    42 Broy./Diag. 0.40E+00   23.9     1.76277912     -1077.4553288033  1.01E-01
    43 Broy./Diag. 0.40E+00   24.3     0.05879017     -1074.9108347950  2.54E+00
    44 Broy./Diag. 0.40E+00   23.2     0.04927832     -1075.9647906546 -1.05E+00
    45 Broy./Diag. 0.40E+00   24.3     1.01205963     -1075.5145389325  4.50E-01
    46 Broy./Diag. 0.40E+00   23.5     1.32374379     -1077.6151339140 -2.10E+00
    47 Broy./Diag. 0.40E+00   23.2     1.35303920     -1077.9902324202 -3.75E-01
    48 Broy./Diag. 0.40E+00   23.8     1.37334104     -1075.6349068713  2.36E+00
    49 Broy./Diag. 0.40E+00   23.8     1.37700829     -1077.2822767758 -1.65E+00
    50 Broy./Diag. 0.40E+00   23.5     0.85569701     -1077.4425980344 -1.60E-01
    51 Broy./Diag. 0.40E+00   23.4     1.75850119     -1075.2449925584  2.20E+00
    52 Broy./Diag. 0.40E+00   22.5     1.75645078     -1078.1881265962 -2.94E+00
    53 Broy./Diag. 0.40E+00   23.2     1.53499318     -1078.0203695905  1.68E-01
    54 Broy./Diag. 0.40E+00   24.1     1.33977920     -1077.8856574813  1.35E-01
    55 Broy./Diag. 0.40E+00   23.6     0.98678380     -1075.4587447100  2.43E+00
    56 Broy./Diag. 0.40E+00   23.8     0.99109691     -1077.6823103765 -2.22E+00
    57 Broy./Diag. 0.40E+00   22.7     1.60375930     -1077.6811001259  1.21E-03
    58 Broy./Diag. 0.40E+00   23.5     1.60872609     -1077.5198224766  1.61E-01
    59 Broy./Diag. 0.40E+00   23.6     0.30476639     -1075.4600901051  2.06E+00
    60 Broy./Diag. 0.40E+00   24.0     1.31142159     -1076.1742104396 -7.14E-01
    61 Broy./Diag. 0.40E+00   22.0     1.32253654     -1077.4922349204 -1.32E+00
    62 Broy./Diag. 0.40E+00   24.2     0.05839030     -1075.2707881320  2.22E+00
    63 Broy./Diag. 0.40E+00   24.1     0.05346401     -1075.9201861628 -6.49E-01
    64 Broy./Diag. 0.40E+00   23.1     1.32371744     -1075.5747962381  3.45E-01
    65 Broy./Diag. 0.40E+00   23.1     1.51653278     -1077.6396146846 -2.06E+00
    66 Broy./Diag. 0.40E+00   23.4     1.22978142     -1077.6249243365  1.47E-02
    67 Broy./Diag. 0.40E+00   23.7     1.38408195     -1077.6706815828 -4.58E-02
    68 Broy./Diag. 0.40E+00   23.5     0.04823812     -1075.5786363624  2.09E+00
    69 Broy./Diag. 0.40E+00   22.3     0.84944745     -1075.4984678197  8.02E-02
    70 Broy./Diag. 0.40E+00   22.1     1.50519229     -1077.9435231491 -2.45E+00
    71 Broy./Diag. 0.40E+00   21.0     1.53047617     -1077.8408387827  1.03E-01
    72 Broy./Diag. 0.40E+00   23.2     0.87609413     -1077.7646675016  7.62E-02
    73 Broy./Diag. 0.40E+00   23.9     1.74955283     -1075.3313542551  2.43E+00
    74 Broy./Diag. 0.40E+00   23.7     1.32364755     -1077.8651699493 -2.53E+00
    75 Broy./Diag. 0.40E+00   23.1     1.27436059     -1077.6526903239  2.12E-01
    76 Broy./Diag. 0.40E+00   24.0     1.06824809     -1075.3803138307  2.27E+00
    77 Broy./Diag. 0.40E+00   23.6     1.06179482     -1077.9340945921 -2.55E+00
    78 Broy./Diag. 0.40E+00   23.8     0.04626115     -1075.5031823411  2.43E+00
    79 Broy./Diag. 0.40E+00   22.9     0.85398198     -1075.0887499460  4.14E-01
    80 Broy./Diag. 0.40E+00   24.2     1.32146748     -1077.7597186323 -2.67E+00
    81 Broy./Diag. 0.40E+00   23.3     1.35196659     -1077.7125256822  4.72E-02
    82 Broy./Diag. 0.40E+00   22.4     1.34295896     -1075.4560032958  2.26E+00
    83 Broy./Diag. 0.40E+00   22.4     1.34513445     -1077.5579184380 -2.10E+00
    84 Broy./Diag. 0.40E+00   21.7     1.51076729     -1075.4968007209  2.06E+00
    85 Broy./Diag. 0.40E+00   22.1     1.51937656     -1077.7725924610 -2.28E+00
    86 Broy./Diag. 0.40E+00   23.0     1.32669585     -1077.7097438882  6.28E-02
    87 Broy./Diag. 0.40E+00   23.6     1.04994778     -1077.7829272289 -7.32E-02
    88 Broy./Diag. 0.40E+00   23.5     1.13213476     -1075.4209082848  2.36E+00
    89 Broy./Diag. 0.40E+00   24.5     1.09321097     -1077.6765052990 -2.26E+00
    90 Broy./Diag. 0.40E+00   23.9     0.89753674     -1077.7478291532 -7.13E-02
    91 Broy./Diag. 0.40E+00   23.9     1.08964709     -1075.3924164709  2.36E+00
    92 Broy./Diag. 0.40E+00   23.1     1.73277945     -1077.8901180185 -2.50E+00
    93 Broy./Diag. 0.40E+00   22.4     1.70860243     -1077.6950713194  1.95E-01
    94 Broy./Diag. 0.40E+00   20.9     1.61874693     -1077.5820202201  1.13E-01
    95 Broy./Diag. 0.40E+00   23.9     0.10964952     -1075.5377881935  2.04E+00
    96 Broy./Diag. 0.40E+00   24.0     0.06265276     -1075.3305372581  2.07E-01
    97 Broy./Diag. 0.40E+00   24.0     1.50473046     -1075.4499163781 -1.19E-01
    98 Broy./Diag. 0.40E+00   24.8     1.61194414     -1077.8014836932 -2.35E+00
    99 Broy./Diag. 0.40E+00   22.9     1.61605312     -1077.7491689743  5.23E-02
   100 Broy./Diag. 0.40E+00   22.0     1.50698647     -1077.8443611202 -9.52E-02
   101 Broy./Diag. 0.40E+00   24.2     1.52000113     -1077.5056187275  3.39E-01
   102 Broy./Diag. 0.40E+00   23.3     1.33908375     -1075.3135795906  2.19E+00
   103 Broy./Diag. 0.40E+00   23.3     1.34816654     -1077.8084137431 -2.49E+00
   104 Broy./Diag. 0.40E+00   23.5     1.36435157     -1077.8258049988 -1.74E-02
   105 Broy./Diag. 0.40E+00   22.0     1.05684461     -1075.4086448357  2.42E+00
   106 Broy./Diag. 0.40E+00   21.3     1.51006398     -1077.5975659967 -2.19E+00
   107 Broy./Diag. 0.40E+00   22.8     1.53527693     -1077.5108531289  8.67E-02
   108 Broy./Diag. 0.40E+00   24.2     1.32293112     -1075.1686312368  2.34E+00
   109 Broy./Diag. 0.40E+00   24.9     1.68913817     -1078.1079173837 -2.94E+00
   110 Broy./Diag. 0.40E+00   24.1     1.68829128     -1078.1030529753  4.86E-03
   111 Broy./Diag. 0.40E+00   23.6     1.00462398     -1075.5992270073  2.50E+00
   112 Broy./Diag. 0.40E+00   24.0     1.33358137     -1077.3451758554 -1.75E+00
   113 Broy./Diag. 0.40E+00   22.8     1.36236980     -1077.4899508566 -1.45E-01
   114 Broy./Diag. 0.40E+00   24.2     1.26951107     -1077.2815968380  2.08E-01
   115 Broy./Diag. 0.40E+00   24.0     0.05752879     -1075.1992229850  2.08E+00
   116 Broy./Diag. 0.40E+00   23.0     1.51988537     -1075.8871788821 -6.88E-01
   117 Broy./Diag. 0.40E+00   23.6     1.52973263     -1077.7899962351 -1.90E+00
   118 Broy./Diag. 0.40E+00   22.6     1.72870249     -1075.3865262173  2.40E+00
   119 Broy./Diag. 0.40E+00   23.4     0.65167134     -1077.8691266498 -2.48E+00
   120 Broy./Diag. 0.40E+00   23.0     1.08247794     -1077.7736447496  9.55E-02
   121 Broy./Diag. 0.40E+00   21.7     0.84605490     -1075.4286585953  2.34E+00
   122 Broy./Diag. 0.40E+00   23.5     1.31355811     -1077.7479742553 -2.32E+00
   123 Broy./Diag. 0.40E+00   23.4     1.32903784     -1077.7752062682 -2.72E-02
   124 Broy./Diag. 0.40E+00   23.1     0.81298319     -1075.4625202514  2.31E+00
   125 Broy./Diag. 0.40E+00   23.7     0.82816816     -1077.6294790996 -2.17E+00
   126 Broy./Diag. 0.40E+00   23.7     1.21734462     -1075.3325766762  2.30E+00
   127 Broy./Diag. 0.40E+00   23.0     1.31597254     -1078.1261114826 -2.79E+00
   128 Broy./Diag. 0.40E+00   23.7     1.52640176     -1077.9898708262  1.36E-01
   129 Broy./Diag. 0.40E+00   24.4     1.54755520     -1077.7263259566  2.64E-01
   130 Broy./Diag. 0.40E+00   23.9     1.67255710     -1075.4458969585  2.28E+00
   131 Broy./Diag. 0.40E+00   24.9     1.67033577     -1077.6344216516 -2.19E+00
   132 Broy./Diag. 0.40E+00   23.8     1.44445263     -1077.6479489335 -1.35E-02
   133 Broy./Diag. 0.40E+00   24.1     1.45182256     -1077.5643854191  8.36E-02
   134 Broy./Diag. 0.40E+00   22.4     0.05490121     -1075.2813909283  2.28E+00
   135 Broy./Diag. 0.40E+00   22.9     0.04820810     -1075.6540894389 -3.73E-01
   136 Broy./Diag. 0.40E+00   23.6     1.29590596     -1075.4463514327  2.08E-01
   137 Broy./Diag. 0.40E+00   22.7     1.30941621     -1077.7927458050 -2.35E+00
   138 Broy./Diag. 0.40E+00   23.4     1.61139281     -1077.8717409052 -7.90E-02
   139 Broy./Diag. 0.40E+00   24.1     1.64331070     -1077.6371722423  2.35E-01
   140 Broy./Diag. 0.40E+00   22.1     1.61121932     -1075.4041787051  2.23E+00
   141 Broy./Diag. 0.40E+00   23.3     1.60411098     -1077.8108213166 -2.41E+00
   142 Broy./Diag. 0.40E+00   23.3     1.51438674     -1075.5303824303  2.28E+00
   143 Broy./Diag. 0.40E+00   23.5     1.65138960     -1077.8104373654 -2.28E+00
   144 Broy./Diag. 0.40E+00   22.9     1.66019905     -1077.7456327907  6.48E-02
   145 Broy./Diag. 0.40E+00   23.4     0.89930758     -1077.6654500406  8.02E-02
   146 Broy./Diag. 0.40E+00   24.0     1.54958192     -1075.2964860560  2.37E+00
   147 Broy./Diag. 0.40E+00   23.8     1.56438533     -1077.9910157657 -2.69E+00
   148 Broy./Diag. 0.40E+00   23.4     1.34936703     -1077.8445841270  1.46E-01
   149 Broy./Diag. 0.40E+00   25.0     1.38854415     -1077.5927738951  2.52E-01
   150 Broy./Diag. 0.40E+00   23.7     1.32397906     -1075.2993751832  2.29E+00
