 DBCSR| CPU Multiplication driver                                           XSMM
 DBCSR| Multrec recursion limit                                              512
 DBCSR| Multiplication stack size                                           1000
 DBCSR| Maximum elements for images                                    UNLIMITED
 DBCSR| Multiplicative factor virtual images                                   1
 DBCSR| Use multiplication densification                                       T
 DBCSR| Multiplication size stacks                                             3


  **** **** ******  **  PROGRAM STARTED AT               2020-05-29 17:09:15.282
 ***** ** ***  *** **   PROGRAM STARTED ON                               gnode44
 **    ****   ******    PROGRAM STARTED BY                           mayank.modi
 ***** **    ** ** **   PROGRAM PROCESS ID                                 36643
  **** **  *******  **  PROGRAM STARTED IN /home/mayank.modi/ab-initio-thermodyn
                                           amics-of-water/mayank/cp2k_energy_cal
                                           culations

 CP2K| version string:                                          CP2K version 7.1
 CP2K| source code revision number:                                  git:e635599
 CP2K| cp2kflags: omp libint fftw3 libxc xsmm spglib                            
 CP2K| is freely available from                            https://www.cp2k.org/
 CP2K| Program compiled at                          Mon Dec 23 19:23:12 CET 2019
 CP2K| Program compiled on                                                pc9404
 CP2K| Program compiled for                                Linux-x86-64-gfortran
 CP2K| Data directory path                                        /opt/cp2k/data
 CP2K| Input file name                                 input_training/input37.in

 GLOBAL| Force Environment number                                              1
 GLOBAL| Basis set file name                                           BASIS_SET
 GLOBAL| Potential file name                                      GTH_POTENTIALS
 GLOBAL| MM Potential file name                                     MM_POTENTIAL
 GLOBAL| Coordinate file name                                      __STD_INPUT__
 GLOBAL| Method name                                                        CP2K
 GLOBAL| Project name                                                   H2O_bulk
 GLOBAL| Preferred FFT library                                             FFTW3
 GLOBAL| Preferred diagonalization lib.                                       SL
 GLOBAL| Run type                                                   ENERGY_FORCE
 GLOBAL| All-to-all communication in single precision                          F
 GLOBAL| FFTs using library dependent lengths                                  F
 GLOBAL| Global print level                                                  LOW
 GLOBAL| MPI I/O enabled                                                       T
 GLOBAL| Total number of message passing processes                             1
 GLOBAL| Number of threads for this process                                   36
 GLOBAL| This output is from process                                           0
 GLOBAL| CPU model name                Intel(R) Xeon(R) CPU E5-2640 v4 @ 2.40GHz
 GLOBAL| CPUID                                                              1002
 GLOBAL| Compiled for CPUID                                                    0

 MEMORY| system memory details [Kb]
 MEMORY|                        rank 0           min           max       average
 MEMORY| MemTotal            131893056     131893056     131893056     131893056
 MEMORY| MemFree             119092808     119092808     119092808     119092808
 MEMORY| Buffers               2126096       2126096       2126096       2126096
 MEMORY| Cached                3185792       3185792       3185792       3185792
 MEMORY| Slab                  3313916       3313916       3313916       3313916
 MEMORY| SReclaimable          3101280       3101280       3101280       3101280
 MEMORY| MemLikelyFree       127505976     127505976     127505976     127505976


 GENERATE| WARNING:: No connections detected for Hydrogen - Atom Nr:        77 !
 GENERATE|  Preliminary Number of Bonds generated:                             0
 GENERATE|  Achieved consistency in connectivity generation.

 *******************************************************************************
 *******************************************************************************
 **                                                                           **
 **     #####                         ##              ##                      **
 **    ##   ##            ##          ##              ##                      **
 **   ##     ##                       ##            ######                    **
 **   ##     ##  ##   ##  ##   #####  ##  ##   ####   ##    #####    #####    **
 **   ##     ##  ##   ##  ##  ##      ## ##   ##      ##   ##   ##  ##   ##   **
 **   ##  ## ##  ##   ##  ##  ##      ####     ###    ##   ######   ######    **
 **    ##  ###   ##   ##  ##  ##      ## ##      ##   ##   ##       ##        **
 **     #######   #####   ##   #####  ##  ##  ####    ##    #####   ##        **
 **           ##                                                    ##        **
 **                                                                           **
 **                                                ... make the atoms dance   **
 **                                                                           **
 **            Copyright (C) by CP2K developers group (2000 - 2019)           **
 **                                                                           **
 *******************************************************************************


 TOTAL NUMBERS AND MAXIMUM NUMBERS

  Total number of            - Atomic kinds:                                   2
                             - Atoms:                                        192
                             - Shell sets:                                   384
                             - Shells:                                       704
                             - Primitive Cartesian functions:                960
                             - Cartesian basis functions:                   1536
                             - Spherical basis functions:                   1472

  Maximum angular momentum of- Orbital basis functions:                        2
                             - Local part of the GTH pseudopotential:          2
                             - Non-local part of the GTH pseudopotential:      0


 SCF PARAMETERS         Density guess:                                    ATOMIC
                        --------------------------------------------------------
                        max_scf:                                             300
                        max_scf_history:                                       0
                        max_diis:                                              4
                        --------------------------------------------------------
                        eps_scf:                                        1.00E-07
                        eps_scf_history:                                0.00E+00
                        eps_diis:                                       1.00E-01
                        eps_eigval:                                     1.00E-05
                        --------------------------------------------------------
                        level_shift [a.u.]:                                 0.00
                        --------------------------------------------------------
                        Mixing method:                            BROYDEN_MIXING
                                                charge density mixing in g-space
                        --------------------------------------------------------
                        No outer SCF

 Number of electrons:                                                        512
 Number of occupied orbitals:                                                256
 Number of molecular orbitals:                                               256

 Number of orbital functions:                                               1472
 Number of independent orbital functions:                                   1472

 Extrapolation method: initial_guess


 SCF WAVEFUNCTION OPTIMIZATION

  Step     Update method      Time    Convergence         Total energy    Change
  ------------------------------------------------------------------------------
     1 NoMix/Diag. 0.40E+00   10.8     0.68562144     -1064.1503795868 -1.06E+03
     2 Broy./Diag. 0.40E+00   16.2     1.94954880      -994.7234724898  6.94E+01
     3 Broy./Diag. 0.40E+00   17.4     1.94297238     -1268.9161099506 -2.74E+02
     4 Broy./Diag. 0.40E+00   16.9     1.76646176     -1127.5745241590  1.41E+02
     5 Broy./Diag. 0.40E+00   18.3     1.79082434     -1097.1738327029  3.04E+01
     6 Broy./Diag. 0.40E+00   19.2     1.94631116     -1102.7489896537 -5.58E+00
     7 Broy./Diag. 0.40E+00   18.9     1.63108542     -1103.9836283256 -1.23E+00
     8 Broy./Diag. 0.40E+00   21.2     1.63147200     -1085.0122690739  1.90E+01
     9 Broy./Diag. 0.40E+00   23.1     1.61890616     -1078.3590336810  6.65E+00
    10 Broy./Diag. 0.40E+00   24.4     1.18818690     -1074.5970535661  3.76E+00
    11 Broy./Diag. 0.40E+00   23.4     1.73856032     -1071.1008132338  3.50E+00
    12 Broy./Diag. 0.40E+00   24.0     1.86285646     -1073.7059112473 -2.61E+00
    13 Broy./Diag. 0.40E+00   24.7     1.48107356     -1069.1000424540  4.61E+00
    14 Broy./Diag. 0.40E+00   24.2     1.84163518     -1077.7898219803 -8.69E+00
    15 Broy./Diag. 0.40E+00   24.0     1.79315498     -1081.9801530078 -4.19E+00
    16 Broy./Diag. 0.40E+00   24.1     1.26653242     -1076.5746190324  5.41E+00
    17 Broy./Diag. 0.40E+00   24.4     1.82053200     -1075.6035936093  9.71E-01
    18 Broy./Diag. 0.40E+00   24.0     1.86118637     -1077.8885280370 -2.28E+00
    19 Broy./Diag. 0.40E+00   24.3     1.34800550     -1076.1336400185  1.75E+00
    20 Broy./Diag. 0.40E+00   24.8     1.23596980     -1076.1277632447  5.88E-03
    21 Broy./Diag. 0.40E+00   24.3     1.36515026     -1076.8465879889 -7.19E-01
    22 Broy./Diag. 0.40E+00   24.1     1.50534101     -1075.0636713950  1.78E+00
    23 Broy./Diag. 0.40E+00   24.4     1.26960116     -1073.0585979657  2.01E+00
    24 Broy./Diag. 0.40E+00   24.3     1.27818167     -1078.5333037197 -5.47E+00
    25 Broy./Diag. 0.40E+00   24.6     0.92498431     -1076.3482177364  2.19E+00
    26 Broy./Diag. 0.40E+00   24.4     1.25780379     -1076.4279000033 -7.97E-02
    27 Broy./Diag. 0.40E+00   24.4     1.79620839     -1077.9503108936 -1.52E+00
    28 Broy./Diag. 0.40E+00   24.5     1.83636184     -1075.7533786196  2.20E+00
    29 Broy./Diag. 0.40E+00   23.8     1.39315706     -1075.9240982851 -1.71E-01
    30 Broy./Diag. 0.40E+00   24.1     1.42148557     -1077.8982965689 -1.97E+00
    31 Broy./Diag. 0.40E+00   24.2     1.21117825     -1075.8826053758  2.02E+00
    32 Broy./Diag. 0.40E+00   24.6     1.80107597     -1074.6540101078  1.23E+00
    33 Broy./Diag. 0.40E+00   23.5     1.83763926     -1077.8533267142 -3.20E+00
    34 Broy./Diag. 0.40E+00   22.8     1.54744902     -1075.6545186398  2.20E+00
    35 Broy./Diag. 0.40E+00   23.6     1.22880369     -1076.5926439554 -9.38E-01
    36 Broy./Diag. 0.40E+00   23.9     1.82319800     -1073.9055296040  2.69E+00
    37 Broy./Diag. 0.40E+00   24.2     1.82370003     -1079.2154124954 -5.31E+00
    38 Broy./Diag. 0.40E+00   24.6     1.74129305     -1073.9004001072  5.32E+00
    39 Broy./Diag. 0.40E+00   25.7     1.76599008     -1077.7799067537 -3.88E+00
    40 Broy./Diag. 0.40E+00   24.3     1.10027908     -1077.7675815325  1.23E-02
    41 Broy./Diag. 0.40E+00   25.5     1.19655429     -1078.1534677609 -3.86E-01
    42 Broy./Diag. 0.40E+00   24.5     1.81530039     -1074.6428147979  3.51E+00
    43 Broy./Diag. 0.40E+00   24.1     1.83265138     -1077.0619118809 -2.42E+00
    44 Broy./Diag. 0.40E+00   24.4     1.75266635     -1078.8605041217 -1.80E+00
    45 Broy./Diag. 0.40E+00   23.7     1.75287770     -1077.2867914586  1.57E+00
    46 Broy./Diag. 0.40E+00   24.8     1.82386775     -1075.7607603671  1.53E+00
    47 Broy./Diag. 0.40E+00   24.1     1.82904630     -1079.6318246689 -3.87E+00
    48 Broy./Diag. 0.40E+00   23.0     1.52472086     -1074.2018953746  5.43E+00
    49 Broy./Diag. 0.40E+00   25.1     1.58226509     -1073.2451115347  9.57E-01
    50 Broy./Diag. 0.40E+00   24.6     1.18315868     -1078.0602928146 -4.82E+00
    51 Broy./Diag. 0.40E+00   24.5     1.25452055     -1074.5419797927  3.52E+00
    52 Broy./Diag. 0.40E+00   24.8     1.55374682     -1078.6704047865 -4.13E+00
    53 Broy./Diag. 0.40E+00   24.4     1.39161339     -1076.5114692792  2.16E+00
    54 Broy./Diag. 0.40E+00   24.9     1.65043724     -1074.0682232541  2.44E+00
    55 Broy./Diag. 0.40E+00   24.3     1.81948396     -1081.4786932605 -7.41E+00
    56 Broy./Diag. 0.40E+00   24.6     1.82049198     -1079.2308885972  2.25E+00
    57 Broy./Diag. 0.40E+00   24.3     1.85442298     -1077.8404610213  1.39E+00
    58 Broy./Diag. 0.40E+00   24.6     1.15058284     -1078.1513369895 -3.11E-01
    59 Broy./Diag. 0.40E+00   24.4     1.29234739     -1074.8565990876  3.29E+00
    60 Broy./Diag. 0.40E+00   24.2     1.54217658     -1078.2879296085 -3.43E+00
    61 Broy./Diag. 0.40E+00   24.4     1.78405231     -1079.6844680343 -1.40E+00
    62 Broy./Diag. 0.40E+00   24.1     1.75890336     -1074.9055599426  4.78E+00
    63 Broy./Diag. 0.40E+00   24.0     1.50715532     -1077.8004795989 -2.89E+00
    64 Broy./Diag. 0.40E+00   24.2     1.42132981     -1074.3970814332  3.40E+00
    65 Broy./Diag. 0.40E+00   24.4     1.02854372     -1072.0514546053  2.35E+00
    66 Broy./Diag. 0.40E+00   23.9     1.80578032     -1079.0573190327 -7.01E+00
    67 Broy./Diag. 0.40E+00   24.3     1.85956303     -1077.9587362632  1.10E+00
    68 Broy./Diag. 0.40E+00   25.0     0.93673238     -1074.8861107932  3.07E+00
    69 Broy./Diag. 0.40E+00   24.2     1.12026484     -1075.8053206175 -9.19E-01
    70 Broy./Diag. 0.40E+00   24.0     1.21294168     -1077.4034306756 -1.60E+00
    71 Broy./Diag. 0.40E+00   24.1     1.06350327     -1074.0449695005  3.36E+00
    72 Broy./Diag. 0.40E+00   24.5     1.24629578     -1076.9069088936 -2.86E+00
    73 Broy./Diag. 0.40E+00   24.3     1.27043833     -1075.9532383381  9.54E-01
    74 Broy./Diag. 0.40E+00   23.5     1.81007772     -1074.2269904518  1.73E+00
    75 Broy./Diag. 0.40E+00   23.4     1.55677402     -1080.7811626609 -6.55E+00
    76 Broy./Diag. 0.40E+00   24.4     1.82204727     -1078.5508671437  2.23E+00
    77 Broy./Diag. 0.40E+00   24.3     1.81461001     -1076.1137084521  2.44E+00
    78 Broy./Diag. 0.40E+00   23.9     0.97252558     -1074.1151040784  2.00E+00
    79 Broy./Diag. 0.40E+00   24.0     1.03394885     -1076.0660351265 -1.95E+00
    80 Broy./Diag. 0.40E+00   24.5     1.00686283     -1076.3235200716 -2.57E-01
    81 Broy./Diag. 0.40E+00   22.7     1.31830769     -1074.1784610984  2.15E+00
    82 Broy./Diag. 0.40E+00   24.0     1.80668611     -1078.6183193824 -4.44E+00
    83 Broy./Diag. 0.40E+00   24.0     1.82799259     -1077.3467234689  1.27E+00
    84 Broy./Diag. 0.40E+00   24.3     1.41307005     -1077.2542014705  9.25E-02
    85 Broy./Diag. 0.40E+00   24.0     1.82282688     -1074.1335026110  3.12E+00
    86 Broy./Diag. 0.40E+00   24.1     1.81890489     -1079.1368238832 -5.00E+00
    87 Broy./Diag. 0.40E+00   25.1     1.46994403     -1076.4056055582  2.73E+00
    88 Broy./Diag. 0.40E+00   24.7     1.62018637     -1074.7449779537  1.66E+00
    89 Broy./Diag. 0.40E+00   24.6     1.66812572     -1076.0310859746 -1.29E+00
    90 Broy./Diag. 0.40E+00   24.9     1.01971504     -1076.1631079291 -1.32E-01
    91 Broy./Diag. 0.40E+00   24.6     1.25740643     -1075.9926365470  1.70E-01
    92 Broy./Diag. 0.40E+00   24.6     1.74766199     -1076.0563680359 -6.37E-02
    93 Broy./Diag. 0.40E+00   24.5     1.81113530     -1075.5051697885  5.51E-01
    94 Broy./Diag. 0.40E+00   25.4     1.13710724     -1079.7669867558 -4.26E+00
    95 Broy./Diag. 0.40E+00   24.2     1.32026360     -1074.4788601258  5.29E+00
    96 Broy./Diag. 0.40E+00   24.4     1.34764616     -1079.7666346390 -5.29E+00
    97 Broy./Diag. 0.40E+00   24.6     1.35812832     -1077.0499088771  2.72E+00
    98 Broy./Diag. 0.40E+00   24.4     1.81543250     -1074.4691575925  2.58E+00
    99 Broy./Diag. 0.40E+00   24.0     1.81873972     -1080.4921552731 -6.02E+00
   100 Broy./Diag. 0.40E+00   24.9     1.72590432     -1075.7302385782  4.76E+00
   101 Broy./Diag. 0.40E+00   23.9     1.79840442     -1073.9682021631  1.76E+00
   102 Broy./Diag. 0.40E+00   25.5     1.82786344     -1077.9993466101 -4.03E+00
   103 Broy./Diag. 0.40E+00   24.9     1.04130182     -1078.6589540015 -6.60E-01
   104 Broy./Diag. 0.40E+00   24.6     1.81960909     -1074.5578530184  4.10E+00
   105 Broy./Diag. 0.40E+00   24.6     1.81491712     -1077.2840540293 -2.73E+00
   106 Broy./Diag. 0.40E+00   24.4     1.74158578     -1078.7717290242 -1.49E+00
   107 Broy./Diag. 0.40E+00   25.3     1.82585515     -1076.3176462155  2.45E+00
   108 Broy./Diag. 0.40E+00   24.6     1.80146871     -1073.4922443259  2.83E+00
   109 Broy./Diag. 0.40E+00   25.0     1.81820722     -1081.6092816193 -8.12E+00
   110 Broy./Diag. 0.40E+00   25.3     1.26045232     -1079.2083860847  2.40E+00
   111 Broy./Diag. 0.40E+00   25.1     1.26407311     -1075.6235457633  3.58E+00
   112 Broy./Diag. 0.40E+00   21.9     1.81324913     -1077.0024392839 -1.38E+00
   113 Broy./Diag. 0.40E+00   23.6     1.62059234     -1079.9132563445 -2.91E+00
   114 Broy./Diag. 0.40E+00   24.3     1.80834722     -1076.2585109796  3.65E+00
   115 Broy./Diag. 0.40E+00   24.9     1.84546252     -1075.8807648116  3.78E-01
   116 Broy./Diag. 0.40E+00   24.5     1.81502098     -1078.4018081826 -2.52E+00
   117 Broy./Diag. 0.40E+00   25.1     1.48475068     -1075.1093590265  3.29E+00
   118 Broy./Diag. 0.40E+00   24.6     1.80947605     -1072.4167793582  2.69E+00
   119 Broy./Diag. 0.40E+00   25.1     1.83501211     -1082.6468467487 -1.02E+01
   120 Broy./Diag. 0.40E+00   24.3     1.36536058     -1078.2559294279  4.39E+00
   121 Broy./Diag. 0.40E+00   24.4     1.46108359     -1076.5460782561  1.71E+00
   122 Broy./Diag. 0.40E+00   24.9     1.05754319     -1072.7975005271  3.75E+00
   123 Broy./Diag. 0.40E+00   24.8     1.80851339     -1077.2150526433 -4.42E+00
   124 Broy./Diag. 0.40E+00   24.4     1.82529863     -1077.5358753019 -3.21E-01
   125 Broy./Diag. 0.40E+00   24.0     1.82395532     -1078.5106770003 -9.75E-01
   126 Broy./Diag. 0.40E+00   24.4     1.83719212     -1077.0468716513  1.46E+00
   127 Broy./Diag. 0.40E+00   24.3     1.48185082     -1074.9633935424  2.08E+00
   128 Broy./Diag. 0.40E+00   25.1     1.29391254     -1073.1320088941  1.83E+00
   129 Broy./Diag. 0.40E+00   24.5     1.27980719     -1077.4089741935 -4.28E+00
   130 Broy./Diag. 0.40E+00   25.0     1.78519426     -1074.9750166814  2.43E+00
   131 Broy./Diag. 0.40E+00   25.0     1.79450971     -1076.1182072833 -1.14E+00
   132 Broy./Diag. 0.40E+00   24.3     1.36899660     -1078.3556563990 -2.24E+00
   133 Broy./Diag. 0.40E+00   24.6     1.13799463     -1077.0559593851  1.30E+00
   134 Broy./Diag. 0.40E+00   25.1     1.27521923     -1073.6346845632  3.42E+00
   135 Broy./Diag. 0.40E+00   24.7     1.81596840     -1079.7704555871 -6.14E+00
   136 Broy./Diag. 0.40E+00   25.0     1.83950585     -1078.6680847621  1.10E+00
   137 Broy./Diag. 0.40E+00   24.6     1.81883593     -1078.1749907357  4.93E-01
   138 Broy./Diag. 0.40E+00   24.2     1.15909741     -1074.7870320128  3.39E+00
   139 Broy./Diag. 0.40E+00   22.6     1.80975057     -1073.3001431416  1.49E+00
   140 Broy./Diag. 0.40E+00   23.1     1.83165203     -1077.0848422544 -3.78E+00
   141 Broy./Diag. 0.40E+00   24.2     1.11283975     -1074.5102108345  2.57E+00
   142 Broy./Diag. 0.40E+00   24.4     0.74106620     -1075.7178306936 -1.21E+00
   143 Broy./Diag. 0.40E+00   24.1     1.27121040     -1076.7189435642 -1.00E+00
   144 Broy./Diag. 0.40E+00   24.5     1.25153479     -1078.2188316552 -1.50E+00
   145 Broy./Diag. 0.40E+00   24.2     1.80695355     -1078.7762917272 -5.57E-01
   146 Broy./Diag. 0.40E+00   24.2     1.83582324     -1079.9168826139 -1.14E+00
   147 Broy./Diag. 0.40E+00   24.9     1.55343660     -1077.3921961680  2.52E+00
   148 Broy./Diag. 0.40E+00   24.1     0.99969667     -1071.6724858092  5.72E+00
   149 Broy./Diag. 0.40E+00   24.0     1.80385080     -1077.9856697394 -6.31E+00
   150 Broy./Diag. 0.40E+00   24.5     1.83298265     -1077.5042794643  4.81E-01
   151 Broy./Diag. 0.40E+00   25.2     1.64486836     -1075.3302670143  2.17E+00
   152 Broy./Diag. 0.40E+00   24.6     1.69367126     -1075.2836364819  4.66E-02
   153 Broy./Diag. 0.40E+00   25.0     1.12928989     -1075.0885114929  1.95E-01
   154 Broy./Diag. 0.40E+00   24.3     1.21738171     -1073.2559077830  1.83E+00
   155 Broy./Diag. 0.40E+00   23.8     1.81007525     -1078.5793605499 -5.32E+00
   156 Broy./Diag. 0.40E+00   23.5     1.81963007     -1080.5305329146 -1.95E+00
   157 Broy./Diag. 0.40E+00   24.3     1.51256331     -1078.6949326126  1.84E+00
   158 Broy./Diag. 0.40E+00   23.1     1.25812421     -1073.8277596949  4.87E+00
   159 Broy./Diag. 0.40E+00   22.6     1.78216148     -1079.4327532261 -5.60E+00
   160 Broy./Diag. 0.40E+00   21.3     1.84077896     -1078.6463051679  7.86E-01
   161 Broy./Diag. 0.40E+00   21.4     1.74166327     -1076.4613488959  2.18E+00
   162 Broy./Diag. 0.40E+00   21.8     1.80907985     -1077.0887280182 -6.27E-01
   163 Broy./Diag. 0.40E+00   20.4     1.80056348     -1073.6932559996  3.40E+00
   164 Broy./Diag. 0.40E+00   20.9     1.81920209     -1078.6630973386 -4.97E+00
   165 Broy./Diag. 0.40E+00   23.7     1.26535922     -1078.9785964850 -3.15E-01
   166 Broy./Diag. 0.40E+00   24.1     1.37310948     -1075.5133650994  3.47E+00
   167 Broy./Diag. 0.40E+00   24.0     1.78354706     -1073.5089974132  2.00E+00
   168 Broy./Diag. 0.40E+00   24.8     1.81801356     -1078.3986887504 -4.89E+00
   169 Broy./Diag. 0.40E+00   22.9     1.37086276     -1079.0783112944 -6.80E-01
   170 Broy./Diag. 0.40E+00   22.9     1.81228806     -1073.6609611277  5.42E+00
   171 Broy./Diag. 0.40E+00   24.3     1.82371427     -1078.3098800479 -4.65E+00
   172 Broy./Diag. 0.40E+00   24.1     1.52806880     -1078.8078575011 -4.98E-01
   173 Broy./Diag. 0.40E+00   23.3     1.81284813     -1075.1148927605  3.69E+00
   174 Broy./Diag. 0.40E+00   24.1     1.82952779     -1076.9504631676 -1.84E+00
   175 Broy./Diag. 0.40E+00   24.2     1.33894246     -1078.8419907300 -1.89E+00
   176 Broy./Diag. 0.40E+00   24.1     1.39084774     -1075.9948021083  2.85E+00
   177 Broy./Diag. 0.40E+00   22.4     1.40504409     -1076.6922325494 -6.97E-01
   178 Broy./Diag. 0.40E+00   24.8     1.26539281     -1076.5454616527  1.47E-01
   179 Broy./Diag. 0.40E+00   22.8     1.30791549     -1077.0247225437 -4.79E-01
   180 Broy./Diag. 0.40E+00   22.3     1.80325356     -1071.0968413151  5.93E+00
   181 Broy./Diag. 0.40E+00   23.3     1.79595248     -1080.6234809177 -9.53E+00
   182 Broy./Diag. 0.40E+00   22.2     1.51770606     -1078.9518126204  1.67E+00
   183 Broy./Diag. 0.40E+00   23.1     1.82491269     -1073.1586672835  5.79E+00
   184 Broy./Diag. 0.40E+00   24.2     1.84145026     -1077.8461934729 -4.69E+00
   185 Broy./Diag. 0.40E+00   23.6     1.04282949     -1076.7092095044  1.14E+00
   186 Broy./Diag. 0.40E+00   23.1     1.74329382     -1074.0480552748  2.66E+00
   187 Broy./Diag. 0.40E+00   24.3     1.81356030     -1076.9402392528 -2.89E+00
   188 Broy./Diag. 0.40E+00   24.6     1.82863415     -1078.4296594546 -1.49E+00
   189 Broy./Diag. 0.40E+00   23.2     1.19726379     -1075.5576540200  2.87E+00
   190 Broy./Diag. 0.40E+00   24.2     1.27040772     -1073.4698682370  2.09E+00
   191 Broy./Diag. 0.40E+00   24.1     1.28200440     -1076.4260432181 -2.96E+00
   192 Broy./Diag. 0.40E+00   23.7     1.26640037     -1075.7504824828  6.76E-01
   193 Broy./Diag. 0.40E+00   24.1     1.81596812     -1074.7788630626  9.72E-01
   194 Broy./Diag. 0.40E+00   24.0     1.83303635     -1077.5784587442 -2.80E+00
   195 Broy./Diag. 0.40E+00   24.9     1.50130020     -1077.1111838524  4.67E-01
   196 Broy./Diag. 0.40E+00   22.2     1.25664538     -1074.4468813619  2.66E+00
   197 Broy./Diag. 0.40E+00   24.2     1.79683244     -1072.9875642939  1.46E+00
   198 Broy./Diag. 0.40E+00   24.4     1.79562855     -1079.7655789530 -6.78E+00
   199 Broy./Diag. 0.40E+00   24.5     1.16371900     -1077.5259953721  2.24E+00
   200 Broy./Diag. 0.40E+00   22.7     1.55677395     -1075.7092167334  1.82E+00
   201 Broy./Diag. 0.40E+00   24.8     1.41966579     -1075.5459459539  1.63E-01
   202 Broy./Diag. 0.40E+00   22.5     1.74252956     -1074.8352925356  7.11E-01
   203 Broy./Diag. 0.40E+00   23.3     1.83024933     -1076.6358874195 -1.80E+00
   204 Broy./Diag. 0.40E+00   24.3     1.86158864     -1077.5257070472 -8.90E-01
   205 Broy./Diag. 0.40E+00   23.8     1.38455857     -1077.6163115904 -9.06E-02
   206 Broy./Diag. 0.40E+00   24.5     1.30240478     -1074.3836955731  3.23E+00
   207 Broy./Diag. 0.40E+00   24.4     1.35760310     -1071.5965057232  2.79E+00
   208 Broy./Diag. 0.40E+00   23.8     1.34477614     -1079.2789541146 -7.68E+00
   209 Broy./Diag. 0.40E+00   24.0     1.78934622     -1077.2612716719  2.02E+00
   210 Broy./Diag. 0.40E+00   24.2     1.81873068     -1075.3978008218  1.86E+00
   211 Broy./Diag. 0.40E+00   23.8     1.64482849     -1076.5847866382 -1.19E+00
   212 Broy./Diag. 0.40E+00   24.0     1.72537327     -1075.6091182996  9.76E-01
   213 Broy./Diag. 0.40E+00   24.7     1.82473967     -1075.0013339137  6.08E-01
   214 Broy./Diag. 0.40E+00   25.5     1.84941246     -1076.0028161892 -1.00E+00
   215 Broy./Diag. 0.40E+00   24.6     1.20129823     -1074.1377995936  1.87E+00
   216 Broy./Diag. 0.40E+00   24.4     1.83425937     -1073.3324836643  8.05E-01
   217 Broy./Diag. 0.40E+00   24.2     1.84604001     -1079.8764897272 -6.54E+00
   218 Broy./Diag. 0.40E+00   23.0     1.69773904     -1081.9229476562 -2.05E+00
   219 Broy./Diag. 0.40E+00   24.6     1.44355518     -1077.7713404325  4.15E+00
   220 Broy./Diag. 0.40E+00   24.8     1.47648277     -1075.9235502311  1.85E+00
   221 Broy./Diag. 0.40E+00   22.2     1.51720140     -1073.8310869022  2.09E+00
   222 Broy./Diag. 0.40E+00   23.8     1.47741660     -1073.8987238876 -6.76E-02
   223 Broy./Diag. 0.40E+00   23.9     1.63181406     -1074.3233065707 -4.25E-01
   224 Broy./Diag. 0.40E+00   24.0     1.62553642     -1074.6113230873 -2.88E-01
   225 Broy./Diag. 0.40E+00   24.7     1.66927329     -1077.2120429534 -2.60E+00
   226 Broy./Diag. 0.40E+00   24.7     1.81146153     -1077.5359234081 -3.24E-01
   227 Broy./Diag. 0.40E+00   24.7     1.82630628     -1078.0634637684 -5.28E-01
   228 Broy./Diag. 0.40E+00   23.5     1.28307089     -1073.7015073255  4.36E+00
   229 Broy./Diag. 0.40E+00   24.2     1.74301403     -1073.9239475819 -2.22E-01
   230 Broy./Diag. 0.40E+00   24.3     1.83704368     -1076.7307628175 -2.81E+00
   231 Broy./Diag. 0.40E+00   24.9     1.47662724     -1076.8722540307 -1.41E-01
   232 Broy./Diag. 0.40E+00   24.9     1.78364368     -1077.3884050781 -5.16E-01
   233 Broy./Diag. 0.40E+00   23.8     1.58408852     -1075.6211789611  1.77E+00
   234 Broy./Diag. 0.40E+00   24.9     1.29536629     -1074.7113478821  9.10E-01
   235 Broy./Diag. 0.40E+00   23.8     1.03226011     -1076.9502763705 -2.24E+00
   236 Broy./Diag. 0.40E+00   23.5     1.54245222     -1074.1836706194  2.77E+00
   237 Broy./Diag. 0.40E+00   25.2     1.53622350     -1078.7819959680 -4.60E+00
   238 Broy./Diag. 0.40E+00   24.6     1.00848752     -1075.4561990413  3.33E+00
   239 Broy./Diag. 0.40E+00   23.8     1.18584083     -1075.6712714928 -2.15E-01
   240 Broy./Diag. 0.40E+00   23.9     1.24873513     -1075.8973102678 -2.26E-01
   241 Broy./Diag. 0.40E+00   24.9     1.43591599     -1074.9376062159  9.60E-01
   242 Broy./Diag. 0.40E+00   24.9     1.48765711     -1077.5879584916 -2.65E+00
   243 Broy./Diag. 0.40E+00   23.7     1.78052432     -1074.9158564862  2.67E+00
   244 Broy./Diag. 0.40E+00   25.2     1.79002760     -1075.6218347814 -7.06E-01
   245 Broy./Diag. 0.40E+00   24.4     1.35801917     -1076.4413305473 -8.19E-01
   246 Broy./Diag. 0.40E+00   23.6     1.16202318     -1075.1023153692  1.34E+00
   247 Broy./Diag. 0.40E+00   24.1     1.69187434     -1079.6653997408 -4.56E+00
   248 Broy./Diag. 0.40E+00   24.5     1.83515288     -1078.6836475485  9.82E-01
   249 Broy./Diag. 0.40E+00   24.5     0.66489527     -1075.2038613382  3.48E+00
   250 Broy./Diag. 0.40E+00   24.8     0.99544156     -1073.8154254497  1.39E+00
   251 Broy./Diag. 0.40E+00   24.3     1.73933232     -1077.1561722456 -3.34E+00
   252 Broy./Diag. 0.40E+00   25.7     1.78233690     -1077.5753512896 -4.19E-01
   253 Broy./Diag. 0.40E+00   24.3     1.59199058     -1077.1721520961  4.03E-01
   254 Broy./Diag. 0.40E+00   24.5     1.35300173     -1076.2980721872  8.74E-01
   255 Broy./Diag. 0.40E+00   23.4     1.76570820     -1075.3689784586  9.29E-01
   256 Broy./Diag. 0.40E+00   24.2     1.80955149     -1076.8652338955 -1.50E+00
   257 Broy./Diag. 0.40E+00   24.7     1.83018923     -1076.8526451183  1.26E-02
   258 Broy./Diag. 0.40E+00   24.3     1.83005553     -1074.4970474731  2.36E+00
   259 Broy./Diag. 0.40E+00   23.7     1.82387545     -1081.1544814312 -6.66E+00
   260 Broy./Diag. 0.40E+00   24.4     1.15143157     -1078.2819605407  2.87E+00
   261 Broy./Diag. 0.40E+00   24.2     1.14850166     -1074.5723950758  3.71E+00
   262 Broy./Diag. 0.40E+00   24.7     1.81594677     -1073.9822580939  5.90E-01
   263 Broy./Diag. 0.40E+00   24.1     1.81158926     -1079.5810379427 -5.60E+00
   264 Broy./Diag. 0.40E+00   24.2     1.35161207     -1078.1909288324  1.39E+00
   265 Broy./Diag. 0.40E+00   22.8     1.82606371     -1075.7908815588  2.40E+00
   266 Broy./Diag. 0.40E+00   23.8     1.65713771     -1079.4348181291 -3.64E+00
   267 Broy./Diag. 0.40E+00   23.8     1.84189283     -1076.5352000265  2.90E+00
   268 Broy./Diag. 0.40E+00   24.2     1.76115509     -1075.7546528944  7.81E-01
   269 Broy./Diag. 0.40E+00   24.6     1.37756901     -1072.6669009519  3.09E+00
   270 Broy./Diag. 0.40E+00   24.4     1.33653195     -1079.3536272006 -6.69E+00
   271 Broy./Diag. 0.40E+00   24.6     1.36577054     -1077.1850702501  2.17E+00
   272 Broy./Diag. 0.40E+00   23.1     1.47320195     -1074.0757242535  3.11E+00
   273 Broy./Diag. 0.40E+00   24.7     1.45444375     -1073.1070628305  9.69E-01
   274 Broy./Diag. 0.40E+00   24.4     1.49877694     -1079.2384691820 -6.13E+00
   275 Broy./Diag. 0.40E+00   24.6     1.80638351     -1077.0212386219  2.22E+00
   276 Broy./Diag. 0.40E+00   24.8     1.67571638     -1080.1873118363 -3.17E+00
   277 Broy./Diag. 0.40E+00   24.2     1.85665367     -1076.4962956099  3.69E+00
   278 Broy./Diag. 0.40E+00   24.6     1.62058041     -1074.6116646635  1.88E+00
   279 Broy./Diag. 0.40E+00   24.8     1.67295443     -1075.2624402304 -6.51E-01
   280 Broy./Diag. 0.40E+00   24.8     1.28775585     -1075.8757719452 -6.13E-01
   281 Broy./Diag. 0.40E+00   24.5     1.46432786     -1077.1076096577 -1.23E+00
   282 Broy./Diag. 0.40E+00   24.7     1.74344643     -1073.5366619830  3.57E+00
   283 Broy./Diag. 0.40E+00   25.2     1.78530436     -1077.9655376763 -4.43E+00
   284 Broy./Diag. 0.40E+00   24.7     1.58967314     -1078.4411576571 -4.76E-01
   285 Broy./Diag. 0.40E+00   24.6     1.77278851     -1078.6820976003 -2.41E-01
   286 Broy./Diag. 0.40E+00   24.7     1.67583421     -1080.2771270131 -1.60E+00
   287 Broy./Diag. 0.40E+00   24.0     1.83155649     -1075.3986598426  4.88E+00
   288 Broy./Diag. 0.40E+00   24.8     1.04554180     -1075.5890679600 -1.90E-01
   289 Broy./Diag. 0.40E+00   24.6     1.17017174     -1075.6759221187 -8.69E-02
   290 Broy./Diag. 0.40E+00   24.7     1.74793672     -1075.4493631660  2.27E-01
   291 Broy./Diag. 0.40E+00   24.6     1.79387905     -1074.5325880279  9.17E-01
   292 Broy./Diag. 0.40E+00   24.7     1.83596097     -1075.1218686086 -5.89E-01
   293 Broy./Diag. 0.40E+00   24.4     1.83328053     -1076.0218033579 -9.00E-01
   294 Broy./Diag. 0.40E+00   24.6     1.12344731     -1078.0157026341 -1.99E+00
   295 Broy./Diag. 0.40E+00   24.7     1.37734385     -1076.9371184548  1.08E+00
   296 Broy./Diag. 0.40E+00   25.7     1.20391672     -1074.5729617611  2.36E+00
   297 Broy./Diag. 0.40E+00   24.5     1.09975707     -1073.4413276692  1.13E+00
   298 Broy./Diag. 0.40E+00   24.7     1.54249105     -1081.7898108950 -8.35E+00
   299 Broy./Diag. 0.40E+00   24.5     1.54280186     -1077.8517901810  3.94E+00
   300 Broy./Diag. 0.40E+00   24.6     1.79994239     -1073.5492033814  4.30E+00

  Leaving inner SCF loop after reaching   300 steps.


  Electronic density on regular grids:       -512.0000120781       -0.0000120781
  Core density on regular grids:              511.9996549302       -0.0003450698
  Total charge density on r-space grids:       -0.0003571479
  Total charge density g-space grids:          -0.0003571479

  Overlap energy of the core charge distribution:               0.00000000000000
  Self energy of the core charge distribution:              -2838.21791979120962
  Core Hamiltonian energy:                                    762.66066915020872
  Hartree energy:                                            1240.52194313878090
  Exchange-correlation energy:                               -238.51389587920337

  Total energy:                                             -1073.54920338142324

 *** WARNING in qs_scf.F:542 :: SCF run NOT converged ***


 ENERGY| Total FORCE_EVAL ( QS ) energy (a.u.):            -1068.011412185759355


 ATOMIC FORCES in [a.u.]

 # Atom   Kind   Element          X              Y              Z
      1      1      O           0.05027699     0.03953934     0.08001784
      2      2      H           0.03123008    -0.01732984     0.01403882
      3      2      H          -0.07484935    -0.00995590    -0.01378639
      4      1      O          -0.03946414     0.08548693     0.00769820
      5      2      H           0.05778427     0.04003669    -0.03357985
      6      2      H          -0.02130656    -0.01945736     0.10239927
      7      1      O           0.06418428    -0.00787397     0.01171569
      8      2      H          -0.05045448     0.00119569    -0.03641443
      9      2      H          -0.02994725     0.00212712     0.11331589
     10      1      O          -0.00477429    -0.02593202     0.08080427
     11      2      H          -0.07782982     0.00112541    -0.03607770
     12      2      H           0.06292883    -0.04547621    -0.00632805
     13      1      O          -0.16232144    -0.01141940     0.15260116
     14      2      H           0.08901536     0.09152200     0.03214271
     15      2      H           0.06314648    -0.09098466    -0.11710607
     16      1      O          -0.01713579     0.07114242    -0.00695986
     17      2      H           0.03680296    -0.06255512     0.02944314
     18      2      H          -0.05400581    -0.02065878    -0.06400539
     19      1      O          -0.22105091    -0.03998157     0.18475851
     20      2      H           0.03292659    -0.09373164    -0.06907972
     21      2      H           0.22871746     0.05117130    -0.18310653
     22      1      O          -0.08498696    -0.04159137     0.07707087
     23      2      H           0.04041819    -0.07199676     0.06065736
     24      2      H           0.01765982     0.07794991     0.01146140
     25      1      O          -0.07284361    -0.01131949     0.12088714
     26      2      H          -0.00159641    -0.00684291    -0.04706099
     27      2      H           0.05641764     0.00339534     0.04081829
     28      1      O          -0.07467392     0.07143833     0.12413206
     29      2      H           0.00573278     0.01705023    -0.04715945
     30      2      H           0.06617328     0.03381793     0.04723435
     31      1      O          -0.02312738    -0.02446900    -0.03388077
     32      2      H           0.02826736     0.02324615     0.01528612
     33      2      H          -0.01404962     0.05879439    -0.10531436
     34      1      O           0.01888330     0.11207611     0.18490310
     35      2      H          -0.06797382     0.04242905    -0.00548187
     36      2      H          -0.00109110    -0.09071980    -0.06986095
     37      1      O           0.06835910     0.03804886     0.12152450
     38      2      H          -0.04187163    -0.05977314     0.01547759
     39      2      H          -0.02829555     0.08400327    -0.02007637
     40      1      O           0.01969589     0.00781504     0.02335385
     41      2      H          -0.03304277    -0.02862327     0.07042596
     42      2      H          -0.01255959     0.03741235    -0.01946420
     43      1      O          -0.03232042     0.01026037    -0.01713647
     44      2      H           0.00019670     0.06432004     0.02324594
     45      2      H          -0.02486879    -0.02559320     0.09949477
     46      1      O          -0.07095802    -0.07052633    -0.02037527
     47      2      H           0.05997421     0.01521202     0.06654416
     48      2      H           0.03177593    -0.02806863    -0.03959382
     49      1      O           0.05067922    -0.10062121     0.04987616
     50      2      H          -0.01087788     0.06247530    -0.03526546
     51      2      H          -0.05006163     0.00067374     0.06673125
     52      1      O          -0.08735084     0.08064668     0.07538995
     53      2      H           0.06706876     0.00546297    -0.06500050
     54      2      H           0.03479625    -0.07359005     0.07114327
     55      1      O          -0.07802461    -0.04707266     0.18034701
     56      2      H           0.03978169    -0.08273497     0.00839074
     57      2      H           0.02955160     0.08572540    -0.06292274
     58      1      O          -0.01913974     0.00817211    -0.05009497
     59      2      H           0.02305152     0.02542656     0.04384054
     60      2      H           0.01471495    -0.01571783    -0.02771987
     61      1      O          -0.03029803     0.01131668    -0.04152213
     62      2      H           0.04420329    -0.02726708    -0.08984354
     63      2      H           0.04093026    -0.03795042     0.04095700
     64      1      O           0.00942410    -0.03516444    -0.13799812
     65      2      H          -0.02174892     0.04826176     0.00613380
     66      2      H          -0.01019207     0.04970539     0.07684831
     67      1      O          -0.03246430     0.01342253    -0.07805033
     68      2      H           0.06261466     0.00767924     0.03227917
     69      2      H          -0.01751653    -0.07959930    -0.05952844
     70      1      O           0.00632651     0.04297654    -0.07731265
     71      2      H          -0.09425014    -0.05114885     0.00009571
     72      2      H           0.07392792    -0.06419972    -0.07439400
     73      1      O           0.05826086     0.09523696    -0.03105848
     74      2      H          -0.05297033     0.04605781     0.08221945
     75      2      H          -0.01954059    -0.09778773    -0.01848518
     76      1      O           0.07993261     0.16899696    -0.16123665
     77      2      H           0.08703151    -0.06176027     0.00688929
     78      2      H          -0.16750450    -0.13472879     0.12336080
     79      1      O          -0.00985599     0.10042090    -0.04842745
     80      2      H           0.02398127    -0.02512380    -0.06389672
     81      2      H           0.00039433    -0.06851046     0.01684074
     82      1      O           0.01441918     0.05012576     0.01041857
     83      2      H           0.00519197    -0.07471430    -0.07345616
     84      2      H          -0.05093987     0.04108362     0.01097266
     85      1      O           0.08877289    -0.09647824    -0.05883472
     86      2      H          -0.06093430     0.04476255     0.07733055
     87      2      H          -0.00632569     0.03181396    -0.04700030
     88      1      O          -0.01315915     0.02278810     0.14221676
     89      2      H          -0.02086831    -0.04414569     0.01331620
     90      2      H           0.02191495    -0.02397501    -0.09906948
     91      1      O          -0.01713210     0.05506376    -0.09948059
     92      2      H          -0.07297981    -0.02464179     0.08456405
     93      2      H           0.06984346     0.00664284    -0.00300503
     94      1      O          -0.01362991    -0.03979199    -0.10072620
     95      2      H          -0.01487394    -0.05301662     0.03382409
     96      2      H          -0.03358097     0.07400898     0.02724543
     97      1      O          -0.00734486     0.06398307     0.05418043
     98      2      H          -0.07074828    -0.07118369    -0.01323041
     99      2      H           0.06852488    -0.02186428     0.01876372
    100      1      O          -0.03596003     0.05439652     0.05663729
    101      2      H          -0.02087798    -0.07956131    -0.03577939
    102      2      H           0.05063819     0.01437833    -0.03009228
    103      1      O           0.08531414    -0.09820532    -0.06994752
    104      2      H          -0.04206064     0.03460720    -0.06361586
    105      2      H          -0.00291560     0.01668849     0.06675667
    106      1      O           0.05335203     0.02099855    -0.00774280
    107      2      H           0.00121259    -0.04028890    -0.05862575
    108      2      H          -0.03525214     0.04388919    -0.01320949
    109      1      O          -0.01087349     0.09312399     0.01318253
    110      2      H           0.07288124    -0.04936916    -0.06065285
    111      2      H          -0.04424389    -0.03740106    -0.04240375
    112      1      O           0.06002146     0.07189486    -0.05945773
    113      2      H          -0.06211159    -0.03121179    -0.02487248
    114      2      H          -0.01302439     0.04419045    -0.01434594
    115      1      O          -0.02675311    -0.14374866    -0.03407434
    116      2      H           0.07186700     0.03474639    -0.02408916
    117      2      H          -0.04898868    -0.00680880     0.02190655
    118      1      O           0.01391119     0.14012659    -0.03102184
    119      2      H           0.03600328    -0.07755020     0.01576858
    120      2      H          -0.08431398    -0.02793402     0.02821029
    121      1      O          -0.02655983    -0.14706023     0.07077889
    122      2      H          -0.05156498     0.08871957    -0.05578005
    123      2      H           0.06836247     0.05904412    -0.02226579
    124      1      O          -0.06071960     0.01958359     0.01016513
    125      2      H           0.06348921     0.00781111    -0.01459277
    126      2      H          -0.02279356    -0.01157186     0.06047759
    127      1      O           0.07009763     0.03116377     0.14641671
    128      2      H          -0.03567453     0.01011447     0.00065295
    129      2      H          -0.02016734    -0.08330377    -0.03576437
    130      1      O          -0.02372267    -0.01073762    -0.09580470
    131      2      H           0.00345444     0.02010667     0.03986377
    132      2      H          -0.00681787     0.03370721    -0.03719635
    133      1      O          -0.04792170     0.05053207    -0.05820421
    134      2      H          -0.00738745    -0.07999922    -0.06443722
    135      2      H           0.01224823    -0.02364288     0.02733087
    136      1      O          -0.05559560     0.06039191    -0.00638943
    137      2      H          -0.02322049    -0.00375573     0.08776559
    138      2      H           0.08196013     0.04211094    -0.01688443
    139      1      O          -0.05404075    -0.13509469    -0.01395770
    140      2      H           0.02886515     0.02529301    -0.07077142
    141      2      H           0.00927323     0.07691616     0.02776483
    142      1      O          -0.02481513    -0.08527363    -0.06553290
    143      2      H           0.06267775     0.04353834     0.01176324
    144      2      H          -0.06665399     0.03013780     0.00120754
    145      1      O          -0.02196121    -0.02751226     0.05355186
    146      2      H           0.05352318     0.00963993    -0.01355544
    147      2      H          -0.02482245     0.02622285     0.07835534
    148      1      O           0.08337063     0.02302416    -0.05043742
    149      2      H          -0.02203195     0.04421038    -0.06093771
    150      2      H          -0.02796775     0.04331874     0.06505103
    151      1      O           0.05314911     0.11196576    -0.04906628
    152      2      H          -0.01761358     0.00350578     0.05856405
    153      2      H          -0.02381962    -0.03402401    -0.08672530
    154      1      O           0.06840044    -0.00452748    -0.05265308
    155      2      H          -0.05039685    -0.08182406     0.02603840
    156      2      H           0.00719560     0.01232937     0.05708964
    157      1      O           0.02582663    -0.08923112    -0.08495667
    158      2      H          -0.00075325     0.05070010     0.03205196
    159      2      H          -0.06189839    -0.03692596    -0.06567576
    160      1      O           0.07845803    -0.12945819     0.10296719
    161      2      H          -0.01212045     0.07341083     0.06744491
    162      2      H          -0.02724206    -0.01875451    -0.02240370
    163      1      O           0.00505946    -0.07487591     0.19860023
    164      2      H           0.06555075     0.01328746    -0.07840393
    165      2      H          -0.07558784     0.05445311    -0.01102788
    166      1      O          -0.04752288     0.10779744    -0.06065251
    167      2      H           0.00853094     0.02568372     0.01895467
    168      2      H          -0.00558348     0.00091753    -0.00135638
    169      1      O           0.13518689    -0.02328855     0.00647277
    170      2      H          -0.06876924     0.09128189     0.10227251
    171      2      H          -0.04090556     0.01782422    -0.08620919
    172      1      O           0.06618200     0.01085264    -0.06605727
    173      2      H          -0.00473899     0.01425072     0.09696475
    174      2      H          -0.02499236     0.05298741    -0.04076743
    175      1      O           0.04340893     0.00317080    -0.11157808
    176      2      H          -0.00452509    -0.07866997     0.00234958
    177      2      H          -0.03903995    -0.01371554    -0.00139913
    178      1      O           0.12977257     0.03878533    -0.06795862
    179      2      H          -0.11257777     0.06430385     0.06283565
    180      2      H          -0.03844819    -0.05975897    -0.07324557
    181      1      O           0.03430986    -0.04483062     0.03202716
    182      2      H          -0.02688808    -0.00061075    -0.08842079
    183      2      H           0.02323936     0.04973839     0.01288993
    184      1      O          -0.00139602     0.10917556    -0.14839797
    185      2      H           0.01376182    -0.10750276     0.03916701
    186      2      H           0.01752764     0.04566364     0.06083764
    187      1      O          -0.02826872    -0.09793975     0.01003480
    188      2      H           0.04550211     0.01695420     0.04791383
    189      2      H          -0.01056660     0.03890075    -0.07639772
    190      1      O           0.07574304     0.12807452     0.00344782
    191      2      H          -0.04136785    -0.01936885    -0.09612978
    192      2      H          -0.04145302    -0.08080968     0.04523189
 SUM OF ATOMIC FORCES          -0.25476854     0.22037148     0.00205752     0.33686025

 -------------------------------------------------------------------------------
 -                                                                             -
 -                                DBCSR STATISTICS                             -
 -                                                                             -
 -------------------------------------------------------------------------------
 COUNTER                                    TOTAL       BLAS       SMM       ACC
 flops     5 x     5 x   256           3559987200       0.0%    100.0%      0.0%
 flops    13 x     5 x   256           4117102080       0.0%    100.0%      0.0%
 flops     5 x    13 x   256           4257344000       0.0%    100.0%      0.0%
 flops    13 x    13 x   256           5808018944       0.0%    100.0%      0.0%
 flops inhomo. stacks                           0       0.0%      0.0%      0.0%
 flops total                        17.742452E+09       0.0%    100.0%      0.0%
 flops max/rank                     17.742452E+09       0.0%    100.0%      0.0%
 matmuls inhomo. stacks                         0       0.0%      0.0%      0.0%
 matmuls total                             596883       0.0%    100.0%      0.0%
 number of processed stacks                 42140       0.0%    100.0%      0.0%
 average stack size                                     0.0      14.2       0.0
 marketing flops                   333.927416E+09
 -------------------------------------------------------------------------------
 # multiplications                            301
 max memory usage/rank              30.520054E+09
 # max total images/rank                        1
 # max 3D layers                                1
 # MPI messages exchanged                       0
 MPI messages size (bytes):
  total size                         0.000000E+00
  min size                           0.000000E+00
  max size                           0.000000E+00
  average size                       0.000000E+00
 MPI breakdown and total messages size (bytes):
             size <=      128                   0                        0
       128 < size <=     8192                   0                        0
      8192 < size <=    32768                   0                        0
     32768 < size <=   131072                   0                        0
    131072 < size <=  4194304                   0                        0
   4194304 < size <= 16777216                   0                        0
  16777216 < size                               0                        0
 -------------------------------------------------------------------------------

 MEMORY| Estimated peak process memory [MiB]                               29101

 -------------------------------------------------------------------------------
 -                                                                             -
 -                           R E F E R E N C E S                               -
 -                                                                             -
 -------------------------------------------------------------------------------
 
 CP2K version 7.1, the CP2K developers group (2019).
 CP2K is freely available from https://www.cp2k.org/ .

 Schuett, Ole; Messmer, Peter; Hutter, Juerg; VandeVondele, Joost. 
 Electronic Structure Calculations on Graphics Processing Units, John
 Wiley & Sons, Ltd, 173-190 (2016). 
 GPU-Accelerated Sparse Matrix-Matrix Multiplication for
 Linear Scaling Density Functional Theory.
 https://dx.doi.org/10.1002/9781118670712.ch8

 Borstnik, U; VandeVondele, J; Weber, V; Hutter, J. 
 PARALLEL COMPUTING, 40 (5-6), 47-58 (2014). 
 Sparse matrix multiplication: The distributed block-compressed sparse
 row library.
 https://dx.doi.org/10.1016/j.parco.2014.03.012

 Hutter, J; Iannuzzi, M; Schiffmann, F; VandeVondele, J. 
 WIREs Comput Mol Sci., 4 (1), 15-25 (2014). 
 CP2K: atomistic simulations of condensed matter systems.
 https://dx.doi.org/10.1002/wcms.1159

 Krack, M. 
 THEORETICAL CHEMISTRY ACCOUNTS, 114 (1-3), 145-152 (2005). 
 Pseudopotentials for H to Kr optimized for gradient-corrected
 exchange-correlation functionals.
 https://dx.doi.org/10.1007/s00214-005-0655-y

 VandeVondele, J; Krack, M; Mohamed, F; Parrinello, M; Chassaing, T;
 Hutter, J. COMPUTER PHYSICS COMMUNICATIONS, 167 (2), 103-128 (2005). 
 QUICKSTEP: Fast and accurate density functional calculations using a
 mixed Gaussian and plane waves approach.
 https://dx.doi.org/10.1016/j.cpc.2004.12.014

 Frigo, M; Johnson, SG. 
 PROCEEDINGS OF THE IEEE, 93 (2), 216-231 (2005). 
 The design and implementation of FFTW3.
 https://dx.doi.org/10.1109/JPROC.2004.840301

 Hartwigsen, C; Goedecker, S; Hutter, J. 
 PHYSICAL REVIEW B, 58 (7), 3641-3662 (1998). 
 Relativistic separable dual-space Gaussian pseudopotentials from H to Rn.
 https://dx.doi.org/10.1103/PhysRevB.58.3641

 Lippert, G; Hutter, J; Parrinello, M. 
 MOLECULAR PHYSICS, 92 (3), 477-487 (1997). 
 A hybrid Gaussian and plane wave density functional scheme.
 https://dx.doi.org/10.1080/002689797170220

 Goedecker, S; Teter, M; Hutter, J. 
 PHYSICAL REVIEW B, 54 (3), 1703-1710 (1996). 
 Separable dual-space Gaussian pseudopotentials.
 https://dx.doi.org/10.1103/PhysRevB.54.1703


 -------------------------------------------------------------------------------
 -                                                                             -
 -                                T I M I N G                                  -
 -                                                                             -
 -------------------------------------------------------------------------------
 SUBROUTINE                       CALLS  ASD         SELF TIME        TOTAL TIME
                                MAXIMUM       AVERAGE  MAXIMUM  AVERAGE  MAXIMUM
 CP2K                                 1  1.0    1.094    1.094 7237.461 7237.461
 qs_forces                            1  2.0    0.000    0.000 7226.017 7226.017
 qs_energies                          1  3.0    0.000    0.000 7222.202 7222.202
 scf_env_do_scf                       1  4.0    0.001    0.001 7210.107 7210.107
 scf_env_do_scf_inner_loop          300  5.0    0.056    0.056 7210.107 7210.107
 gspace_mixing                      299  6.0   42.408   42.408 2988.479 2988.479
 broyden_mixing                     299  7.0 2699.244 2699.244 2699.247 2699.247
 qs_scf_new_mos                     300  6.0    0.008    0.008 1968.482 1968.482
 eigensolver                        300  7.0    0.031    0.031 1901.254 1901.254
 cp_fm_syevd                        300  8.0 1265.310 1265.310 1266.488 1266.488
 pw_transfer                       3912  9.9    0.383    0.383 1184.617 1184.617
 rebuild_ks_matrix                  301  7.0    0.001    0.001 1164.465 1164.465
 qs_ks_build_kohn_sham_matrix       301  8.0    0.098    0.098 1164.464 1164.464
 qs_ks_update_qs_env                300  6.0    0.004    0.004 1161.027 1161.027
 fft_wrap_pw1pw2                   3310 10.9    0.058    0.058 1153.237 1153.237
 qs_rho_update_rho                  301  6.0    0.003    0.003 1093.417 1093.417
 calculate_rho_elec                 301  7.0  545.394  545.394 1093.414 1093.414
 fft_wrap_pw1pw2_70                1504 11.2   91.570   91.570 1047.109 1047.109
 cp_fm_cholesky_restore             900  8.0  633.632  633.632  633.632  633.632
 fft3d_s                           3311 12.9  553.459  553.459  553.543  553.543
 density_rs2pw                      301  8.0    0.033    0.033  538.708  538.708
 pw_scatter_s                      1804 13.2  410.899  410.899  410.899  410.899
 pw_poisson_solve                   301  9.0  334.109  334.109  365.459  365.459
 sum_up_and_integrate               301  9.0   17.752   17.752  337.490  337.490
 integrate_v_rspace                 301 10.0   10.417   10.417  319.737  319.737
 potential_pw2rs                    301 11.0    2.507    2.507  285.959  285.959
 qs_vxc_create                      301  9.0    0.007    0.007  166.156  166.156
 xc_vxc_pw_create                   301 10.0   42.381   42.381  166.150  166.150
 -------------------------------------------------------------------------------

 The number of warnings for this run is : 1
 
 -------------------------------------------------------------------------------
  **** **** ******  **  PROGRAM ENDED AT                 2020-05-29 19:09:53.002
 ***** ** ***  *** **   PROGRAM RAN ON                                   gnode44
 **    ****   ******    PROGRAM RAN BY                               mayank.modi
 ***** **    ** ** **   PROGRAM PROCESS ID                                 36643
  **** **  *******  **  PROGRAM STOPPED IN /home/mayank.modi/ab-initio-thermodyn
                                           amics-of-water/mayank/cp2k_energy_cal
                                           culations
