 DBCSR| CPU Multiplication driver                                           XSMM
 DBCSR| Multrec recursion limit                                              512
 DBCSR| Multiplication stack size                                           1000
 DBCSR| Maximum elements for images                                    UNLIMITED
 DBCSR| Multiplicative factor virtual images                                   1
 DBCSR| Use multiplication densification                                       T
 DBCSR| Multiplication size stacks                                             3


  **** **** ******  **  PROGRAM STARTED AT               2020-05-28 01:40:13.305
 ***** ** ***  *** **   PROGRAM STARTED ON                               gnode44
 **    ****   ******    PROGRAM STARTED BY                           mayank.modi
 ***** **    ** ** **   PROGRAM PROCESS ID                                  7439
  **** **  *******  **  PROGRAM STARTED IN /home/mayank.modi/ab-initio-thermodyn
                                           amics-of-water/mayank/cp2k_energy_cal
                                           culations

 CP2K| version string:                                          CP2K version 7.1
 CP2K| source code revision number:                                  git:e635599
 CP2K| cp2kflags: omp libint fftw3 libxc xsmm spglib                            
 CP2K| is freely available from                            https://www.cp2k.org/
 CP2K| Program compiled at                          Mon Dec 23 19:23:12 CET 2019
 CP2K| Program compiled on                                                pc9404
 CP2K| Program compiled for                                Linux-x86-64-gfortran
 CP2K| Data directory path                                        /opt/cp2k/data
 CP2K| Input file name                                 input_training/input17.in

 GLOBAL| Force Environment number                                              1
 GLOBAL| Basis set file name                                           BASIS_SET
 GLOBAL| Potential file name                                      GTH_POTENTIALS
 GLOBAL| MM Potential file name                                     MM_POTENTIAL
 GLOBAL| Coordinate file name                                      __STD_INPUT__
 GLOBAL| Method name                                                        CP2K
 GLOBAL| Project name                                                   H2O_bulk
 GLOBAL| Preferred FFT library                                             FFTW3
 GLOBAL| Preferred diagonalization lib.                                       SL
 GLOBAL| Run type                                                   ENERGY_FORCE
 GLOBAL| All-to-all communication in single precision                          F
 GLOBAL| FFTs using library dependent lengths                                  F
 GLOBAL| Global print level                                                  LOW
 GLOBAL| MPI I/O enabled                                                       T
 GLOBAL| Total number of message passing processes                             1
 GLOBAL| Number of threads for this process                                   36
 GLOBAL| This output is from process                                           0
 GLOBAL| CPU model name                Intel(R) Xeon(R) CPU E5-2640 v4 @ 2.40GHz
 GLOBAL| CPUID                                                              1002
 GLOBAL| Compiled for CPUID                                                    0

 MEMORY| system memory details [Kb]
 MEMORY|                        rank 0           min           max       average
 MEMORY| MemTotal            131893056     131893056     131893056     131893056
 MEMORY| MemFree             121141164     121141164     121141164     121141164
 MEMORY| Buffers               2112084       2112084       2112084       2112084
 MEMORY| Cached                3079784       3079784       3079784       3079784
 MEMORY| Slab                  3303524       3303524       3303524       3303524
 MEMORY| SReclaimable          3099932       3099932       3099932       3099932
 MEMORY| MemLikelyFree       129432964     129432964     129432964     129432964


 GENERATE|  Preliminary Number of Bonds generated:                             0
 GENERATE|  Achieved consistency in connectivity generation.

 *******************************************************************************
 *******************************************************************************
 **                                                                           **
 **     #####                         ##              ##                      **
 **    ##   ##            ##          ##              ##                      **
 **   ##     ##                       ##            ######                    **
 **   ##     ##  ##   ##  ##   #####  ##  ##   ####   ##    #####    #####    **
 **   ##     ##  ##   ##  ##  ##      ## ##   ##      ##   ##   ##  ##   ##   **
 **   ##  ## ##  ##   ##  ##  ##      ####     ###    ##   ######   ######    **
 **    ##  ###   ##   ##  ##  ##      ## ##      ##   ##   ##       ##        **
 **     #######   #####   ##   #####  ##  ##  ####    ##    #####   ##        **
 **           ##                                                    ##        **
 **                                                                           **
 **                                                ... make the atoms dance   **
 **                                                                           **
 **            Copyright (C) by CP2K developers group (2000 - 2019)           **
 **                                                                           **
 *******************************************************************************


 TOTAL NUMBERS AND MAXIMUM NUMBERS

  Total number of            - Atomic kinds:                                   2
                             - Atoms:                                        192
                             - Shell sets:                                   384
                             - Shells:                                       704
                             - Primitive Cartesian functions:                960
                             - Cartesian basis functions:                   1536
                             - Spherical basis functions:                   1472

  Maximum angular momentum of- Orbital basis functions:                        2
                             - Local part of the GTH pseudopotential:          2
                             - Non-local part of the GTH pseudopotential:      0


 SCF PARAMETERS         Density guess:                                    ATOMIC
                        --------------------------------------------------------
                        max_scf:                                             300
                        max_scf_history:                                       0
                        max_diis:                                              4
                        --------------------------------------------------------
                        eps_scf:                                        1.00E-07
                        eps_scf_history:                                0.00E+00
                        eps_diis:                                       1.00E-01
                        eps_eigval:                                     1.00E-05
                        --------------------------------------------------------
                        level_shift [a.u.]:                                 0.00
                        --------------------------------------------------------
                        Mixing method:                            BROYDEN_MIXING
                                                charge density mixing in g-space
                        --------------------------------------------------------
                        No outer SCF

 Number of electrons:                                                        512
 Number of occupied orbitals:                                                256
 Number of molecular orbitals:                                               256

 Number of orbital functions:                                               1472
 Number of independent orbital functions:                                   1472

 Extrapolation method: initial_guess


 SCF WAVEFUNCTION OPTIMIZATION

  Step     Update method      Time    Convergence         Total energy    Change
  ------------------------------------------------------------------------------
     1 NoMix/Diag. 0.40E+00   10.4     0.65263580     -1064.1173614365 -1.06E+03
     2 Broy./Diag. 0.40E+00   15.3     1.93748958      -994.3673224477  6.98E+01
     3 Broy./Diag. 0.40E+00   16.4     1.94262290     -1269.4607607416 -2.75E+02
     4 Broy./Diag. 0.40E+00   17.4     1.61409867     -1123.6734263914  1.46E+02
     5 Broy./Diag. 0.40E+00   17.9     1.78474715     -1100.2057778391  2.35E+01
     6 Broy./Diag. 0.40E+00   17.8     1.81782566     -1101.9764201190 -1.77E+00
     7 Broy./Diag. 0.40E+00   19.0     1.76245265     -1095.8227684401  6.15E+00
     8 Broy./Diag. 0.40E+00   20.5     1.97527790     -1085.2334794553  1.06E+01
     9 Broy./Diag. 0.40E+00   20.8     1.79972644     -1075.9314804938  9.30E+00
    10 Broy./Diag. 0.40E+00   23.6     1.86374710     -1076.7995595978 -8.68E-01
    11 Broy./Diag. 0.40E+00   24.0     0.81537408     -1074.3634554849  2.44E+00
    12 Broy./Diag. 0.40E+00   23.4     1.79350120     -1074.0540678139  3.09E-01
    13 Broy./Diag. 0.40E+00   23.8     1.81920064     -1068.4238848464  5.63E+00
    14 Broy./Diag. 0.40E+00   24.0     1.29215835     -1078.0880009593 -9.66E+00
    15 Broy./Diag. 0.40E+00   23.4     1.80400962     -1075.5399052881  2.55E+00
    16 Broy./Diag. 0.40E+00   22.2     1.80122722     -1081.1181665774 -5.58E+00
    17 Broy./Diag. 0.40E+00   22.1     1.80062923     -1076.0722179204  5.05E+00
    18 Broy./Diag. 0.40E+00   23.8     1.81249935     -1076.4942410072 -4.22E-01
    19 Broy./Diag. 0.40E+00   24.3     1.82004594     -1077.3072681367 -8.13E-01
    20 Broy./Diag. 0.40E+00   23.8     1.83817524     -1078.0606280877 -7.53E-01
    21 Broy./Diag. 0.40E+00   23.3     1.30057152     -1074.0942837389  3.97E+00
    22 Broy./Diag. 0.40E+00   23.7     1.81925422     -1073.5669614775  5.27E-01
    23 Broy./Diag. 0.40E+00   23.3     1.81396927     -1076.3504829998 -2.78E+00
    24 Broy./Diag. 0.40E+00   23.9     1.36051636     -1078.4622560146 -2.11E+00
    25 Broy./Diag. 0.40E+00   24.0     1.45379105     -1075.5621680756  2.90E+00
    26 Broy./Diag. 0.40E+00   23.9     1.15105560     -1076.2943702643 -7.32E-01
    27 Broy./Diag. 0.40E+00   24.0     1.80741097     -1074.6845248644  1.61E+00
    28 Broy./Diag. 0.40E+00   23.0     1.03423990     -1076.9302830005 -2.25E+00
    29 Broy./Diag. 0.40E+00   23.6     1.82321081     -1075.4089240294  1.52E+00
    30 Broy./Diag. 0.40E+00   24.0     1.33079476     -1077.4218976639 -2.01E+00
    31 Broy./Diag. 0.40E+00   24.0     1.82058307     -1075.1116955016  2.31E+00
    32 Broy./Diag. 0.40E+00   23.7     1.82424475     -1076.3753200181 -1.26E+00
    33 Broy./Diag. 0.40E+00   23.8     1.09411082     -1075.0797959031  1.30E+00
    34 Broy./Diag. 0.40E+00   24.9     1.82304726     -1076.8661195981 -1.79E+00
    35 Broy./Diag. 0.40E+00   24.1     1.84760350     -1078.0560600110 -1.19E+00
    36 Broy./Diag. 0.40E+00   23.8     1.35921270     -1075.6547245539  2.40E+00
    37 Broy./Diag. 0.40E+00   23.6     1.45719554     -1075.4113131767  2.43E-01
    38 Broy./Diag. 0.40E+00   23.0     1.81092550     -1074.7548591643  6.56E-01
    39 Broy./Diag. 0.40E+00   21.2     1.81897429     -1076.3025844496 -1.55E+00
    40 Broy./Diag. 0.40E+00   23.7     1.76588717     -1075.8058889803  4.97E-01
    41 Broy./Diag. 0.40E+00   23.5     1.81802988     -1075.4395060284  3.66E-01
    42 Broy./Diag. 0.40E+00   23.0     1.81577906     -1075.1623602952  2.77E-01
    43 Broy./Diag. 0.40E+00   23.6     1.17708170     -1075.6515425177 -4.89E-01
    44 Broy./Diag. 0.40E+00   23.9     1.82472678     -1076.1678213424 -5.16E-01
    45 Broy./Diag. 0.40E+00   23.7     1.83892506     -1078.0786373865 -1.91E+00
    46 Broy./Diag. 0.40E+00   25.4     1.57334537     -1075.6690104839  2.41E+00
    47 Broy./Diag. 0.40E+00   23.7     1.05178249     -1075.6159214621  5.31E-02
    48 Broy./Diag. 0.40E+00   23.6     1.82718233     -1074.3574236818  1.26E+00
    49 Broy./Diag. 0.40E+00   23.6     1.83322818     -1079.1118368282 -4.75E+00
    50 Broy./Diag. 0.40E+00   23.3     1.78475859     -1076.3631930585  2.75E+00
    51 Broy./Diag. 0.40E+00   23.8     1.83949034     -1075.7741969364  5.89E-01
    52 Broy./Diag. 0.40E+00   23.4     1.22167014     -1075.7611330249  1.31E-02
    53 Broy./Diag. 0.40E+00   23.8     1.17634763     -1075.7196503137  4.15E-02
    54 Broy./Diag. 0.40E+00   23.2     1.82318403     -1074.0670144494  1.65E+00
    55 Broy./Diag. 0.40E+00   24.8     1.83123552     -1075.8102152753 -1.74E+00
    56 Broy./Diag. 0.40E+00   24.1     1.34034653     -1075.6070226562  2.03E-01
    57 Broy./Diag. 0.40E+00   23.6     1.82441670     -1074.7920791046  8.15E-01
    58 Broy./Diag. 0.40E+00   23.7     1.82644666     -1078.7650948737 -3.97E+00
    59 Broy./Diag. 0.40E+00   23.7     1.08181208     -1077.9469079526  8.18E-01
    60 Broy./Diag. 0.40E+00   24.0     1.82331824     -1075.6810128248  2.27E+00
    61 Broy./Diag. 0.40E+00   24.1     1.82780669     -1076.8007548131 -1.12E+00
    62 Broy./Diag. 0.40E+00   24.0     1.84074280     -1075.4201494820  1.38E+00
    63 Broy./Diag. 0.40E+00   23.9     1.08648974     -1075.3606235662  5.95E-02
    64 Broy./Diag. 0.40E+00   23.8     1.82540494     -1075.8784585971 -5.18E-01
    65 Broy./Diag. 0.40E+00   23.5     1.82983781     -1075.6370068095  2.41E-01
    66 Broy./Diag. 0.40E+00   23.7     1.81643348     -1075.5864039200  5.06E-02
    67 Broy./Diag. 0.40E+00   23.9     1.82067316     -1076.2149752324 -6.29E-01
    68 Broy./Diag. 0.40E+00   23.4     1.80419886     -1075.8023645671  4.13E-01
    69 Broy./Diag. 0.40E+00   23.6     1.24124498     -1076.0065710267 -2.04E-01
    70 Broy./Diag. 0.40E+00   23.8     1.83435046     -1075.2072590029  7.99E-01
    71 Broy./Diag. 0.40E+00   23.5     1.83933902     -1079.4658113394 -4.26E+00
    72 Broy./Diag. 0.40E+00   24.1     1.45367889     -1075.9416189083  3.52E+00
    73 Broy./Diag. 0.40E+00   23.6     1.14911003     -1075.6393190397  3.02E-01
    74 Broy./Diag. 0.40E+00   23.8     1.82993390     -1075.2278812111  4.11E-01
    75 Broy./Diag. 0.40E+00   23.9     1.84393396     -1076.1943465900 -9.66E-01
    76 Broy./Diag. 0.40E+00   24.8     1.12726702     -1076.5738085640 -3.79E-01
    77 Broy./Diag. 0.40E+00   25.6     1.77207608     -1074.4663857851  2.11E+00
    78 Broy./Diag. 0.40E+00   22.8     1.68338834     -1078.3512682668 -3.88E+00
    79 Broy./Diag. 0.40E+00   21.5     1.76533970     -1076.6760597600  1.68E+00
    80 Broy./Diag. 0.40E+00   23.0     1.75219538     -1076.9124375839 -2.36E-01
    81 Broy./Diag. 0.40E+00   21.9     1.76951076     -1076.5709936244  3.41E-01
    82 Broy./Diag. 0.40E+00   21.5     1.83959514     -1075.1877228163  1.38E+00
    83 Broy./Diag. 0.40E+00   20.9     1.14815716     -1075.5473418875 -3.60E-01
    84 Broy./Diag. 0.40E+00   23.0     1.17517468     -1075.2062385975  3.41E-01
    85 Broy./Diag. 0.40E+00   23.5     1.82340476     -1074.5048604022  7.01E-01
    86 Broy./Diag. 0.40E+00   23.9     1.84010321     -1077.6485984537 -3.14E+00
    87 Broy./Diag. 0.40E+00   23.4     1.27889033     -1076.4097622784  1.24E+00
    88 Broy./Diag. 0.40E+00   23.0     1.12230159     -1076.4905507180 -8.08E-02
    89 Broy./Diag. 0.40E+00   23.9     1.82591594     -1074.7819135202  1.71E+00
    90 Broy./Diag. 0.40E+00   23.9     1.82590142     -1077.4141728447 -2.63E+00
    91 Broy./Diag. 0.40E+00   23.7     1.78356489     -1076.9878984349  4.26E-01
    92 Broy./Diag. 0.40E+00   22.8     1.85479912     -1075.2892222946  1.70E+00
    93 Broy./Diag. 0.40E+00   21.9     1.81907185     -1075.7010313326 -4.12E-01
    94 Broy./Diag. 0.40E+00   23.0     1.82715614     -1076.5767837819 -8.76E-01
    95 Broy./Diag. 0.40E+00   24.1     1.82886477     -1075.1136576122  1.46E+00
    96 Broy./Diag. 0.40E+00   25.4     1.83194335     -1075.6290289124 -5.15E-01
    97 Broy./Diag. 0.40E+00   23.6     1.84674598     -1077.7548311180 -2.13E+00
    98 Broy./Diag. 0.40E+00   23.7     1.09881484     -1075.5967195799  2.16E+00
    99 Broy./Diag. 0.40E+00   24.2     1.83371970     -1074.4223974724  1.17E+00
   100 Broy./Diag. 0.40E+00   23.8     1.83696271     -1078.5127126780 -4.09E+00
   101 Broy./Diag. 0.40E+00   22.5     1.24097330     -1076.9558773765  1.56E+00
   102 Broy./Diag. 0.40E+00   21.4     1.46775570     -1076.5508177071  4.05E-01
   103 Broy./Diag. 0.40E+00   22.2     1.82485326     -1075.8578019605  6.93E-01
   104 Broy./Diag. 0.40E+00   21.5     1.83074046     -1076.0954091712 -2.38E-01
   105 Broy./Diag. 0.40E+00   24.1     1.82553086     -1075.0810708501  1.01E+00
   106 Broy./Diag. 0.40E+00   23.0     1.83219897     -1075.2989729628 -2.18E-01
   107 Broy./Diag. 0.40E+00   22.6     1.13119305     -1077.1547788751 -1.86E+00
   108 Broy./Diag. 0.40E+00   23.8     1.82506586     -1075.8675890786  1.29E+00
   109 Broy./Diag. 0.40E+00   24.1     1.85753770     -1076.3328759299 -4.65E-01
   110 Broy./Diag. 0.40E+00   23.6     1.83832764     -1074.0685943059  2.26E+00
   111 Broy./Diag. 0.40E+00   23.8     1.81672955     -1077.1828764727 -3.11E+00
   112 Broy./Diag. 0.40E+00   23.3     1.36013433     -1075.4945269569  1.69E+00
   113 Broy./Diag. 0.40E+00   23.1     1.63807474     -1075.5774663870 -8.29E-02
   114 Broy./Diag. 0.40E+00   23.9     1.64983682     -1076.3113719490 -7.34E-01
   115 Broy./Diag. 0.40E+00   24.3     1.13669388     -1075.2672003642  1.04E+00
   116 Broy./Diag. 0.40E+00   24.1     1.05792886     -1074.5913811409  6.76E-01
   117 Broy./Diag. 0.40E+00   23.7     1.45665532     -1075.6372704351 -1.05E+00
   118 Broy./Diag. 0.40E+00   23.2     1.76485730     -1075.9321897622 -2.95E-01
   119 Broy./Diag. 0.40E+00   22.7     1.81096009     -1076.9265372094 -9.94E-01
   120 Broy./Diag. 0.40E+00   23.9     1.42538546     -1076.9604600241 -3.39E-02
   121 Broy./Diag. 0.40E+00   24.9     1.09197420     -1076.0826466979  8.78E-01
   122 Broy./Diag. 0.40E+00   25.3     1.18362037     -1075.1195794464  9.63E-01
   123 Broy./Diag. 0.40E+00   23.6     1.23813417     -1075.2114851508 -9.19E-02
   124 Broy./Diag. 0.40E+00   23.6     1.77357717     -1076.4263286083 -1.21E+00
   125 Broy./Diag. 0.40E+00   24.0     1.11976266     -1075.3487861139  1.08E+00
   126 Broy./Diag. 0.40E+00   24.4     1.17562152     -1074.8235578387  5.25E-01
   127 Broy./Diag. 0.40E+00   22.6     1.78127812     -1079.2275040406 -4.40E+00
   128 Broy./Diag. 0.40E+00   23.1     1.79111652     -1076.9971945857  2.23E+00
   129 Broy./Diag. 0.40E+00   23.5     1.84392488     -1077.4350698872 -4.38E-01
   130 Broy./Diag. 0.40E+00   23.5     1.84718598     -1078.1877970731 -7.53E-01
   131 Broy./Diag. 0.40E+00   23.4     1.35882469     -1075.0382699691  3.15E+00
   132 Broy./Diag. 0.40E+00   23.5     1.83704558     -1074.1758449830  8.62E-01
   133 Broy./Diag. 0.40E+00   24.1     1.83196296     -1075.6810228851 -1.51E+00
   134 Broy./Diag. 0.40E+00   23.7     1.12235600     -1075.6311642694  4.99E-02
   135 Broy./Diag. 0.40E+00   23.5     1.36695741     -1075.7920407461 -1.61E-01
   136 Broy./Diag. 0.40E+00   24.0     1.36826509     -1076.0075023739 -2.15E-01
   137 Broy./Diag. 0.40E+00   24.8     1.13675417     -1076.3911501919 -3.84E-01
   138 Broy./Diag. 0.40E+00   21.8     1.00428744     -1075.9230732956  4.68E-01
   139 Broy./Diag. 0.40E+00   22.3     1.84202901     -1075.2054960856  7.18E-01
   140 Broy./Diag. 0.40E+00   24.0     1.84282673     -1078.3511524212 -3.15E+00
   141 Broy./Diag. 0.40E+00   24.9     1.42561638     -1077.3681863844  9.83E-01
   142 Broy./Diag. 0.40E+00   24.3     1.00478846     -1075.1788049686  2.19E+00
   143 Broy./Diag. 0.40E+00   23.3     1.77104766     -1074.6292913038  5.50E-01
   144 Broy./Diag. 0.40E+00   23.3     1.81558462     -1076.4170032465 -1.79E+00
   145 Broy./Diag. 0.40E+00   23.3     1.82224839     -1076.3247373183  9.23E-02
   146 Broy./Diag. 0.40E+00   24.2     1.84360813     -1077.5182770604 -1.19E+00
   147 Broy./Diag. 0.40E+00   23.9     1.17710830     -1076.0989679641  1.42E+00
   148 Broy./Diag. 0.40E+00   23.5     1.17502430     -1075.0609457717  1.04E+00
   149 Broy./Diag. 0.40E+00   23.7     1.82665367     -1075.5603962984 -4.99E-01
   150 Broy./Diag. 0.40E+00   24.6     1.83444778     -1078.9296991319 -3.37E+00
   151 Broy./Diag. 0.40E+00   24.5     1.24221605     -1075.4628146477  3.47E+00
   152 Broy./Diag. 0.40E+00   24.1     1.36493767     -1075.4451021473  1.77E-02
   153 Broy./Diag. 0.40E+00   24.4     1.38944014     -1074.7709133620  6.74E-01
   154 Broy./Diag. 0.40E+00   23.4     1.82542238     -1075.6992375435 -9.28E-01
   155 Broy./Diag. 0.40E+00   23.3     1.83563304     -1076.9782485240 -1.28E+00
   156 Broy./Diag. 0.40E+00   23.9     1.13399070     -1076.0959641775  8.82E-01
   157 Broy./Diag. 0.40E+00   23.3     1.82875205     -1075.0310268216  1.06E+00
   158 Broy./Diag. 0.40E+00   24.3     1.82186811     -1076.5851073805 -1.55E+00
   159 Broy./Diag. 0.40E+00   25.1     1.83024027     -1076.6094539486 -2.43E-02
   160 Broy./Diag. 0.40E+00   21.7     1.10163275     -1075.8904365685  7.19E-01
   161 Broy./Diag. 0.40E+00   22.1     1.76869142     -1075.6689882790  2.21E-01
   162 Broy./Diag. 0.40E+00   21.6     1.81445596     -1075.4152035921  2.54E-01
   163 Broy./Diag. 0.40E+00   22.1     1.82701027     -1074.5293570771  8.86E-01
   164 Broy./Diag. 0.40E+00   23.9     1.82228664     -1078.9486732791 -4.42E+00
   165 Broy./Diag. 0.40E+00   24.6     1.53151064     -1078.2408713875  7.08E-01
   166 Broy./Diag. 0.40E+00   24.5     1.82255481     -1076.3902674141  1.85E+00
   167 Broy./Diag. 0.40E+00   23.3     1.83770308     -1077.7216711335 -1.33E+00
   168 Broy./Diag. 0.40E+00   23.8     1.26279542     -1075.6038659110  2.12E+00
   169 Broy./Diag. 0.40E+00   24.3     1.49398006     -1075.5973949621  6.47E-03
   170 Broy./Diag. 0.40E+00   24.2     1.54341077     -1075.3090115159  2.88E-01
   171 Broy./Diag. 0.40E+00   23.3     0.31742749     -1074.1852960257  1.12E+00
   172 Broy./Diag. 0.40E+00   23.7     1.76493934     -1075.8297906332 -1.64E+00
   173 Broy./Diag. 0.40E+00   23.9     1.79076855     -1078.0442116389 -2.21E+00
   174 Broy./Diag. 0.40E+00   24.7     1.76079659     -1076.3602533400  1.68E+00
   175 Broy./Diag. 0.40E+00   24.1     1.81769828     -1076.2487201982  1.12E-01
   176 Broy./Diag. 0.40E+00   23.6     1.24285588     -1075.8317270107  4.17E-01
   177 Broy./Diag. 0.40E+00   23.0     1.28204507     -1075.3584377279  4.73E-01
   178 Broy./Diag. 0.40E+00   22.4     1.82073553     -1075.4713677710 -1.13E-01
   179 Broy./Diag. 0.40E+00   22.4     1.83732407     -1076.1709076809 -7.00E-01
   180 Broy./Diag. 0.40E+00   24.7     1.46758709     -1075.3645830382  8.06E-01
   181 Broy./Diag. 0.40E+00   22.3     1.53884142     -1075.3022526569  6.23E-02
   182 Broy./Diag. 0.40E+00   22.5     1.82686840     -1074.6708429917  6.31E-01
   183 Broy./Diag. 0.40E+00   23.5     1.83954378     -1078.9616765238 -4.29E+00
   184 Broy./Diag. 0.40E+00   24.3     1.76370929     -1077.7221973674  1.24E+00
   185 Broy./Diag. 0.40E+00   24.3     1.85780817     -1075.1208141915  2.60E+00
   186 Broy./Diag. 0.40E+00   22.9     1.00856520     -1075.7448643683 -6.24E-01
   187 Broy./Diag. 0.40E+00   24.6     1.09334682     -1075.6361207957  1.09E-01
   188 Broy./Diag. 0.40E+00   22.1     1.04383403     -1074.9293497407  7.07E-01
   189 Broy./Diag. 0.40E+00   22.3     1.24482691     -1075.5767195659 -6.47E-01
   190 Broy./Diag. 0.40E+00   24.1     1.53869903     -1076.4366608421 -8.60E-01
   191 Broy./Diag. 0.40E+00   25.3     1.53342157     -1076.4343706767  2.29E-03
   192 Broy./Diag. 0.40E+00   22.2     1.82784898     -1076.2221513591  2.12E-01
   193 Broy./Diag. 0.40E+00   23.6     1.29361193     -1074.6293740327  1.59E+00
   194 Broy./Diag. 0.40E+00   22.2     1.77661455     -1079.1441956093 -4.51E+00
   195 Broy./Diag. 0.40E+00   23.5     1.83513942     -1076.8809088369  2.26E+00
   196 Broy./Diag. 0.40E+00   23.2     1.84648405     -1078.3908537742 -1.51E+00
   197 Broy./Diag. 0.40E+00   23.8     1.36016837     -1075.9197323573  2.47E+00
   198 Broy./Diag. 0.40E+00   23.7     1.48546501     -1075.5047119606  4.15E-01
   199 Broy./Diag. 0.40E+00   23.7     1.61408091     -1074.2607982436  1.24E+00
   200 Broy./Diag. 0.40E+00   23.6     1.62185222     -1075.3097187542 -1.05E+00
   201 Broy./Diag. 0.40E+00   23.7     1.83197816     -1075.8268250881 -5.17E-01
   202 Broy./Diag. 0.40E+00   23.6     1.83111686     -1076.8217889823 -9.95E-01
   203 Broy./Diag. 0.40E+00   23.9     1.24085200     -1075.6034375792  1.22E+00
   204 Broy./Diag. 0.40E+00   23.2     1.33769076     -1075.3201473098  2.83E-01
   205 Broy./Diag. 0.40E+00   23.8     1.75158569     -1075.8356583603 -5.16E-01
   206 Broy./Diag. 0.40E+00   23.4     1.02975667     -1077.8244594358 -1.99E+00
   207 Broy./Diag. 0.40E+00   24.5     1.11379826     -1076.4457943649  1.38E+00
   208 Broy./Diag. 0.40E+00   24.2     1.83266369     -1074.9012092347  1.54E+00
   209 Broy./Diag. 0.40E+00   22.3     1.82670820     -1077.0724895947 -2.17E+00
   210 Broy./Diag. 0.40E+00   23.7     1.79015783     -1076.0577219047  1.01E+00
   211 Broy./Diag. 0.40E+00   23.7     1.80572026     -1076.0324870234  2.52E-02
   212 Broy./Diag. 0.40E+00   23.8     1.17361398     -1076.0460204842 -1.35E-02
   213 Broy./Diag. 0.40E+00   23.4     1.49399596     -1075.9810936820  6.49E-02
   214 Broy./Diag. 0.40E+00   23.7     1.54843747     -1075.7080311480  2.73E-01
   215 Broy./Diag. 0.40E+00   23.5     1.39668649     -1075.6368581856  7.12E-02
   216 Broy./Diag. 0.40E+00   23.0     1.11300582     -1074.8332695874  8.04E-01
   217 Broy./Diag. 0.40E+00   24.3     1.77857451     -1077.9293055271 -3.10E+00
   218 Broy./Diag. 0.40E+00   24.6     1.79359561     -1079.7491188610 -1.82E+00
   219 Broy./Diag. 0.40E+00   21.5     1.27930284     -1075.2666505529  4.48E+00
   220 Broy./Diag. 0.40E+00   23.5     1.28543596     -1076.5100089993 -1.24E+00
   221 Broy./Diag. 0.40E+00   24.0     1.83901278     -1077.9460723180 -1.44E+00
   222 Broy./Diag. 0.40E+00   23.6     1.35889674     -1076.6185648299  1.33E+00
   223 Broy./Diag. 0.40E+00   23.6     1.42855678     -1076.4160208422  2.03E-01
   224 Broy./Diag. 0.40E+00   24.6     0.98993947     -1075.1318608568  1.28E+00
   225 Broy./Diag. 0.40E+00   22.9     1.34552845     -1075.9142586062 -7.82E-01
   226 Broy./Diag. 0.40E+00   24.0     1.72349329     -1076.3217645038 -4.08E-01
   227 Broy./Diag. 0.40E+00   23.5     1.77267737     -1076.2204092696  1.01E-01
   228 Broy./Diag. 0.40E+00   22.3     1.79429743     -1078.0317291133 -1.81E+00
   229 Broy./Diag. 0.40E+00   23.6     1.15495555     -1075.9992687756  2.03E+00
   230 Broy./Diag. 0.40E+00   24.0     1.81811888     -1074.9877660036  1.01E+00
   231 Broy./Diag. 0.40E+00   24.7     1.83647719     -1077.7946582150 -2.81E+00
   232 Broy./Diag. 0.40E+00   22.8     1.79939594     -1075.4047024361  2.39E+00
   233 Broy./Diag. 0.40E+00   24.4     1.82986845     -1075.9539682613 -5.49E-01
   234 Broy./Diag. 0.40E+00   24.0     1.83742428     -1079.1655319863 -3.21E+00
   235 Broy./Diag. 0.40E+00   24.4     1.21012995     -1076.7077545850  2.46E+00
   236 Broy./Diag. 0.40E+00   22.1     1.82041557     -1074.3264936132  2.38E+00
   237 Broy./Diag. 0.40E+00   23.4     1.83115416     -1078.6072063651 -4.28E+00
   238 Broy./Diag. 0.40E+00   23.5     1.34918263     -1076.5384302264  2.07E+00
   239 Broy./Diag. 0.40E+00   23.8     1.82813829     -1076.4748889409  6.35E-02
   240 Broy./Diag. 0.40E+00   23.8     1.83862924     -1077.6012162451 -1.13E+00
   241 Broy./Diag. 0.40E+00   23.3     1.12502976     -1076.7872071148  8.14E-01
   242 Broy./Diag. 0.40E+00   23.4     1.83604351     -1075.5313427645  1.26E+00
   243 Broy./Diag. 0.40E+00   23.9     1.86664428     -1076.5230374967 -9.92E-01
   244 Broy./Diag. 0.40E+00   23.6     1.55310899     -1076.5903431726 -6.73E-02
   245 Broy./Diag. 0.40E+00   23.7     1.45800710     -1074.6950097350  1.90E+00
   246 Broy./Diag. 0.40E+00   22.9     1.67998831     -1074.0586696013  6.36E-01
   247 Broy./Diag. 0.40E+00   23.8     1.82311710     -1074.6396547038 -5.81E-01
   248 Broy./Diag. 0.40E+00   24.0     1.82765418     -1075.8648622010 -1.23E+00
   249 Broy./Diag. 0.40E+00   25.1     1.82997948     -1075.5144317240  3.50E-01
   250 Broy./Diag. 0.40E+00   22.2     1.84295859     -1078.6964386071 -3.18E+00
   251 Broy./Diag. 0.40E+00   22.2     1.10862479     -1076.5895510447  2.11E+00
   252 Broy./Diag. 0.40E+00   23.8     1.83108995     -1075.8685040544  7.21E-01
   253 Broy./Diag. 0.40E+00   24.3     1.84878833     -1076.2854456647 -4.17E-01
   254 Broy./Diag. 0.40E+00   23.1     1.76317484     -1075.1812200339  1.10E+00
   255 Broy./Diag. 0.40E+00   23.5     1.79628164     -1077.7709195927 -2.59E+00
   256 Broy./Diag. 0.40E+00   22.5     1.10601248     -1075.0051060412  2.77E+00
   257 Broy./Diag. 0.40E+00   21.6     1.46391263     -1077.0839428073 -2.08E+00
   258 Broy./Diag. 0.40E+00   23.3     1.82538149     -1074.3351610773  2.75E+00
   259 Broy./Diag. 0.40E+00   23.4     1.83543338     -1075.1525659802 -8.17E-01
   260 Broy./Diag. 0.40E+00   23.1     1.14407251     -1075.8082163295 -6.56E-01
   261 Broy./Diag. 0.40E+00   21.3     1.11158038     -1075.9674142141 -1.59E-01
   262 Broy./Diag. 0.40E+00   24.6     1.82055669     -1075.5668598344  4.01E-01
   263 Broy./Diag. 0.40E+00   22.8     1.83099497     -1078.3630601241 -2.80E+00
   264 Broy./Diag. 0.40E+00   23.6     1.82824505     -1074.4337898590  3.93E+00
   265 Broy./Diag. 0.40E+00   23.8     1.84866971     -1075.0715406230 -6.38E-01
   266 Broy./Diag. 0.40E+00   23.0     1.05802670     -1075.7118273263 -6.40E-01
   267 Broy./Diag. 0.40E+00   23.7     1.75847056     -1076.6785287249 -9.67E-01
   268 Broy./Diag. 0.40E+00   23.7     1.82259304     -1075.7198829392  9.59E-01
   269 Broy./Diag. 0.40E+00   23.8     1.83913217     -1076.4616411219 -7.42E-01
   270 Broy./Diag. 0.40E+00   25.3     1.22756017     -1075.4612985925  1.00E+00
   271 Broy./Diag. 0.40E+00   23.7     1.15787245     -1075.4519740072  9.32E-03
   272 Broy./Diag. 0.40E+00   24.0     1.83188774     -1074.2488990512  1.20E+00
   273 Broy./Diag. 0.40E+00   23.5     1.83242726     -1079.8908145926 -5.64E+00
   274 Broy./Diag. 0.40E+00   24.3     1.34229806     -1075.9898137173  3.90E+00
   275 Broy./Diag. 0.40E+00   24.1     1.80732760     -1074.8577187299  1.13E+00
   276 Broy./Diag. 0.40E+00   23.9     1.81685663     -1077.0596119657 -2.20E+00
   277 Broy./Diag. 0.40E+00   23.5     1.77764613     -1075.6553632960  1.40E+00
   278 Broy./Diag. 0.40E+00   23.4     1.84620071     -1075.0690862263  5.86E-01
   279 Broy./Diag. 0.40E+00   23.9     1.84431938     -1076.4051574349 -1.34E+00
   280 Broy./Diag. 0.40E+00   24.6     1.26415707     -1077.3452218812 -9.40E-01
   281 Broy./Diag. 0.40E+00   21.6     1.83030808     -1074.8784633540  2.47E+00
   282 Broy./Diag. 0.40E+00   22.4     1.82123430     -1075.3423896985 -4.64E-01
   283 Broy./Diag. 0.40E+00   20.1     1.82919811     -1076.1886558030 -8.46E-01
   284 Broy./Diag. 0.40E+00   22.6     1.08890295     -1075.7919093806  3.97E-01
   285 Broy./Diag. 0.40E+00   21.8     1.83062061     -1076.4505179094 -6.59E-01
   286 Broy./Diag. 0.40E+00   21.8     1.85071852     -1077.2936100769 -8.43E-01
   287 Broy./Diag. 0.40E+00   23.3     1.44834360     -1076.6446073986  6.49E-01
   288 Broy./Diag. 0.40E+00   23.3     1.30644371     -1074.3854331935  2.26E+00
   289 Broy./Diag. 0.40E+00   23.7     1.79680887     -1074.1473388011  2.38E-01
   290 Broy./Diag. 0.40E+00   24.1     1.13062913     -1079.7813769708 -5.63E+00
   291 Broy./Diag. 0.40E+00   23.8     1.69361613     -1077.2611333582  2.52E+00
   292 Broy./Diag. 0.40E+00   23.4     1.10643549     -1075.9919528131  1.27E+00
   293 Broy./Diag. 0.40E+00   23.5     1.07466973     -1077.6004662286 -1.61E+00
   294 Broy./Diag. 0.40E+00   23.7     1.76751044     -1074.8298853832  2.77E+00
   295 Broy./Diag. 0.40E+00   23.4     1.82945281     -1075.7912505247 -9.61E-01
   296 Broy./Diag. 0.40E+00   23.8     1.84691301     -1077.1235738750 -1.33E+00
   297 Broy./Diag. 0.40E+00   24.4     1.49397957     -1076.2005145758  9.23E-01
   298 Broy./Diag. 0.40E+00   24.6     1.54666939     -1077.4121740328 -1.21E+00
   299 Broy./Diag. 0.40E+00   23.7     1.33376121     -1075.5020183911  1.91E+00
   300 Broy./Diag. 0.40E+00   24.0     1.61196517     -1075.1816314395  3.20E-01

  Leaving inner SCF loop after reaching   300 steps.


  Electronic density on regular grids:       -512.0003038149       -0.0003038149
  Core density on regular grids:              511.9990198200       -0.0009801800
  Total charge density on r-space grids:       -0.0012839950
  Total charge density g-space grids:          -0.0012839950

  Overlap energy of the core charge distribution:               0.00000000000000
  Self energy of the core charge distribution:              -2838.21791979120962
  Core Hamiltonian energy:                                    760.63782143230083
  Hartree energy:                                            1240.81512134895524
  Exchange-correlation energy:                               -238.41665442955755

  Total energy:                                             -1075.18163143951119

 *** WARNING in qs_scf.F:542 :: SCF run NOT converged ***


 ENERGY| Total FORCE_EVAL ( QS ) energy (a.u.):            -1075.166270301050645


 ATOMIC FORCES in [a.u.]

 # Atom   Kind   Element          X              Y              Z
      1      1      O          -0.01802405     0.03869515     0.11118301
      2      2      H          -0.06686346    -0.00561262    -0.05455089
      3      2      H           0.03522537    -0.00924671    -0.03661222
      4      1      O           0.00880247     0.07567383     0.14584390
      5      2      H           0.00336965    -0.02830288    -0.06570605
      6      2      H           0.02854323    -0.10337292     0.01214136
      7      1      O          -0.01734543     0.10321603     0.05507275
      8      2      H           0.03800177     0.00731774     0.07913839
      9      2      H          -0.01083951    -0.05940296    -0.05186805
     10      1      O           0.11135700     0.07565530     0.08158410
     11      2      H          -0.03070312     0.02678472    -0.09537207
     12      2      H          -0.02929265    -0.03517433     0.05833253
     13      1      O           0.05420737    -0.09827832    -0.06406542
     14      2      H           0.00012103     0.03951839     0.01266248
     15      2      H          -0.04488907     0.00582227    -0.03408300
     16      1      O           0.04809891    -0.06609405    -0.15021321
     17      2      H           0.03882520     0.01506988     0.08587687
     18      2      H          -0.08108319    -0.00897987     0.05602997
     19      1      O          -0.07501051     0.03936436    -0.03557113
     20      2      H           0.09126627     0.00688792     0.00528692
     21      2      H           0.01124847    -0.07404736    -0.05753130
     22      1      O          -0.05294879     0.12322613     0.04988323
     23      2      H           0.04945249    -0.07536039     0.04807969
     24      2      H           0.03897999    -0.00246342    -0.09138729
     25      1      O           0.06076685    -0.08051542     0.16295647
     26      2      H          -0.03416924     0.08410327     0.01999685
     27      2      H          -0.02370819    -0.01533086    -0.08417368
     28      1      O          -0.06787763    -0.09448254    -0.00335081
     29      2      H           0.00349235    -0.02656672    -0.06445741
     30      2      H           0.04093173    -0.00263058     0.06074477
     31      1      O          -0.05716772    -0.07289684    -0.06705184
     32      2      H           0.00060079     0.08634906     0.02851407
     33      2      H           0.04929678    -0.05762573     0.08535267
     34      1      O           0.02811331    -0.02479722    -0.09407800
     35      2      H          -0.05527598     0.01557353     0.05800832
     36      2      H           0.02928340    -0.03836778     0.10797597
     37      1      O           0.06329928     0.05250270    -0.04915164
     38      2      H          -0.00424202     0.01199613    -0.01960993
     39      2      H          -0.04808426     0.02900026     0.00275050
     40      1      O           0.06684432     0.04758328    -0.13308732
     41      2      H          -0.08437016     0.01786980     0.03429514
     42      2      H          -0.01299189    -0.11785140     0.02553202
     43      1      O           0.00603842     0.08798404    -0.14687464
     44      2      H          -0.06857733     0.01232341     0.06994694
     45      2      H           0.05118347    -0.00610968     0.00291996
     46      1      O          -0.04364200     0.09089276     0.05711123
     47      2      H          -0.02941272    -0.04447104    -0.09740043
     48      2      H           0.07018848     0.00361994    -0.01628371
     49      1      O          -0.02861346    -0.03527935     0.16310856
     50      2      H          -0.03745093     0.07129122    -0.08349815
     51      2      H           0.07474109     0.01480803     0.02991690
     52      1      O          -0.04968202    -0.02353355     0.05938325
     53      2      H           0.07169028    -0.03415249    -0.02112929
     54      2      H           0.00018477    -0.00104921     0.03289392
     55      1      O           0.04552880    -0.07848833    -0.08730766
     56      2      H          -0.05498975     0.07200372    -0.01514498
     57      2      H           0.05549301     0.00998039     0.06342852
     58      1      O           0.00924677     0.00985638     0.04986939
     59      2      H          -0.01721454     0.10773977    -0.09108461
     60      2      H           0.02255180    -0.03955801    -0.05845026
     61      1      O           0.10012977     0.03113821     0.05800178
     62      2      H          -0.03862787    -0.06775326    -0.07809432
     63      2      H          -0.04353683     0.05613762     0.04740757
     64      1      O           0.06229454    -0.03477754     0.11414837
     65      2      H           0.00025723    -0.03662612    -0.11601789
     66      2      H          -0.06517678    -0.05862004     0.06032213
     67      1      O          -0.07763062     0.04319980    -0.01903325
     68      2      H          -0.00139024    -0.06594746     0.01418361
     69      2      H           0.06239136     0.00656810    -0.01736491
     70      1      O           0.07087239     0.07321799     0.06121341
     71      2      H          -0.02692910     0.07964121    -0.08002306
     72      2      H          -0.02466635    -0.04132951     0.02478683
     73      1      O           0.03825317     0.07416679    -0.00146375
     74      2      H           0.00630944     0.05249044    -0.02736645
     75      2      H          -0.03280033    -0.07350645    -0.00400422
     76      1      O          -0.00777783     0.09262203     0.17388824
     77      2      H           0.04307632    -0.01237738     0.01697532
     78      2      H          -0.01543764    -0.08104381    -0.04802006
     79      1      O           0.08816701     0.11219102     0.05040522
     80      2      H          -0.02363674    -0.05026202     0.09064313
     81      2      H          -0.04844753    -0.06962816    -0.09699619
     82      1      O           0.03956195     0.12706550     0.03031627
     83      2      H           0.00150838    -0.00960709     0.08803487
     84      2      H          -0.02986466    -0.01468730    -0.06783009
     85      1      O           0.07516028    -0.12513310    -0.07721454
     86      2      H          -0.02634570     0.05297128    -0.06406807
     87      2      H          -0.05415009    -0.03046582     0.07062987
     88      1      O           0.03806510    -0.11517615    -0.11366558
     89      2      H          -0.05493043    -0.03354260     0.00132680
     90      2      H           0.01593779     0.02957494     0.05446958
     91      1      O          -0.08149795    -0.05377332     0.07275702
     92      2      H           0.00044420     0.09969759    -0.06342917
     93      2      H           0.05260023    -0.02374158    -0.02472770
     94      1      O          -0.05537883     0.04234926     0.00903220
     95      2      H           0.05195683     0.04368854    -0.01588005
     96      2      H          -0.02826204    -0.02595552    -0.07034109
     97      1      O          -0.01000092     0.04654915    -0.11181570
     98      2      H          -0.06440472    -0.02127220    -0.00112326
     99      2      H           0.03460155    -0.08140461     0.00400370
    100      1      O          -0.01036887    -0.06985527    -0.03178735
    101      2      H           0.00591190     0.10594799     0.02830311
    102      2      H          -0.01671817     0.02572683     0.11160323
    103      1      O           0.04264280     0.09848736     0.01332930
    104      2      H          -0.04570815    -0.06870913     0.00053284
    105      2      H          -0.00773220     0.01685712     0.06048173
    106      1      O          -0.04307103     0.07549808     0.12716911
    107      2      H           0.07439572    -0.06254650     0.01355211
    108      2      H          -0.03314006     0.00039807    -0.05205801
    109      1      O          -0.01229567     0.08763807    -0.01178332
    110      2      H          -0.00083681     0.05571543     0.11046347
    111      2      H           0.00340910    -0.05057460     0.02039601
    112      1      O          -0.05732678    -0.08092430     0.03275077
    113      2      H           0.06177354    -0.01851011     0.01397825
    114      2      H          -0.00947248     0.03672344    -0.01496226
    115      1      O           0.06856919    -0.00001748     0.15611443
    116      2      H          -0.09265243     0.03142179     0.04813861
    117      2      H           0.02744252     0.07518134    -0.08056306
    118      1      O           0.05145603    -0.07161666    -0.16677259
    119      2      H           0.04355937    -0.03425134     0.02360793
    120      2      H          -0.06124072    -0.00342290    -0.00370402
    121      1      O          -0.00835812     0.00711806     0.03311424
    122      2      H          -0.00809769     0.04669965    -0.05237010
    123      2      H           0.00372149    -0.00967320    -0.04935786
    124      1      O           0.02021947     0.15011991    -0.12594870
    125      2      H           0.02918189    -0.02948995    -0.01114094
    126      2      H          -0.06616208    -0.05704729    -0.03599092
    127      1      O          -0.07912679     0.13834523    -0.08520059
    128      2      H           0.07816885     0.01322382     0.01344360
    129      2      H          -0.01873720    -0.08887710    -0.06704031
    130      1      O          -0.08476679     0.08733554     0.10579077
    131      2      H           0.00870254    -0.04325804    -0.03809633
    132      2      H           0.08056186     0.02952649     0.01928563
    133      1      O          -0.01168177    -0.01349290    -0.12650136
    134      2      H           0.02842671     0.04319078     0.01235742
    135      2      H          -0.03304598    -0.01893624     0.03291550
    136      1      O           0.02431897    -0.12660194    -0.13380428
    137      2      H          -0.06161077    -0.03214978     0.02049875
    138      2      H          -0.00143847     0.09401024     0.01056456
    139      1      O           0.03215893     0.03956880     0.04092056
    140      2      H          -0.03060738    -0.04263134    -0.00485980
    141      2      H          -0.02214051     0.08093414    -0.04737841
    142      1      O           0.05007789     0.03344662     0.01760293
    143      2      H           0.03767400    -0.03734932    -0.00310240
    144      2      H          -0.06587189    -0.05034594    -0.01431103
    145      1      O           0.00695343     0.04664098     0.02582646
    146      2      H           0.03725918    -0.07475655    -0.05893338
    147      2      H          -0.03542741    -0.01038751     0.04899649
    148      1      O           0.02467298    -0.00449748     0.03971833
    149      2      H           0.00292971     0.07804893    -0.04100164
    150      2      H          -0.04491961     0.01620518     0.04968378
    151      1      O          -0.12589701    -0.00289779     0.03966855
    152      2      H          -0.01247449    -0.00316538    -0.03264282
    153      2      H           0.14033067     0.03187766     0.01845742
    154      1      O           0.05508539    -0.00274666     0.10590252
    155      2      H           0.00055142    -0.03820640    -0.02676078
    156      2      H          -0.06173056     0.00101852     0.00617760
    157      1      O          -0.08938840     0.04065563     0.05794481
    158      2      H           0.02578243    -0.02186978    -0.04887689
    159      2      H           0.04881766     0.02999334     0.00051089
    160      1      O           0.06095130     0.02390031    -0.12730843
    161      2      H          -0.04693531     0.04577025     0.05369174
    162      2      H          -0.04615353    -0.00831524    -0.03883607
    163      1      O          -0.03457233     0.03408124    -0.00506141
    164      2      H           0.02420604     0.07341168     0.00105568
    165      2      H          -0.03368984    -0.01307599     0.00802065
    166      1      O          -0.08020331    -0.00301509    -0.00520555
    167      2      H           0.00124252     0.05405720     0.05687637
    168      2      H           0.03270278    -0.07619054     0.00301212
    169      1      O           0.00602395     0.05985881     0.11532197
    170      2      H          -0.06024452    -0.00668469    -0.02364950
    171      2      H           0.02917799     0.03209552    -0.00909126
    172      1      O          -0.06298606     0.00610417     0.11831550
    173      2      H           0.03491065     0.06712868    -0.07753548
    174      2      H           0.00358153    -0.05959753    -0.06137811
    175      1      O           0.06002525    -0.02683400    -0.08213701
    176      2      H          -0.03753710     0.01776147     0.00263370
    177      2      H          -0.03333165    -0.06878561    -0.06959071
    178      1      O           0.06785128     0.03951482    -0.14346274
    179      2      H           0.02462628     0.00793148     0.01795992
    180      2      H          -0.08926949    -0.02817849    -0.01088829
    181      1      O          -0.03925403     0.12383572    -0.01865590
    182      2      H          -0.03128840    -0.05580065    -0.03333399
    183      2      H           0.06166622     0.01178890    -0.03663437
    184      1      O          -0.04059756    -0.01584156    -0.01505223
    185      2      H           0.03246105     0.06828174     0.02263994
    186      2      H          -0.04153415    -0.00000664    -0.05384364
    187      1      O           0.06527203     0.04131456    -0.00169194
    188      2      H           0.00708875    -0.00075232     0.03906038
    189      2      H          -0.04355412    -0.07396850    -0.04332637
    190      1      O          -0.04444819    -0.10637900     0.01376685
    191      2      H           0.06762608     0.04415963    -0.04223013
    192      2      H          -0.02207420    -0.00910411     0.09462586
 SUM OF ATOMIC FORCES          -0.21235102     0.60651764    -0.26628761     0.69560455

 -------------------------------------------------------------------------------
 -                                                                             -
 -                                DBCSR STATISTICS                             -
 -                                                                             -
 -------------------------------------------------------------------------------
 COUNTER                                    TOTAL       BLAS       SMM       ACC
 flops     5 x     5 x   256           3640896000       0.0%    100.0%      0.0%
 flops     5 x    13 x   256           4427637760       0.0%    100.0%      0.0%
 flops    13 x     5 x   256           4507776000       0.0%    100.0%      0.0%
 flops    13 x    13 x   256           6615411712       0.0%    100.0%      0.0%
 flops inhomo. stacks                           0       0.0%      0.0%      0.0%
 flops total                        19.191721E+09       0.0%    100.0%      0.0%
 flops max/rank                     19.191721E+09       0.0%    100.0%      0.0%
 matmuls inhomo. stacks                         0       0.0%      0.0%      0.0%
 matmuls total                             629391       0.0%    100.0%      0.0%
 number of processed stacks                 42140       0.0%    100.0%      0.0%
 average stack size                                     0.0      14.9       0.0
 marketing flops                   333.927416E+09
 -------------------------------------------------------------------------------
 # multiplications                            301
 max memory usage/rank              30.548484E+09
 # max total images/rank                        1
 # max 3D layers                                1
 # MPI messages exchanged                       0
 MPI messages size (bytes):
  total size                         0.000000E+00
  min size                           0.000000E+00
  max size                           0.000000E+00
  average size                       0.000000E+00
 MPI breakdown and total messages size (bytes):
             size <=      128                   0                        0
       128 < size <=     8192                   0                        0
      8192 < size <=    32768                   0                        0
     32768 < size <=   131072                   0                        0
    131072 < size <=  4194304                   0                        0
   4194304 < size <= 16777216                   0                        0
  16777216 < size                               0                        0
 -------------------------------------------------------------------------------

 MEMORY| Estimated peak process memory [MiB]                               29137

 -------------------------------------------------------------------------------
 -                                                                             -
 -                           R E F E R E N C E S                               -
 -                                                                             -
 -------------------------------------------------------------------------------
 
 CP2K version 7.1, the CP2K developers group (2019).
 CP2K is freely available from https://www.cp2k.org/ .

 Schuett, Ole; Messmer, Peter; Hutter, Juerg; VandeVondele, Joost. 
 Electronic Structure Calculations on Graphics Processing Units, John
 Wiley & Sons, Ltd, 173-190 (2016). 
 GPU-Accelerated Sparse Matrix-Matrix Multiplication for
 Linear Scaling Density Functional Theory.
 https://dx.doi.org/10.1002/9781118670712.ch8

 Borstnik, U; VandeVondele, J; Weber, V; Hutter, J. 
 PARALLEL COMPUTING, 40 (5-6), 47-58 (2014). 
 Sparse matrix multiplication: The distributed block-compressed sparse
 row library.
 https://dx.doi.org/10.1016/j.parco.2014.03.012

 Hutter, J; Iannuzzi, M; Schiffmann, F; VandeVondele, J. 
 WIREs Comput Mol Sci., 4 (1), 15-25 (2014). 
 CP2K: atomistic simulations of condensed matter systems.
 https://dx.doi.org/10.1002/wcms.1159

 Krack, M. 
 THEORETICAL CHEMISTRY ACCOUNTS, 114 (1-3), 145-152 (2005). 
 Pseudopotentials for H to Kr optimized for gradient-corrected
 exchange-correlation functionals.
 https://dx.doi.org/10.1007/s00214-005-0655-y

 VandeVondele, J; Krack, M; Mohamed, F; Parrinello, M; Chassaing, T;
 Hutter, J. COMPUTER PHYSICS COMMUNICATIONS, 167 (2), 103-128 (2005). 
 QUICKSTEP: Fast and accurate density functional calculations using a
 mixed Gaussian and plane waves approach.
 https://dx.doi.org/10.1016/j.cpc.2004.12.014

 Frigo, M; Johnson, SG. 
 PROCEEDINGS OF THE IEEE, 93 (2), 216-231 (2005). 
 The design and implementation of FFTW3.
 https://dx.doi.org/10.1109/JPROC.2004.840301

 Hartwigsen, C; Goedecker, S; Hutter, J. 
 PHYSICAL REVIEW B, 58 (7), 3641-3662 (1998). 
 Relativistic separable dual-space Gaussian pseudopotentials from H to Rn.
 https://dx.doi.org/10.1103/PhysRevB.58.3641

 Lippert, G; Hutter, J; Parrinello, M. 
 MOLECULAR PHYSICS, 92 (3), 477-487 (1997). 
 A hybrid Gaussian and plane wave density functional scheme.
 https://dx.doi.org/10.1080/002689797170220

 Goedecker, S; Teter, M; Hutter, J. 
 PHYSICAL REVIEW B, 54 (3), 1703-1710 (1996). 
 Separable dual-space Gaussian pseudopotentials.
 https://dx.doi.org/10.1103/PhysRevB.54.1703


 -------------------------------------------------------------------------------
 -                                                                             -
 -                                T I M I N G                                  -
 -                                                                             -
 -------------------------------------------------------------------------------
 SUBROUTINE                       CALLS  ASD         SELF TIME        TOTAL TIME
                                MAXIMUM       AVERAGE  MAXIMUM  AVERAGE  MAXIMUM
 CP2K                                 1  1.0    1.151    1.151 7034.072 7034.072
 qs_forces                            1  2.0    0.000    0.000 7022.847 7022.847
 qs_energies                          1  3.0    0.000    0.000 7019.063 7019.063
 scf_env_do_scf                       1  4.0    0.002    0.002 7007.544 7007.544
 scf_env_do_scf_inner_loop          300  5.0    0.050    0.050 7007.542 7007.542
 gspace_mixing                      299  6.0   42.367   42.367 2945.857 2945.857
 broyden_mixing                     299  7.0 2664.013 2664.013 2664.017 2664.017
 qs_scf_new_mos                     300  6.0    0.009    0.009 1939.816 1939.816
 eigensolver                        300  7.0    0.036    0.036 1908.938 1908.938
 cp_fm_syevd                        300  8.0 1266.059 1266.059 1267.212 1267.212
 pw_transfer                       3912  9.9    0.378    0.378 1122.567 1122.567
 fft_wrap_pw1pw2                   3310 10.9    0.050    0.050 1096.733 1096.733
 rebuild_ks_matrix                  301  7.0    0.001    0.001 1093.258 1093.258
 qs_ks_build_kohn_sham_matrix       301  8.0    0.082    0.082 1093.257 1093.257
 qs_ks_update_qs_env                300  6.0    0.004    0.004 1089.823 1089.823
 qs_rho_update_rho                  301  6.0    0.003    0.003 1033.977 1033.977
 calculate_rho_elec                 301  7.0  513.447  513.447 1033.974 1033.974
 fft_wrap_pw1pw2_70                1504 11.2   87.118   87.118 1008.273 1008.273
 cp_fm_cholesky_restore             900  8.0  640.566  640.566  640.566  640.566
 fft3d_s                           3311 12.9  516.012  516.012  516.038  516.038
 density_rs2pw                      301  8.0    0.031    0.031  512.936  512.936
 pw_scatter_s                      1804 13.2  409.765  409.765  409.765  409.765
 pw_poisson_solve                   301  9.0  336.384  336.384  362.193  362.193
 sum_up_and_integrate               301  9.0   18.644   18.644  287.194  287.194
 integrate_v_rspace                 301 10.0    7.760    7.760  268.549  268.549
 potential_pw2rs                    301 11.0    2.512    2.512  259.119  259.119
 qs_vxc_create                      301  9.0    0.008    0.008  159.605  159.605
 xc_vxc_pw_create                   301 10.0   42.267   42.267  159.597  159.597
 -------------------------------------------------------------------------------

 The number of warnings for this run is : 1
 
 -------------------------------------------------------------------------------
  **** **** ******  **  PROGRAM ENDED AT                 2020-05-28 03:37:27.948
 ***** ** ***  *** **   PROGRAM RAN ON                                   gnode44
 **    ****   ******    PROGRAM RAN BY                               mayank.modi
 ***** **    ** ** **   PROGRAM PROCESS ID                                  7439
  **** **  *******  **  PROGRAM STOPPED IN /home/mayank.modi/ab-initio-thermodyn
                                           amics-of-water/mayank/cp2k_energy_cal
                                           culations
