 DBCSR| CPU Multiplication driver                                           XSMM
 DBCSR| Multrec recursion limit                                              512
 DBCSR| Multiplication stack size                                           1000
 DBCSR| Maximum elements for images                                    UNLIMITED
 DBCSR| Multiplicative factor virtual images                                   1
 DBCSR| Use multiplication densification                                       T
 DBCSR| Multiplication size stacks                                             3


  **** **** ******  **  PROGRAM STARTED AT               2020-05-27 07:48:39.825
 ***** ** ***  *** **   PROGRAM STARTED ON                               gnode44
 **    ****   ******    PROGRAM STARTED BY                           mayank.modi
 ***** **    ** ** **   PROGRAM PROCESS ID                                 34356
  **** **  *******  **  PROGRAM STARTED IN /home/mayank.modi/ab-initio-thermodyn
                                           amics-of-water/mayank/cp2k_energy_cal
                                           culations

 CP2K| version string:                                          CP2K version 7.1
 CP2K| source code revision number:                                  git:e635599
 CP2K| cp2kflags: omp libint fftw3 libxc xsmm spglib                            
 CP2K| is freely available from                            https://www.cp2k.org/
 CP2K| Program compiled at                          Mon Dec 23 19:23:12 CET 2019
 CP2K| Program compiled on                                                pc9404
 CP2K| Program compiled for                                Linux-x86-64-gfortran
 CP2K| Data directory path                                        /opt/cp2k/data
 CP2K| Input file name                                  input_training/input8.in

 GLOBAL| Force Environment number                                              1
 GLOBAL| Basis set file name                                           BASIS_SET
 GLOBAL| Potential file name                                      GTH_POTENTIALS
 GLOBAL| MM Potential file name                                     MM_POTENTIAL
 GLOBAL| Coordinate file name                                      __STD_INPUT__
 GLOBAL| Method name                                                        CP2K
 GLOBAL| Project name                                                   H2O_bulk
 GLOBAL| Preferred FFT library                                             FFTW3
 GLOBAL| Preferred diagonalization lib.                                       SL
 GLOBAL| Run type                                                   ENERGY_FORCE
 GLOBAL| All-to-all communication in single precision                          F
 GLOBAL| FFTs using library dependent lengths                                  F
 GLOBAL| Global print level                                                  LOW
 GLOBAL| MPI I/O enabled                                                       T
 GLOBAL| Total number of message passing processes                             1
 GLOBAL| Number of threads for this process                                   36
 GLOBAL| This output is from process                                           0
 GLOBAL| CPU model name                Intel(R) Xeon(R) CPU E5-2640 v4 @ 2.40GHz
 GLOBAL| CPUID                                                              1002
 GLOBAL| Compiled for CPUID                                                    0

 MEMORY| system memory details [Kb]
 MEMORY|                        rank 0           min           max       average
 MEMORY| MemTotal            131893056     131893056     131893056     131893056
 MEMORY| MemFree             121454372     121454372     121454372     121454372
 MEMORY| Buffers               2104972       2104972       2104972       2104972
 MEMORY| Cached                2781812       2781812       2781812       2781812
 MEMORY| Slab                  3290436       3290436       3290436       3290436
 MEMORY| SReclaimable          3096868       3096868       3096868       3096868
 MEMORY| MemLikelyFree       129438024     129438024     129438024     129438024


 GENERATE| WARNING:: No connections detected for Hydrogen - Atom Nr:        21 !
 GENERATE| WARNING:: No connections detected for Hydrogen - Atom Nr:        42 !
 GENERATE| WARNING:: No connections detected for Hydrogen - Atom Nr:        51 !
 GENERATE| WARNING:: No connections detected for Hydrogen - Atom Nr:        56 !
 GENERATE| WARNING:: No connections detected for Hydrogen - Atom Nr:        77 !
 GENERATE| WARNING:: No connections detected for Hydrogen - Atom Nr:       101 !
 GENERATE| WARNING:: No connections detected for Hydrogen - Atom Nr:       143 !
 GENERATE| WARNING:: No connections detected for Hydrogen - Atom Nr:       153 !
 GENERATE| WARNING:: No connections detected for Hydrogen - Atom Nr:       176 !
 GENERATE| WARNING:: No connections detected for Hydrogen - Atom Nr:       179 !
 GENERATE| WARNING:: No connections detected for Hydrogen - Atom Nr:       191 !
 GENERATE|  Preliminary Number of Bonds generated:                             0
 GENERATE|  Achieved consistency in connectivity generation.

 *******************************************************************************
 *******************************************************************************
 **                                                                           **
 **     #####                         ##              ##                      **
 **    ##   ##            ##          ##              ##                      **
 **   ##     ##                       ##            ######                    **
 **   ##     ##  ##   ##  ##   #####  ##  ##   ####   ##    #####    #####    **
 **   ##     ##  ##   ##  ##  ##      ## ##   ##      ##   ##   ##  ##   ##   **
 **   ##  ## ##  ##   ##  ##  ##      ####     ###    ##   ######   ######    **
 **    ##  ###   ##   ##  ##  ##      ## ##      ##   ##   ##       ##        **
 **     #######   #####   ##   #####  ##  ##  ####    ##    #####   ##        **
 **           ##                                                    ##        **
 **                                                                           **
 **                                                ... make the atoms dance   **
 **                                                                           **
 **            Copyright (C) by CP2K developers group (2000 - 2019)           **
 **                                                                           **
 *******************************************************************************


 TOTAL NUMBERS AND MAXIMUM NUMBERS

  Total number of            - Atomic kinds:                                   2
                             - Atoms:                                        192
                             - Shell sets:                                   384
                             - Shells:                                       704
                             - Primitive Cartesian functions:                960
                             - Cartesian basis functions:                   1536
                             - Spherical basis functions:                   1472

  Maximum angular momentum of- Orbital basis functions:                        2
                             - Local part of the GTH pseudopotential:          2
                             - Non-local part of the GTH pseudopotential:      0


 SCF PARAMETERS         Density guess:                                    ATOMIC
                        --------------------------------------------------------
                        max_scf:                                             300
                        max_scf_history:                                       0
                        max_diis:                                              4
                        --------------------------------------------------------
                        eps_scf:                                        1.00E-07
                        eps_scf_history:                                0.00E+00
                        eps_diis:                                       1.00E-01
                        eps_eigval:                                     1.00E-05
                        --------------------------------------------------------
                        level_shift [a.u.]:                                 0.00
                        --------------------------------------------------------
                        Mixing method:                            BROYDEN_MIXING
                                                charge density mixing in g-space
                        --------------------------------------------------------
                        No outer SCF

 Number of electrons:                                                        512
 Number of occupied orbitals:                                                256
 Number of molecular orbitals:                                               256

 Number of orbital functions:                                               1472
 Number of independent orbital functions:                                   1472

 Extrapolation method: initial_guess


 SCF WAVEFUNCTION OPTIMIZATION

  Step     Update method      Time    Convergence         Total energy    Change
  ------------------------------------------------------------------------------
     1 NoMix/Diag. 0.40E+00    9.7     0.68793960     -1063.4562956308 -1.06E+03
     2 Broy./Diag. 0.40E+00   14.7     1.96366234      -985.5732497184  7.79E+01
     3 Broy./Diag. 0.40E+00   15.9     1.90836123     -1291.8007350365 -3.06E+02
     4 Broy./Diag. 0.40E+00   17.3     1.86469082     -1157.3573306468  1.34E+02
     5 Broy./Diag. 0.40E+00   17.7     1.97090381     -1113.4150063357  4.39E+01
     6 Broy./Diag. 0.40E+00   19.1     1.80191655     -1077.4969402609  3.59E+01
     7 Broy./Diag. 0.40E+00   19.7     1.84914089     -1115.0143365329 -3.75E+01
     8 Broy./Diag. 0.40E+00   20.8     1.92144116     -1095.0906755250  1.99E+01
     9 Broy./Diag. 0.40E+00   20.7     1.92528719     -1076.2752106603  1.88E+01
    10 Broy./Diag. 0.40E+00   23.7     1.86122335     -1068.0598507012  8.22E+00
    11 Broy./Diag. 0.40E+00   23.7     1.96266128     -1065.2600240276  2.80E+00
    12 Broy./Diag. 0.40E+00   23.1     1.79004277     -1065.1948645081  6.52E-02
    13 Broy./Diag. 0.40E+00   21.7     1.83829413     -1080.9594594885 -1.58E+01
    14 Broy./Diag. 0.40E+00   21.2     1.86648144     -1093.0631541480 -1.21E+01
    15 Broy./Diag. 0.40E+00   23.0     1.83490600     -1076.1991973337  1.69E+01
    16 Broy./Diag. 0.40E+00   23.7     1.89141089     -1075.7696782160  4.30E-01
    17 Broy./Diag. 0.40E+00   23.3     1.85333539     -1069.9037731665  5.87E+00
    18 Broy./Diag. 0.40E+00   22.9     1.88924431     -1064.2767951148  5.63E+00
    19 Broy./Diag. 0.40E+00   22.9     1.89052392     -1086.1724804467 -2.19E+01
    20 Broy./Diag. 0.40E+00   22.7     1.89953098     -1066.1307151605  2.00E+01
    21 Broy./Diag. 0.40E+00   23.2     1.91908627     -1085.0938718343 -1.90E+01
    22 Broy./Diag. 0.40E+00   23.2     1.94776752     -1092.3333753405 -7.24E+00
    23 Broy./Diag. 0.40E+00   23.5     1.83367397     -1084.5858214459  7.75E+00
    24 Broy./Diag. 0.40E+00   21.6     1.85419724     -1056.6910548134  2.79E+01
    25 Broy./Diag. 0.40E+00   22.9     1.88527298     -1073.1039938984 -1.64E+01
    26 Broy./Diag. 0.40E+00   22.2     1.87116041     -1070.9894710159  2.11E+00
    27 Broy./Diag. 0.40E+00   23.3     1.88497309     -1069.6162170742  1.37E+00
    28 Broy./Diag. 0.40E+00   23.1     1.95708965     -1079.7015160191 -1.01E+01
    29 Broy./Diag. 0.40E+00   23.5     1.91591422     -1066.2448183266  1.35E+01
    30 Broy./Diag. 0.40E+00   21.6     1.85709562     -1086.0726608068 -1.98E+01
    31 Broy./Diag. 0.40E+00   22.0     1.95652347     -1074.6509515195  1.14E+01
    32 Broy./Diag. 0.40E+00   20.8     1.83486738     -1072.3505549605  2.30E+00
    33 Broy./Diag. 0.40E+00   22.9     1.88388664     -1064.1965309809  8.15E+00
    34 Broy./Diag. 0.40E+00   22.7     1.86425281     -1082.9859150312 -1.88E+01
    35 Broy./Diag. 0.40E+00   23.6     1.90185264     -1084.2928227609 -1.31E+00
    36 Broy./Diag. 0.40E+00   23.4     1.88646156     -1078.7080673965  5.58E+00
    37 Broy./Diag. 0.40E+00   22.5     1.97791852     -1066.0438080261  1.27E+01
    38 Broy./Diag. 0.40E+00   21.1     1.90480534     -1076.8851312497 -1.08E+01
    39 Broy./Diag. 0.40E+00   22.1     1.90651066     -1078.8322029386 -1.95E+00
    40 Broy./Diag. 0.40E+00   23.0     1.93530806     -1078.0887552778  7.43E-01
    41 Broy./Diag. 0.40E+00   22.8     1.84929576     -1067.3777437342  1.07E+01
    42 Broy./Diag. 0.40E+00   23.8     1.93788385     -1072.6020274766 -5.22E+00
    43 Broy./Diag. 0.40E+00   21.5     1.84809590     -1086.0624894145 -1.35E+01
    44 Broy./Diag. 0.40E+00   23.2     1.91896881     -1061.9277067653  2.41E+01
    45 Broy./Diag. 0.40E+00   23.3     1.91762426     -1078.5418802599 -1.66E+01
    46 Broy./Diag. 0.40E+00   22.7     1.93686960     -1068.2807844920  1.03E+01
    47 Broy./Diag. 0.40E+00   22.3     1.92045251     -1074.7693584956 -6.49E+00
    48 Broy./Diag. 0.40E+00   23.3     1.93458753     -1076.7912475300 -2.02E+00
    49 Broy./Diag. 0.40E+00   23.1     1.92494481     -1073.9503858462  2.84E+00
    50 Broy./Diag. 0.40E+00   22.7     1.87989680     -1076.7079353255 -2.76E+00
    51 Broy./Diag. 0.40E+00   23.3     1.91697150     -1070.5572771034  6.15E+00
    52 Broy./Diag. 0.40E+00   24.7     1.85754815     -1073.8504485145 -3.29E+00
    53 Broy./Diag. 0.40E+00   22.7     1.91221975     -1073.3386788655  5.12E-01
    54 Broy./Diag. 0.40E+00   23.4     1.91221964     -1080.0697337587 -6.73E+00
    55 Broy./Diag. 0.40E+00   22.9     1.95215206     -1076.2441145515  3.83E+00
    56 Broy./Diag. 0.40E+00   22.5     1.89889202     -1070.5165556532  5.73E+00
    57 Broy./Diag. 0.40E+00   24.0     1.85374619     -1069.5764922697  9.40E-01
    58 Broy./Diag. 0.40E+00   23.3     1.85085504     -1072.2661521725 -2.69E+00
    59 Broy./Diag. 0.40E+00   21.9     1.95084576     -1083.8426726033 -1.16E+01
    60 Broy./Diag. 0.40E+00   21.1     1.90523173     -1077.5156207513  6.33E+00
    61 Broy./Diag. 0.40E+00   23.4     1.85279003     -1073.3806947876  4.13E+00
    62 Broy./Diag. 0.40E+00   23.1     1.94926013     -1063.8117484889  9.57E+00
    63 Broy./Diag. 0.40E+00   22.1     1.91240738     -1087.3692159045 -2.36E+01
    64 Broy./Diag. 0.40E+00   21.3     1.91128348     -1069.1794979570  1.82E+01
    65 Broy./Diag. 0.40E+00   20.9     1.90682055     -1075.6376384104 -6.46E+00
    66 Broy./Diag. 0.40E+00   21.2     1.91222998     -1069.7678485757  5.87E+00
    67 Broy./Diag. 0.40E+00   24.5     1.87087974     -1077.5709503291 -7.80E+00
    68 Broy./Diag. 0.40E+00   23.2     1.86588957     -1070.5772818665  6.99E+00
    69 Broy./Diag. 0.40E+00   23.6     1.91673355     -1086.4436418823 -1.59E+01
    70 Broy./Diag. 0.40E+00   23.7     1.90149356     -1075.3454806467  1.11E+01
    71 Broy./Diag. 0.40E+00   22.3     1.90253769     -1064.7245292571  1.06E+01
    72 Broy./Diag. 0.40E+00   21.8     1.97452950     -1072.1440241795 -7.42E+00
    73 Broy./Diag. 0.40E+00   22.2     1.84757388     -1073.8611934674 -1.72E+00
    74 Broy./Diag. 0.40E+00   23.3     1.87817044     -1069.9747156404  3.89E+00
    75 Broy./Diag. 0.40E+00   23.4     1.88775210     -1065.9248660212  4.05E+00
    76 Broy./Diag. 0.40E+00   24.0     1.91561761     -1085.6926334806 -1.98E+01
    77 Broy./Diag. 0.40E+00   22.3     1.91443901     -1074.2095048886  1.15E+01
    78 Broy./Diag. 0.40E+00   24.0     1.91443894     -1073.5251931037  6.84E-01
    79 Broy./Diag. 0.40E+00   23.6     1.92191680     -1089.9803560350 -1.65E+01
    80 Broy./Diag. 0.40E+00   22.3     1.88743836     -1066.4107546067  2.36E+01
    81 Broy./Diag. 0.40E+00   24.6     1.87550323     -1066.9773086921 -5.67E-01
    82 Broy./Diag. 0.40E+00   22.2     1.88389655     -1072.6257502368 -5.65E+00
    83 Broy./Diag. 0.40E+00   23.1     1.95652556     -1086.0165330942 -1.34E+01
    84 Broy./Diag. 0.40E+00   23.8     1.87956621     -1073.7677693373  1.22E+01
    85 Broy./Diag. 0.40E+00   23.3     1.88944037     -1067.1846245053  6.58E+00
    86 Broy./Diag. 0.40E+00   23.6     1.91323690     -1067.3752432446 -1.91E-01
    87 Broy./Diag. 0.40E+00   23.4     1.91323678     -1080.7810565765 -1.34E+01
    88 Broy./Diag. 0.40E+00   23.3     1.92514909     -1079.8252897357  9.56E-01
    89 Broy./Diag. 0.40E+00   23.7     1.94565602     -1069.1102730393  1.07E+01
    90 Broy./Diag. 0.40E+00   23.2     1.93658833     -1075.6972659903 -6.59E+00
    91 Broy./Diag. 0.40E+00   23.2     1.86701832     -1070.5734814313  5.12E+00
    92 Broy./Diag. 0.40E+00   23.5     1.91574241     -1065.6749474667  4.90E+00
    93 Broy./Diag. 0.40E+00   21.9     1.93771329     -1075.9556607988 -1.03E+01
    94 Broy./Diag. 0.40E+00   22.9     1.92963892     -1079.7130668489 -3.76E+00
    95 Broy./Diag. 0.40E+00   23.2     1.84109664     -1070.8581526926  8.85E+00
    96 Broy./Diag. 0.40E+00   23.5     1.94362419     -1083.5113937528 -1.27E+01
    97 Broy./Diag. 0.40E+00   21.6     1.90411829     -1070.1480521989  1.34E+01
    98 Broy./Diag. 0.40E+00   22.5     1.85674056     -1068.9004693408  1.25E+00
    99 Broy./Diag. 0.40E+00   22.8     1.92873140     -1070.5866256988 -1.69E+00
   100 Broy./Diag. 0.40E+00   23.2     1.94125940     -1066.5282910991  4.06E+00
   101 Broy./Diag. 0.40E+00   23.2     1.84565892     -1079.3091866735 -1.28E+01
   102 Broy./Diag. 0.40E+00   22.8     1.88130019     -1072.0007456898  7.31E+00
   103 Broy./Diag. 0.40E+00   24.5     1.85321559     -1070.1866227516  1.81E+00
   104 Broy./Diag. 0.40E+00   23.3     1.84731646     -1071.4883156844 -1.30E+00
   105 Broy./Diag. 0.40E+00   24.6     1.94455455     -1080.6863353779 -9.20E+00
   106 Broy./Diag. 0.40E+00   21.3     1.91056000     -1083.6174346142 -2.93E+00
   107 Broy./Diag. 0.40E+00   21.6     1.87574335     -1070.7073212515  1.29E+01
   108 Broy./Diag. 0.40E+00   22.8     1.86788207     -1069.4993473501  1.21E+00
   109 Broy./Diag. 0.40E+00   23.0     1.91254649     -1072.4073723056 -2.91E+00
   110 Broy./Diag. 0.40E+00   23.7     1.86203398     -1080.1565343129 -7.75E+00
   111 Broy./Diag. 0.40E+00   21.5     1.91427514     -1082.2576934592 -2.10E+00
   112 Broy./Diag. 0.40E+00   22.8     1.91261745     -1060.5672011693  2.17E+01
   113 Broy./Diag. 0.40E+00   23.1     1.91143767     -1081.9293529638 -2.14E+01
   114 Broy./Diag. 0.40E+00   24.1     1.88282518     -1072.8391053862  9.09E+00
   115 Broy./Diag. 0.40E+00   22.0     1.91935767     -1083.2001699636 -1.04E+01
   116 Broy./Diag. 0.40E+00   22.8     1.97439417     -1075.3086593386  7.89E+00
   117 Broy./Diag. 0.40E+00   23.5     1.87081966     -1069.0792255812  6.23E+00
   118 Broy./Diag. 0.40E+00   21.9     1.92737083     -1063.8600838423  5.22E+00
   119 Broy./Diag. 0.40E+00   22.4     1.91833098     -1079.2413284050 -1.54E+01
   120 Broy./Diag. 0.40E+00   21.9     1.97658607     -1080.7049327650 -1.46E+00
   121 Broy./Diag. 0.40E+00   20.4     1.86860414     -1072.3599301365  8.35E+00
   122 Broy./Diag. 0.40E+00   20.9     1.90077978     -1062.8462056509  9.51E+00
   123 Broy./Diag. 0.40E+00   20.7     1.93710483     -1070.2793181249 -7.43E+00
   124 Broy./Diag. 0.40E+00   19.8     1.88913246     -1083.5972274908 -1.33E+01
   125 Broy./Diag. 0.40E+00   21.5     1.81537993     -1075.7383999811  7.86E+00
   126 Broy./Diag. 0.40E+00   22.1     1.83834952     -1071.4881418223  4.25E+00
   127 Broy./Diag. 0.40E+00   22.9     1.87403926     -1083.8240677210 -1.23E+01
   128 Broy./Diag. 0.40E+00   23.8     1.94574499     -1078.2568434648  5.57E+00
   129 Broy./Diag. 0.40E+00   24.0     1.85566615     -1069.7187496924  8.54E+00
   130 Broy./Diag. 0.40E+00   24.2     1.94264342     -1069.5975593632  1.21E-01
   131 Broy./Diag. 0.40E+00   23.9     1.89563031     -1059.1696162306  1.04E+01
   132 Broy./Diag. 0.40E+00   23.5     1.93947490     -1078.4049053388 -1.92E+01
   133 Broy./Diag. 0.40E+00   23.5     1.92135925     -1078.2922138625  1.13E-01
   134 Broy./Diag. 0.40E+00   24.3     1.91849164     -1073.5595114893  4.73E+00
   135 Broy./Diag. 0.40E+00   24.4     1.93247947     -1075.7959795950 -2.24E+00
   136 Broy./Diag. 0.40E+00   24.9     1.91448494     -1069.1770215209  6.62E+00
   137 Broy./Diag. 0.40E+00   21.3     1.86513720     -1081.7707393914 -1.26E+01
   138 Broy./Diag. 0.40E+00   22.8     1.90599799     -1070.5543522415  1.12E+01
   139 Broy./Diag. 0.40E+00   23.3     1.89982983     -1073.8493188240 -3.29E+00
   140 Broy./Diag. 0.40E+00   24.5     1.90947398     -1068.6953320839  5.15E+00
   141 Broy./Diag. 0.40E+00   24.1     1.88206212     -1081.5654927651 -1.29E+01
   142 Broy./Diag. 0.40E+00   24.7     1.93595732     -1069.0028225915  1.26E+01
   143 Broy./Diag. 0.40E+00   24.2     1.89659057     -1089.2559098888 -2.03E+01
   144 Broy./Diag. 0.40E+00   24.2     1.89487840     -1063.1573314882  2.61E+01
   145 Broy./Diag. 0.40E+00   23.9     1.95031426     -1079.9089237586 -1.68E+01
   146 Broy./Diag. 0.40E+00   23.9     1.83639474     -1070.2415845045  9.67E+00
   147 Broy./Diag. 0.40E+00   23.8     1.91699261     -1075.9372489644 -5.70E+00
   148 Broy./Diag. 0.40E+00   24.0     1.89355009     -1069.7215948216  6.22E+00
   149 Broy./Diag. 0.40E+00   24.0     1.88829407     -1074.9663140260 -5.24E+00
   150 Broy./Diag. 0.40E+00   23.9     1.93015976     -1074.7198555048  2.46E-01
   151 Broy./Diag. 0.40E+00   24.3     1.86360813     -1082.8581957172 -8.14E+00
   152 Broy./Diag. 0.40E+00   24.0     1.94821070     -1071.4711737539  1.14E+01
   153 Broy./Diag. 0.40E+00   24.2     1.97278648     -1074.9122913191 -3.44E+00
   154 Broy./Diag. 0.40E+00   23.9     1.85101365     -1059.9713112083  1.49E+01
   155 Broy./Diag. 0.40E+00   23.9     1.89265893     -1081.8601109389 -2.19E+01
   156 Broy./Diag. 0.40E+00   23.8     1.89738390     -1069.2249819709  1.26E+01
   157 Broy./Diag. 0.40E+00   22.1     1.97527871     -1075.1533976081 -5.93E+00
   158 Broy./Diag. 0.40E+00   22.2     1.84127270     -1081.7911856306 -6.64E+00
   159 Broy./Diag. 0.40E+00   23.7     1.75269354     -1068.9012698537  1.29E+01
   160 Broy./Diag. 0.40E+00   23.3     1.86802044     -1062.9165761947  5.98E+00
   161 Broy./Diag. 0.40E+00   23.6     1.96669827     -1071.9270741627 -9.01E+00
   162 Broy./Diag. 0.40E+00   23.3     1.90619620     -1073.9309365501 -2.00E+00
   163 Broy./Diag. 0.40E+00   23.0     1.90914108     -1078.6556065391 -4.72E+00
   164 Broy./Diag. 0.40E+00   24.0     1.90276445     -1076.9498049543  1.71E+00
   165 Broy./Diag. 0.40E+00   24.3     1.93804179     -1078.6586379086 -1.71E+00
   166 Broy./Diag. 0.40E+00   23.9     1.94506609     -1074.3728170318  4.29E+00
   167 Broy./Diag. 0.40E+00   24.1     1.93006208     -1066.0920496897  8.28E+00
   168 Broy./Diag. 0.40E+00   24.0     1.81372956     -1069.9941055297 -3.90E+00
   169 Broy./Diag. 0.40E+00   24.5     1.77553978     -1078.0715449941 -8.08E+00
   170 Broy./Diag. 0.40E+00   24.4     1.88061166     -1065.2231847406  1.28E+01
   171 Broy./Diag. 0.40E+00   24.1     1.93113817     -1083.0504655491 -1.78E+01
   172 Broy./Diag. 0.40E+00   22.4     1.86614748     -1083.7479419909 -6.97E-01
   173 Broy./Diag. 0.40E+00   24.1     1.89920083     -1061.9573478250  2.18E+01
   174 Broy./Diag. 0.40E+00   22.8     1.94963331     -1082.3788880682 -2.04E+01
   175 Broy./Diag. 0.40E+00   23.6     1.80392741     -1066.5856975098  1.58E+01
   176 Broy./Diag. 0.40E+00   23.8     1.88378047     -1066.2084501538  3.77E-01
   177 Broy./Diag. 0.40E+00   24.8     1.96133218     -1091.6993393433 -2.55E+01
   178 Broy./Diag. 0.40E+00   25.0     1.88719143     -1070.1245065819  2.16E+01
   179 Broy./Diag. 0.40E+00   22.2     1.85952420     -1079.9687683696 -9.84E+00
   180 Broy./Diag. 0.40E+00   22.5     1.86500111     -1064.7827375741  1.52E+01
   181 Broy./Diag. 0.40E+00   23.6     1.91374554     -1078.9489015542 -1.42E+01
   182 Broy./Diag. 0.40E+00   24.0     1.89286045     -1086.9777776767 -8.03E+00
   183 Broy./Diag. 0.40E+00   23.7     1.88402963     -1068.3554514420  1.86E+01
   184 Broy./Diag. 0.40E+00   23.9     1.91651374     -1064.0453965510  4.31E+00
   185 Broy./Diag. 0.40E+00   24.1     1.89038083     -1077.6315048267 -1.36E+01
   186 Broy./Diag. 0.40E+00   23.7     1.93432326     -1066.1250665619  1.15E+01
   187 Broy./Diag. 0.40E+00   24.3     1.86773565     -1085.2448310026 -1.91E+01
   188 Broy./Diag. 0.40E+00   24.2     1.95576695     -1070.7301778678  1.45E+01
   189 Broy./Diag. 0.40E+00   24.0     1.90708682     -1081.8843817721 -1.12E+01
   190 Broy./Diag. 0.40E+00   22.9     1.85743532     -1069.9909626048  1.19E+01
   191 Broy./Diag. 0.40E+00   24.2     1.96978051     -1064.2715532111  5.72E+00
   192 Broy./Diag. 0.40E+00   22.2     1.85853138     -1077.9251036494 -1.37E+01
   193 Broy./Diag. 0.40E+00   23.9     1.94979720     -1075.6629117808  2.26E+00
   194 Broy./Diag. 0.40E+00   22.9     1.94979719     -1079.2258872959 -3.56E+00
   195 Broy./Diag. 0.40E+00   23.5     1.93074781     -1070.9453876762  8.28E+00
   196 Broy./Diag. 0.40E+00   23.6     1.90477481     -1074.0441599122 -3.10E+00
   197 Broy./Diag. 0.40E+00   24.1     1.88750317     -1080.6510899022 -6.61E+00
   198 Broy./Diag. 0.40E+00   24.9     1.88833217     -1057.6685438222  2.30E+01
   199 Broy./Diag. 0.40E+00   22.3     1.93198614     -1086.5633795608 -2.89E+01
   200 Broy./Diag. 0.40E+00   22.0     1.84808388     -1072.2853992823  1.43E+01
   201 Broy./Diag. 0.40E+00   23.1     1.90822627     -1065.1627318039  7.12E+00
   202 Broy./Diag. 0.40E+00   22.5     1.89065556     -1086.8070812780 -2.16E+01
   203 Broy./Diag. 0.40E+00   23.5     1.91338459     -1075.7552273210  1.11E+01
   204 Broy./Diag. 0.40E+00   22.4     1.91338481     -1068.9362368189  6.82E+00
   205 Broy./Diag. 0.40E+00   23.6     1.94401828     -1080.0259889292 -1.11E+01
   206 Broy./Diag. 0.40E+00   23.7     1.94401790     -1076.7216970165  3.30E+00
   207 Broy./Diag. 0.40E+00   23.7     1.94783039     -1075.2311813213  1.49E+00
   208 Broy./Diag. 0.40E+00   25.0     1.93992688     -1078.9735564594 -3.74E+00
   209 Broy./Diag. 0.40E+00   22.1     1.86149393     -1062.5857886671  1.64E+01
   210 Broy./Diag. 0.40E+00   23.3     1.91907614     -1080.6907653069 -1.81E+01
   211 Broy./Diag. 0.40E+00   24.3     1.94518323     -1073.6572657751  7.03E+00
   212 Broy./Diag. 0.40E+00   24.6     1.82492813     -1073.3033942270  3.54E-01
   213 Broy./Diag. 0.40E+00   23.2     1.90492702     -1069.4141789224  3.89E+00
   214 Broy./Diag. 0.40E+00   24.7     1.86678087     -1083.4294337794 -1.40E+01
   215 Broy./Diag. 0.40E+00   24.4     1.95980874     -1081.6445078151  1.78E+00
   216 Broy./Diag. 0.40E+00   23.3     1.91749400     -1062.2037123072  1.94E+01
   217 Broy./Diag. 0.40E+00   23.6     1.89711286     -1082.2224589164 -2.00E+01
   218 Broy./Diag. 0.40E+00   25.0     1.93965877     -1068.2472704747  1.40E+01
   219 Broy./Diag. 0.40E+00   23.3     1.85646187     -1074.7546663917 -6.51E+00
   220 Broy./Diag. 0.40E+00   22.4     1.87870969     -1070.1941465774  4.56E+00
   221 Broy./Diag. 0.40E+00   24.0     1.96474002     -1070.9885498608 -7.94E-01
   222 Broy./Diag. 0.40E+00   23.9     1.83526108     -1078.3831334733 -7.39E+00
   223 Broy./Diag. 0.40E+00   23.2     1.89960390     -1066.1971769226  1.22E+01
   224 Broy./Diag. 0.40E+00   23.6     1.96041244     -1092.1201783216 -2.59E+01
   225 Broy./Diag. 0.40E+00   24.0     1.84337909     -1070.7655739456  2.14E+01
   226 Broy./Diag. 0.40E+00   24.0     1.88010857     -1070.2652103719  5.00E-01
   227 Broy./Diag. 0.40E+00   24.1     1.91305623     -1074.2416818204 -3.98E+00
   228 Broy./Diag. 0.40E+00   22.4     1.92886588     -1068.1164633924  6.13E+00
   229 Broy./Diag. 0.40E+00   23.9     1.86139151     -1086.5630751873 -1.84E+01
   230 Broy./Diag. 0.40E+00   23.2     1.89794217     -1079.3551223623  7.21E+00
   231 Broy./Diag. 0.40E+00   24.2     1.86466738     -1061.2745566689  1.81E+01
   232 Broy./Diag. 0.40E+00   23.8     1.95575054     -1073.1615357808 -1.19E+01
   233 Broy./Diag. 0.40E+00   22.9     1.87633893     -1076.9825565778 -3.82E+00
   234 Broy./Diag. 0.40E+00   24.4     1.87015160     -1081.4336541759 -4.45E+00
   235 Broy./Diag. 0.40E+00   23.4     1.91807029     -1077.0992281153  4.33E+00
   236 Broy./Diag. 0.40E+00   23.8     1.94582659     -1062.9827165577  1.41E+01
   237 Broy./Diag. 0.40E+00   24.0     1.92147573     -1068.6181174368 -5.64E+00
   238 Broy./Diag. 0.40E+00   22.7     1.87129285     -1079.5446149012 -1.09E+01
   239 Broy./Diag. 0.40E+00   24.3     1.92005721     -1078.4249005195  1.12E+00
   240 Broy./Diag. 0.40E+00   23.1     1.82831258     -1071.6728829945  6.75E+00
   241 Broy./Diag. 0.40E+00   23.9     1.89484876     -1072.3222294517 -6.49E-01
   242 Broy./Diag. 0.40E+00   23.9     1.96263379     -1082.9384317508 -1.06E+01
   243 Broy./Diag. 0.40E+00   25.2     1.94907110     -1079.4733612670  3.47E+00
   244 Broy./Diag. 0.40E+00   24.5     1.88508459     -1067.6891495783  1.18E+01
   245 Broy./Diag. 0.40E+00   24.5     1.89081323     -1061.9366490810  5.75E+00
   246 Broy./Diag. 0.40E+00   24.3     1.91751976     -1086.2987266328 -2.44E+01
   247 Broy./Diag. 0.40E+00   24.5     1.91868128     -1080.5032803305  5.80E+00
   248 Broy./Diag. 0.40E+00   24.2     1.94932702     -1068.0173949507  1.25E+01
   249 Broy./Diag. 0.40E+00   24.5     1.91416932     -1078.3272071812 -1.03E+01
   250 Broy./Diag. 0.40E+00   24.2     1.87364535     -1071.6533563115  6.67E+00
   251 Broy./Diag. 0.40E+00   24.2     1.89696518     -1072.3444280546 -6.91E-01
   252 Broy./Diag. 0.40E+00   23.8     1.93351719     -1078.3765098066 -6.03E+00
   253 Broy./Diag. 0.40E+00   23.0     1.86381142     -1076.7793910590  1.60E+00
   254 Broy./Diag. 0.40E+00   21.4     1.90131902     -1074.9951929677  1.78E+00
   255 Broy./Diag. 0.40E+00   24.4     1.89044120     -1078.6690545465 -3.67E+00
   256 Broy./Diag. 0.40E+00   24.7     1.94469030     -1066.1405045276  1.25E+01
   257 Broy./Diag. 0.40E+00   24.4     1.96974881     -1069.8744256058 -3.73E+00
   258 Broy./Diag. 0.40E+00   24.5     1.88974074     -1079.4112211468 -9.54E+00
   259 Broy./Diag. 0.40E+00   24.5     1.87299413     -1081.8789771385 -2.47E+00
   260 Broy./Diag. 0.40E+00   24.3     1.88273963     -1064.8985739350  1.70E+01
   261 Broy./Diag. 0.40E+00   24.0     1.94500093     -1083.7210315846 -1.88E+01
   262 Broy./Diag. 0.40E+00   24.3     1.94498292     -1066.8594455157  1.69E+01
   263 Broy./Diag. 0.40E+00   24.4     1.92912501     -1070.8958983714 -4.04E+00
   264 Broy./Diag. 0.40E+00   24.5     1.90249797     -1075.0779673873 -4.18E+00
   265 Broy./Diag. 0.40E+00   24.7     1.82886111     -1077.9749116949 -2.90E+00
   266 Broy./Diag. 0.40E+00   24.3     1.95782184     -1069.5568294708  8.42E+00
   267 Broy./Diag. 0.40E+00   24.2     1.91075146     -1083.1816668914 -1.36E+01
   268 Broy./Diag. 0.40E+00   23.9     1.95075054     -1074.2305028493  8.95E+00
   269 Broy./Diag. 0.40E+00   24.1     1.82755994     -1075.2328653529 -1.00E+00
   270 Broy./Diag. 0.40E+00   23.7     1.89599537     -1074.4347899653  7.98E-01
   271 Broy./Diag. 0.40E+00   23.3     1.93092523     -1068.8552195106  5.58E+00
   272 Broy./Diag. 0.40E+00   24.0     1.88584774     -1072.4846050001 -3.63E+00
   273 Broy./Diag. 0.40E+00   24.6     1.88827443     -1085.2450940982 -1.28E+01
   274 Broy./Diag. 0.40E+00   22.8     1.88891661     -1065.1189091590  2.01E+01
   275 Broy./Diag. 0.40E+00   24.0     1.92963179     -1079.9877236472 -1.49E+01
   276 Broy./Diag. 0.40E+00   23.7     1.79858433     -1077.3056097257  2.68E+00
   277 Broy./Diag. 0.40E+00   24.1     1.84178920     -1062.5860158847  1.47E+01
   278 Broy./Diag. 0.40E+00   23.8     1.88245340     -1075.8765913907 -1.33E+01
   279 Broy./Diag. 0.40E+00   24.3     1.92601068     -1069.6534160328  6.22E+00
   280 Broy./Diag. 0.40E+00   24.8     1.92759821     -1074.9907995529 -5.34E+00
   281 Broy./Diag. 0.40E+00   24.0     1.95098362     -1074.2136542000  7.77E-01
   282 Broy./Diag. 0.40E+00   25.1     1.94961757     -1076.8864091281 -2.67E+00
   283 Broy./Diag. 0.40E+00   25.1     1.93416937     -1068.2155486358  8.67E+00
   284 Broy./Diag. 0.40E+00   24.3     1.87324749     -1077.4227261370 -9.21E+00
   285 Broy./Diag. 0.40E+00   23.4     1.95718684     -1073.4954149322  3.93E+00
   286 Broy./Diag. 0.40E+00   23.8     1.89272269     -1074.8835027052 -1.39E+00
   287 Broy./Diag. 0.40E+00   23.6     1.92669482     -1067.1469387743  7.74E+00
   288 Broy./Diag. 0.40E+00   24.0     1.91478147     -1076.0719473281 -8.93E+00
   289 Broy./Diag. 0.40E+00   24.3     1.83601108     -1066.1477446949  9.92E+00
   290 Broy./Diag. 0.40E+00   21.9     1.86456857     -1072.8987194709 -6.75E+00
   291 Broy./Diag. 0.40E+00   23.8     1.90286088     -1076.3770798985 -3.48E+00
   292 Broy./Diag. 0.40E+00   23.2     1.95364357     -1078.9485147930 -2.57E+00
   293 Broy./Diag. 0.40E+00   23.9     1.84662324     -1072.6629574134  6.29E+00
   294 Broy./Diag. 0.40E+00   23.6     1.87033171     -1071.3965545104  1.27E+00
   295 Broy./Diag. 0.40E+00   23.6     1.92434125     -1072.7699317281 -1.37E+00
   296 Broy./Diag. 0.40E+00   23.8     1.86514593     -1081.2549497684 -8.49E+00
   297 Broy./Diag. 0.40E+00   23.3     1.91025025     -1070.2538922091  1.10E+01
   298 Broy./Diag. 0.40E+00   24.2     1.97233045     -1079.6816110316 -9.43E+00
   299 Broy./Diag. 0.40E+00   24.4     1.84907560     -1064.9320765723  1.47E+01
   300 Broy./Diag. 0.40E+00   24.2     1.89535147     -1082.1871289810 -1.73E+01

  Leaving inner SCF loop after reaching   300 steps.


  Electronic density on regular grids:       -511.9999429552        0.0000570448
  Core density on regular grids:              512.0000015967        0.0000015967
  Total charge density on r-space grids:        0.0000586415
  Total charge density g-space grids:           0.0000586415

  Overlap energy of the core charge distribution:               0.00000000000000
  Self energy of the core charge distribution:              -2838.21791979120962
  Core Hamiltonian energy:                                    754.06223785647398
  Hartree energy:                                            1239.79358898820260
  Exchange-correlation energy:                               -237.82503603443431

  Total energy:                                             -1082.18712898096737

 *** WARNING in qs_scf.F:542 :: SCF run NOT converged ***


 ENERGY| Total FORCE_EVAL ( QS ) energy (a.u.):            -1057.370508534551618


 ATOMIC FORCES in [a.u.]

 # Atom   Kind   Element          X              Y              Z
      1      1      O          -0.05838128     0.03677012    -0.12055370
      2      2      H           0.02779315    -0.03774626    -0.01316382
      3      2      H          -0.00301557     0.07335797     0.03261333
      4      1      O           0.04632435    -0.01046185    -0.01981993
      5      2      H          -0.03763464    -0.03129237    -0.02489060
      6      2      H          -0.03512783    -0.07538765     0.01556224
      7      1      O          -0.06155975     0.05185836     0.14455815
      8      2      H           0.09489842    -0.07034915     0.01855099
      9      2      H          -0.02877784    -0.00876405    -0.06010160
     10      1      O           0.01238666    -0.02250724    -0.06751142
     11      2      H          -0.06910100     0.02253810     0.03828320
     12      2      H           0.01355578    -0.03844889     0.06056590
     13      1      O          -0.07972849     0.05427549    -0.02190382
     14      2      H           0.04361082    -0.05149351    -0.02628850
     15      2      H           0.01042285     0.04822027     0.01191791
     16      1      O          -0.03823163     0.07431882    -0.07300624
     17      2      H           0.03206880    -0.02816152    -0.01038820
     18      2      H          -0.03330616    -0.04786496     0.10400719
     19      1      O           0.15121200     0.20799605     0.10378225
     20      2      H          -0.14852206    -0.17726935    -0.11612091
     21      2      H           0.00531635    -0.02001112    -0.03211038
     22      1      O          -0.00174510    -0.01109086    -0.03553103
     23      2      H           0.03059535    -0.06611884    -0.02708899
     24      2      H          -0.03255858    -0.00594503     0.06526802
     25      1      O          -0.00167044    -0.11471133     0.02631553
     26      2      H           0.04461585     0.06118644     0.01190531
     27      2      H          -0.06126580     0.06288736    -0.03487426
     28      1      O           0.03055866     0.08210582     0.05882646
     29      2      H           0.05411487    -0.03940037    -0.00708458
     30      2      H          -0.03465856     0.00876901     0.04289895
     31      1      O           0.08187864     0.00016766    -0.08256971
     32      2      H          -0.02713721     0.08406357     0.03101413
     33      2      H          -0.06929577    -0.07556419    -0.03867131
     34      1      O           0.00803434    -0.03649613    -0.02528137
     35      2      H           0.04442446    -0.01077672     0.03794746
     36      2      H          -0.03185336    -0.01517780     0.02795628
     37      1      O           0.03972873     0.07876159    -0.08843624
     38      2      H           0.02915235    -0.00429071     0.04681008
     39      2      H          -0.01019157    -0.00809751    -0.04272607
     40      1      O          -0.00842387     0.09095072    -0.31435288
     41      2      H           0.00559213    -0.07025594     0.24917977
     42      2      H          -0.00951452     0.01741597    -0.01742631
     43      1      O          -0.02174837     0.00990323     0.03305224
     44      2      H           0.02924718     0.03364001    -0.04838007
     45      2      H          -0.00079353     0.03156870     0.03268264
     46      1      O           0.04736649     0.09198786    -0.12449177
     47      2      H          -0.07501343     0.03793794    -0.03112609
     48      2      H          -0.00660859    -0.09598794     0.02204027
     49      1      O          -0.03894646    -0.03337144     0.08665448
     50      2      H           0.02568384     0.02175928    -0.01899039
     51      2      H           0.00504576     0.00545908     0.01727134
     52      1      O           0.04072356    -0.12861984     0.07018132
     53      2      H          -0.04104814     0.00025279     0.03096292
     54      2      H           0.03806071     0.05307839     0.06571312
     55      1      O          -0.05697898    -0.02730016    -0.06233423
     56      2      H           0.01395158    -0.02982694    -0.02042983
     57      2      H           0.01997363    -0.01274559     0.04041988
     58      1      O           0.03976528    -0.02629339     0.07183080
     59      2      H          -0.07417233     0.03236407    -0.00906415
     60      2      H           0.03358223     0.03258807     0.04569211
     61      1      O           0.02725286    -0.06321618    -0.12095084
     62      2      H          -0.07780717     0.00689558     0.03499522
     63      2      H           0.03949493     0.03396907     0.05600517
     64      1      O          -0.04540241     0.14153378     0.09047981
     65      2      H           0.04600543    -0.05222046     0.04187436
     66      2      H          -0.04901580    -0.00603611    -0.07022224
     67      1      O          -0.03115273    -0.00472348    -0.18275043
     68      2      H          -0.05424411    -0.01798746     0.10655449
     69      2      H           0.06586990    -0.04836675     0.04176031
     70      1      O           0.04417803    -0.03750505    -0.09635048
     71      2      H          -0.00062375     0.05602316     0.04300595
     72      2      H          -0.06464869    -0.02370426     0.00064426
     73      1      O           0.04911233    -0.10432905    -0.08820693
     74      2      H           0.02384671     0.00360266    -0.07286190
     75      2      H          -0.02014768     0.00269417     0.06237598
     76      1      O           0.03187942     0.03764591    -0.18610706
     77      2      H           0.01172128     0.03019435     0.04164571
     78      2      H          -0.04177649    -0.06889019     0.10107698
     79      1      O          -0.00359129    -0.01264655     0.02430893
     80      2      H          -0.04878750     0.01566601     0.01357353
     81      2      H           0.01603042     0.01704084     0.01226838
     82      1      O           0.09264116    -0.02110554     0.07599020
     83      2      H          -0.05874985     0.01949267    -0.11046685
     84      2      H          -0.03024284     0.00982898     0.03965773
     85      1      O          -0.02992788    -0.11402446     0.08799383
     86      2      H           0.00924331     0.07766217    -0.02516109
     87      2      H           0.02534375    -0.02449085     0.00546727
     88      1      O           0.03155252    -0.03675758    -0.03661315
     89      2      H          -0.02376172     0.04666124     0.04448020
     90      2      H           0.01130541    -0.05363318     0.03434966
     91      1      O          -0.01514499    -0.04825525     0.01936647
     92      2      H           0.01703423     0.04523556    -0.02092414
     93      2      H          -0.01516918    -0.01812854     0.05065991
     94      1      O          -0.05496331     0.07184667     0.03929217
     95      2      H           0.03213375     0.00048919    -0.03038341
     96      2      H           0.02336488     0.05591413     0.01993473
     97      1      O          -0.08193670    -0.05776371    -0.10288153
     98      2      H           0.07904448     0.02085699     0.01438122
     99      2      H          -0.03935386     0.07374707     0.04045997
    100      1      O           0.00221877    -0.02174056    -0.08727569
    101      2      H          -0.00111588    -0.02204006    -0.01955939
    102      2      H           0.01927810    -0.04856630     0.05523977
    103      1      O          -0.01946069    -0.01898968     0.00349878
    104      2      H           0.00128587     0.07543109    -0.00542029
    105      2      H           0.01661813    -0.07069888    -0.02986659
    106      1      O          -0.06247928     0.01540394    -0.08146416
    107      2      H           0.05301242    -0.00852034     0.04628038
    108      2      H          -0.02564142    -0.04764397     0.02291293
    109      1      O           0.06769534    -0.03335615     0.05160086
    110      2      H          -0.06345326    -0.08284386    -0.05103337
    111      2      H          -0.02319154     0.06864031     0.09911171
    112      1      O           0.03626737    -0.07557051    -0.08331139
    113      2      H           0.00671516    -0.02827670     0.11183025
    114      2      H          -0.05170736     0.07125978    -0.05461953
    115      1      O          -0.04577433    -0.08460306     0.03537807
    116      2      H           0.01235731     0.03103371     0.09580978
    117      2      H           0.02186998     0.00737579    -0.04395571
    118      1      O           0.03350064     0.02225645    -0.11418366
    119      2      H          -0.02173131     0.07703516    -0.01965637
    120      2      H          -0.00877060    -0.05926760     0.00476827
    121      1      O          -0.04184814     0.07019933    -0.00088813
    122      2      H           0.03792019     0.05902538     0.00467662
    123      2      H          -0.01716254    -0.00747472     0.02718267
    124      1      O           0.04259821     0.00817186    -0.03363706
    125      2      H          -0.05891055     0.01180766    -0.08063489
    126      2      H          -0.00204019    -0.07446227     0.04388896
    127      1      O          -0.00612056     0.13377418    -0.00880885
    128      2      H          -0.07254790    -0.01968638    -0.09229822
    129      2      H           0.06265048    -0.04099118    -0.04453671
    130      1      O           0.09054725     0.02998949     0.08504636
    131      2      H          -0.03151227    -0.03687044    -0.08468589
    132      2      H          -0.03200261    -0.00027521     0.07489712
    133      1      O           0.07774928    -0.02877785    -0.14120623
    134      2      H          -0.00859467    -0.02165480    -0.00873940
    135      2      H          -0.05005333     0.00898031     0.01197631
    136      1      O          -0.07475822     0.01348531    -0.06782121
    137      2      H          -0.00930060    -0.03625922    -0.07939725
    138      2      H           0.05477973     0.05212730    -0.03024738
    139      1      O           0.00309523    -0.01590702    -0.09135712
    140      2      H          -0.03417803     0.03939359     0.06725066
    141      2      H           0.02304268    -0.07807325     0.00748808
    142      1      O           0.04054182    -0.03473705    -0.11581248
    143      2      H           0.01047326    -0.03063674    -0.03900664
    144      2      H          -0.01401251     0.05850279    -0.03863710
    145      1      O           0.02723369    -0.04368842     0.11132297
    146      2      H          -0.06608621    -0.00282277     0.03341847
    147      2      H           0.05596182     0.07719803     0.02751297
    148      1      O           0.00842753     0.07244078    -0.16065747
    149      2      H           0.04378979     0.05508320    -0.00410561
    150      2      H           0.00023147    -0.05938368     0.06052044
    151      1      O          -0.02247013    -0.03846173    -0.14798753
    152      2      H           0.00352482     0.02039869     0.04447928
    153      2      H           0.01074264     0.01108853     0.02695771
    154      1      O           0.05150512    -0.07942334     0.08966923
    155      2      H          -0.03448917     0.02504492    -0.02640575
    156      2      H          -0.01616460     0.08903678     0.02395924
    157      1      O           0.07376096    -0.02862162    -0.08894625
    158      2      H          -0.02871699     0.02542304     0.02552613
    159      2      H          -0.01847862    -0.07526664     0.02838231
    160      1      O          -0.00158321     0.10983072    -0.09125973
    161      2      H           0.00051211    -0.03135392    -0.03663886
    162      2      H          -0.04833919    -0.04394365     0.06486755
    163      1      O          -0.03069510    -0.06007766    -0.03984444
    164      2      H           0.00022247     0.03158606     0.05603875
    165      2      H           0.03286291     0.05273667    -0.05921089
    166      1      O           0.02320165    -0.09225879     0.03079354
    167      2      H          -0.00384810    -0.02545170     0.04867774
    168      2      H          -0.02319253     0.02280931     0.02392991
    169      1      O          -0.02041467     0.00132921     0.06022145
    170      2      H           0.02482620    -0.01546642     0.01783469
    171      2      H           0.02829146    -0.00570146     0.02459358
    172      1      O          -0.01821089     0.01696851    -0.08459057
    173      2      H           0.03701625    -0.00652782     0.04316998
    174      2      H          -0.03296094    -0.05185579    -0.00732831
    175      1      O           0.22435302    -0.05758802     0.08386340
    176      2      H           0.00742343     0.00304798    -0.04314122
    177      2      H          -0.24352662     0.03899328    -0.13859826
    178      1      O           0.02395618    -0.01928783     0.08967955
    179      2      H           0.00967989     0.01502256     0.02316723
    180      2      H          -0.01007325     0.05078900    -0.05384003
    181      1      O          -0.04561135     0.04010341     0.09698275
    182      2      H           0.02772599     0.00438588    -0.09926140
    183      2      H           0.03139495    -0.06307128     0.05169765
    184      1      O          -0.03948340    -0.04284640     0.03949743
    185      2      H           0.03422310     0.04952835     0.00644079
    186      2      H          -0.01667533    -0.09572121     0.00117954
    187      1      O           0.00143054     0.08660310     0.03083033
    188      2      H           0.04655065    -0.01464645    -0.00666408
    189      2      H          -0.05492222     0.00379686    -0.06023398
    190      1      O          -0.02028393    -0.09486193     0.12245281
    191      2      H           0.00828127     0.00574994    -0.03079278
    192      2      H           0.00238163     0.06208599     0.00717678
 SUM OF ATOMIC FORCES          -0.22558469    -0.32370846    -0.45541780     0.60256203

 -------------------------------------------------------------------------------
 -                                                                             -
 -                                DBCSR STATISTICS                             -
 -                                                                             -
 -------------------------------------------------------------------------------
 COUNTER                                    TOTAL       BLAS       SMM       ACC
 flops     5 x     5 x   256           2215360000       0.0%    100.0%      0.0%
 flops     5 x    13 x   256           2524354560       0.0%    100.0%      0.0%
 flops    13 x     5 x   256           2544389120       0.0%    100.0%      0.0%
 flops    13 x    13 x   256           4010918912       0.0%    100.0%      0.0%
 flops inhomo. stacks                           0       0.0%      0.0%      0.0%
 flops total                        11.295023E+09       0.0%    100.0%      0.0%
 flops max/rank                     11.295023E+09       0.0%    100.0%      0.0%
 matmuls inhomo. stacks                         0       0.0%      0.0%      0.0%
 matmuls total                             371735       0.0%    100.0%      0.0%
 number of processed stacks                 42140       0.0%    100.0%      0.0%
 average stack size                                     0.0       8.8       0.0
 marketing flops                   333.927416E+09
 -------------------------------------------------------------------------------
 # multiplications                            301
 max memory usage/rank              30.542664E+09
 # max total images/rank                        1
 # max 3D layers                                1
 # MPI messages exchanged                       0
 MPI messages size (bytes):
  total size                         0.000000E+00
  min size                           0.000000E+00
  max size                           0.000000E+00
  average size                       0.000000E+00
 MPI breakdown and total messages size (bytes):
             size <=      128                   0                        0
       128 < size <=     8192                   0                        0
      8192 < size <=    32768                   0                        0
     32768 < size <=   131072                   0                        0
    131072 < size <=  4194304                   0                        0
   4194304 < size <= 16777216                   0                        0
  16777216 < size                               0                        0
 -------------------------------------------------------------------------------

 MEMORY| Estimated peak process memory [MiB]                               29131

 -------------------------------------------------------------------------------
 -                                                                             -
 -                           R E F E R E N C E S                               -
 -                                                                             -
 -------------------------------------------------------------------------------
 
 CP2K version 7.1, the CP2K developers group (2019).
 CP2K is freely available from https://www.cp2k.org/ .

 Schuett, Ole; Messmer, Peter; Hutter, Juerg; VandeVondele, Joost. 
 Electronic Structure Calculations on Graphics Processing Units, John
 Wiley & Sons, Ltd, 173-190 (2016). 
 GPU-Accelerated Sparse Matrix-Matrix Multiplication for
 Linear Scaling Density Functional Theory.
 https://dx.doi.org/10.1002/9781118670712.ch8

 Borstnik, U; VandeVondele, J; Weber, V; Hutter, J. 
 PARALLEL COMPUTING, 40 (5-6), 47-58 (2014). 
 Sparse matrix multiplication: The distributed block-compressed sparse
 row library.
 https://dx.doi.org/10.1016/j.parco.2014.03.012

 Hutter, J; Iannuzzi, M; Schiffmann, F; VandeVondele, J. 
 WIREs Comput Mol Sci., 4 (1), 15-25 (2014). 
 CP2K: atomistic simulations of condensed matter systems.
 https://dx.doi.org/10.1002/wcms.1159

 Krack, M. 
 THEORETICAL CHEMISTRY ACCOUNTS, 114 (1-3), 145-152 (2005). 
 Pseudopotentials for H to Kr optimized for gradient-corrected
 exchange-correlation functionals.
 https://dx.doi.org/10.1007/s00214-005-0655-y

 VandeVondele, J; Krack, M; Mohamed, F; Parrinello, M; Chassaing, T;
 Hutter, J. COMPUTER PHYSICS COMMUNICATIONS, 167 (2), 103-128 (2005). 
 QUICKSTEP: Fast and accurate density functional calculations using a
 mixed Gaussian and plane waves approach.
 https://dx.doi.org/10.1016/j.cpc.2004.12.014

 Frigo, M; Johnson, SG. 
 PROCEEDINGS OF THE IEEE, 93 (2), 216-231 (2005). 
 The design and implementation of FFTW3.
 https://dx.doi.org/10.1109/JPROC.2004.840301

 Hartwigsen, C; Goedecker, S; Hutter, J. 
 PHYSICAL REVIEW B, 58 (7), 3641-3662 (1998). 
 Relativistic separable dual-space Gaussian pseudopotentials from H to Rn.
 https://dx.doi.org/10.1103/PhysRevB.58.3641

 Lippert, G; Hutter, J; Parrinello, M. 
 MOLECULAR PHYSICS, 92 (3), 477-487 (1997). 
 A hybrid Gaussian and plane wave density functional scheme.
 https://dx.doi.org/10.1080/002689797170220

 Goedecker, S; Teter, M; Hutter, J. 
 PHYSICAL REVIEW B, 54 (3), 1703-1710 (1996). 
 Separable dual-space Gaussian pseudopotentials.
 https://dx.doi.org/10.1103/PhysRevB.54.1703


 -------------------------------------------------------------------------------
 -                                                                             -
 -                                T I M I N G                                  -
 -                                                                             -
 -------------------------------------------------------------------------------
 SUBROUTINE                       CALLS  ASD         SELF TIME        TOTAL TIME
                                MAXIMUM       AVERAGE  MAXIMUM  AVERAGE  MAXIMUM
 CP2K                                 1  1.0    0.967    0.967 6990.917 6990.917
 qs_forces                            1  2.0    0.000    0.000 6979.832 6979.832
 qs_energies                          1  3.0    0.000    0.000 6975.789 6975.789
 scf_env_do_scf                       1  4.0    0.001    0.001 6964.384 6964.384
 scf_env_do_scf_inner_loop          300  5.0    0.047    0.047 6964.383 6964.383
 gspace_mixing                      299  6.0   42.186   42.186 2941.379 2941.379
 broyden_mixing                     299  7.0 2655.399 2655.399 2655.403 2655.403
 qs_scf_new_mos                     300  6.0    0.008    0.008 1826.538 1826.538
 eigensolver                        300  7.0    0.032    0.032 1773.912 1773.912
 cp_fm_syevd                        300  8.0 1231.296 1231.296 1232.359 1232.359
 pw_transfer                       3912  9.9    0.381    0.381 1160.765 1160.765
 rebuild_ks_matrix                  301  7.0    0.001    0.001 1137.256 1137.256
 qs_ks_build_kohn_sham_matrix       301  8.0    0.108    0.108 1137.255 1137.255
 qs_ks_update_qs_env                300  6.0    0.004    0.004 1133.477 1133.477
 fft_wrap_pw1pw2                   3310 10.9    0.053    0.053 1130.863 1130.863
 qs_rho_update_rho                  301  6.0    0.005    0.005 1063.786 1063.786
 calculate_rho_elec                 301  7.0  535.316  535.316 1063.781 1063.781
 fft_wrap_pw1pw2_70                1504 11.2   88.366   88.366 1030.960 1030.960
 fft3d_s                           3311 12.9  540.901  540.901  540.935  540.935
 cp_fm_cholesky_restore             900  8.0  540.456  540.456  540.456  540.456
 density_rs2pw                      301  8.0    0.031    0.031  520.154  520.154
 pw_scatter_s                      1804 13.2  409.506  409.506  409.506  409.506
 pw_poisson_solve                   301  9.0  331.345  331.345  361.215  361.215
 sum_up_and_integrate               301  9.0   18.081   18.081  321.706  321.706
 integrate_v_rspace                 301 10.0    8.810    8.810  303.625  303.625
 potential_pw2rs                    301 11.0    2.536    2.536  278.337  278.337
 qs_vxc_create                      301  9.0    0.009    0.009  164.016  164.016
 xc_vxc_pw_create                   301 10.0   42.367   42.367  164.007  164.007
 -------------------------------------------------------------------------------

 The number of warnings for this run is : 1
 
 -------------------------------------------------------------------------------
  **** **** ******  **  PROGRAM ENDED AT                 2020-05-27 09:45:11.264
 ***** ** ***  *** **   PROGRAM RAN ON                                   gnode44
 **    ****   ******    PROGRAM RAN BY                               mayank.modi
 ***** **    ** ** **   PROGRAM PROCESS ID                                 34356
  **** **  *******  **  PROGRAM STOPPED IN /home/mayank.modi/ab-initio-thermodyn
                                           amics-of-water/mayank/cp2k_energy_cal
                                           culations
