 DBCSR| CPU Multiplication driver                                           XSMM
 DBCSR| Multrec recursion limit                                              512
 DBCSR| Multiplication stack size                                           1000
 DBCSR| Maximum elements for images                                    UNLIMITED
 DBCSR| Multiplicative factor virtual images                                   1
 DBCSR| Use multiplication densification                                       T
 DBCSR| Multiplication size stacks                                             3


  **** **** ******  **  PROGRAM STARTED AT               2020-05-29 11:06:07.821
 ***** ** ***  *** **   PROGRAM STARTED ON                               gnode44
 **    ****   ******    PROGRAM STARTED BY                           mayank.modi
 ***** **    ** ** **   PROGRAM PROCESS ID                                 31809
  **** **  *******  **  PROGRAM STARTED IN /home/mayank.modi/ab-initio-thermodyn
                                           amics-of-water/mayank/cp2k_energy_cal
                                           culations

 CP2K| version string:                                          CP2K version 7.1
 CP2K| source code revision number:                                  git:e635599
 CP2K| cp2kflags: omp libint fftw3 libxc xsmm spglib                            
 CP2K| is freely available from                            https://www.cp2k.org/
 CP2K| Program compiled at                          Mon Dec 23 19:23:12 CET 2019
 CP2K| Program compiled on                                                pc9404
 CP2K| Program compiled for                                Linux-x86-64-gfortran
 CP2K| Data directory path                                        /opt/cp2k/data
 CP2K| Input file name                                 input_training/input34.in

 GLOBAL| Force Environment number                                              1
 GLOBAL| Basis set file name                                           BASIS_SET
 GLOBAL| Potential file name                                      GTH_POTENTIALS
 GLOBAL| MM Potential file name                                     MM_POTENTIAL
 GLOBAL| Coordinate file name                                      __STD_INPUT__
 GLOBAL| Method name                                                        CP2K
 GLOBAL| Project name                                                   H2O_bulk
 GLOBAL| Preferred FFT library                                             FFTW3
 GLOBAL| Preferred diagonalization lib.                                       SL
 GLOBAL| Run type                                                   ENERGY_FORCE
 GLOBAL| All-to-all communication in single precision                          F
 GLOBAL| FFTs using library dependent lengths                                  F
 GLOBAL| Global print level                                                  LOW
 GLOBAL| MPI I/O enabled                                                       T
 GLOBAL| Total number of message passing processes                             1
 GLOBAL| Number of threads for this process                                   36
 GLOBAL| This output is from process                                           0
 GLOBAL| CPU model name                Intel(R) Xeon(R) CPU E5-2640 v4 @ 2.40GHz
 GLOBAL| CPUID                                                              1002
 GLOBAL| Compiled for CPUID                                                    0

 MEMORY| system memory details [Kb]
 MEMORY|                        rank 0           min           max       average
 MEMORY| MemTotal            131893056     131893056     131893056     131893056
 MEMORY| MemFree             119060536     119060536     119060536     119060536
 MEMORY| Buffers               2124620       2124620       2124620       2124620
 MEMORY| Cached                3184980       3184980       3184980       3184980
 MEMORY| Slab                  3309364       3309364       3309364       3309364
 MEMORY| SReclaimable          3100976       3100976       3100976       3100976
 MEMORY| MemLikelyFree       127471112     127471112     127471112     127471112


 GENERATE| WARNING:: No connections detected for Hydrogen - Atom Nr:       162 !
 GENERATE|  Preliminary Number of Bonds generated:                             0
 GENERATE|  Achieved consistency in connectivity generation.

 *******************************************************************************
 *******************************************************************************
 **                                                                           **
 **     #####                         ##              ##                      **
 **    ##   ##            ##          ##              ##                      **
 **   ##     ##                       ##            ######                    **
 **   ##     ##  ##   ##  ##   #####  ##  ##   ####   ##    #####    #####    **
 **   ##     ##  ##   ##  ##  ##      ## ##   ##      ##   ##   ##  ##   ##   **
 **   ##  ## ##  ##   ##  ##  ##      ####     ###    ##   ######   ######    **
 **    ##  ###   ##   ##  ##  ##      ## ##      ##   ##   ##       ##        **
 **     #######   #####   ##   #####  ##  ##  ####    ##    #####   ##        **
 **           ##                                                    ##        **
 **                                                                           **
 **                                                ... make the atoms dance   **
 **                                                                           **
 **            Copyright (C) by CP2K developers group (2000 - 2019)           **
 **                                                                           **
 *******************************************************************************


 TOTAL NUMBERS AND MAXIMUM NUMBERS

  Total number of            - Atomic kinds:                                   2
                             - Atoms:                                        192
                             - Shell sets:                                   384
                             - Shells:                                       704
                             - Primitive Cartesian functions:                960
                             - Cartesian basis functions:                   1536
                             - Spherical basis functions:                   1472

  Maximum angular momentum of- Orbital basis functions:                        2
                             - Local part of the GTH pseudopotential:          2
                             - Non-local part of the GTH pseudopotential:      0


 SCF PARAMETERS         Density guess:                                    ATOMIC
                        --------------------------------------------------------
                        max_scf:                                             300
                        max_scf_history:                                       0
                        max_diis:                                              4
                        --------------------------------------------------------
                        eps_scf:                                        1.00E-07
                        eps_scf_history:                                0.00E+00
                        eps_diis:                                       1.00E-01
                        eps_eigval:                                     1.00E-05
                        --------------------------------------------------------
                        level_shift [a.u.]:                                 0.00
                        --------------------------------------------------------
                        Mixing method:                            BROYDEN_MIXING
                                                charge density mixing in g-space
                        --------------------------------------------------------
                        No outer SCF

 Number of electrons:                                                        512
 Number of occupied orbitals:                                                256
 Number of molecular orbitals:                                               256

 Number of orbital functions:                                               1472
 Number of independent orbital functions:                                   1472

 Extrapolation method: initial_guess


 SCF WAVEFUNCTION OPTIMIZATION

  Step     Update method      Time    Convergence         Total energy    Change
  ------------------------------------------------------------------------------
     1 NoMix/Diag. 0.40E+00   10.7     0.68793947     -1064.0286447493 -1.06E+03
     2 Broy./Diag. 0.40E+00   15.5     1.87107241      -993.4569032285  7.06E+01
     3 Broy./Diag. 0.40E+00   16.6     1.88559750     -1271.9224206194 -2.78E+02
     4 Broy./Diag. 0.40E+00   18.2     1.82142656     -1123.9564618200  1.48E+02
     5 Broy./Diag. 0.40E+00   18.9     1.64927130     -1099.3027844284  2.47E+01
     6 Broy./Diag. 0.40E+00   18.5     1.69887989     -1103.6079487099 -4.31E+00
     7 Broy./Diag. 0.40E+00   18.9     1.78041863     -1100.9920501010  2.62E+00
     8 Broy./Diag. 0.40E+00   20.8     1.62799788     -1087.4386103330  1.36E+01
     9 Broy./Diag. 0.40E+00   22.2     1.14398051     -1076.1769079307  1.13E+01
    10 Broy./Diag. 0.40E+00   24.3     1.54818453     -1073.9604268360  2.22E+00
    11 Broy./Diag. 0.40E+00   24.1     1.69604568     -1077.8480918278 -3.89E+00
    12 Broy./Diag. 0.40E+00   23.8     1.60353054     -1075.3251408367  2.52E+00
    13 Broy./Diag. 0.40E+00   24.2     1.73148201     -1065.9459299798  9.38E+00
    14 Broy./Diag. 0.40E+00   24.4     1.68327168     -1075.9325615611 -9.99E+00
    15 Broy./Diag. 0.40E+00   24.4     1.49875389     -1073.1544787799  2.78E+00
    16 Broy./Diag. 0.40E+00   24.4     1.58250226     -1077.9071029018 -4.75E+00
    17 Broy./Diag. 0.40E+00   23.9     1.50387101     -1078.5713443436 -6.64E-01
    18 Broy./Diag. 0.40E+00   25.3     1.59944119     -1077.8476307325  7.24E-01
    19 Broy./Diag. 0.40E+00   24.3     1.53005980     -1074.4474425018  3.40E+00
    20 Broy./Diag. 0.40E+00   23.8     1.61675637     -1077.5945522790 -3.15E+00
    21 Broy./Diag. 0.40E+00   23.9     1.38311781     -1074.6534490429  2.94E+00
    22 Broy./Diag. 0.40E+00   24.3     1.62016592     -1076.1556621313 -1.50E+00
    23 Broy./Diag. 0.40E+00   24.4     1.75462405     -1072.9014318461  3.25E+00
    24 Broy./Diag. 0.40E+00   24.6     1.53673951     -1079.4003513300 -6.50E+00
    25 Broy./Diag. 0.40E+00   23.5     1.67536476     -1075.8557202954  3.54E+00
    26 Broy./Diag. 0.40E+00   24.4     1.67421651     -1072.5228663910  3.33E+00
    27 Broy./Diag. 0.40E+00   24.4     1.65535375     -1079.5773141676 -7.05E+00
    28 Broy./Diag. 0.40E+00   24.5     1.69629870     -1078.3764424197  1.20E+00
    29 Broy./Diag. 0.40E+00   24.2     1.71464092     -1076.0890835282  2.29E+00
    30 Broy./Diag. 0.40E+00   24.5     1.80777757     -1073.7882686527  2.30E+00
    31 Broy./Diag. 0.40E+00   24.5     1.28496590     -1073.2134653534  5.75E-01
    32 Broy./Diag. 0.40E+00   24.2     1.28496240     -1076.8178850116 -3.60E+00
    33 Broy./Diag. 0.40E+00   25.7     1.52415001     -1072.2745389830  4.54E+00
    34 Broy./Diag. 0.40E+00   24.7     1.56826634     -1080.5472949351 -8.27E+00
    35 Broy./Diag. 0.40E+00   24.3     1.63464525     -1078.7365443902  1.81E+00
    36 Broy./Diag. 0.40E+00   24.6     1.49451030     -1078.4703487835  2.66E-01
    37 Broy./Diag. 0.40E+00   24.6     1.62895747     -1075.3404694448  3.13E+00
    38 Broy./Diag. 0.40E+00   24.7     1.74962930     -1076.9562018862 -1.62E+00
    39 Broy./Diag. 0.40E+00   24.4     1.68591438     -1076.2515045648  7.05E-01
    40 Broy./Diag. 0.40E+00   24.2     1.30515899     -1075.5561089941  6.95E-01
    41 Broy./Diag. 0.40E+00   24.5     1.27642169     -1073.9826866283  1.57E+00
    42 Broy./Diag. 0.40E+00   24.3     1.27632486     -1075.1402635818 -1.16E+00
    43 Broy./Diag. 0.40E+00   24.5     1.57094245     -1071.8269042550  3.31E+00
    44 Broy./Diag. 0.40E+00   25.1     1.59498483     -1081.5386806486 -9.71E+00
    45 Broy./Diag. 0.40E+00   24.7     1.56176363     -1075.3949317812  6.14E+00
    46 Broy./Diag. 0.40E+00   24.4     1.59383215     -1075.8952081564 -5.00E-01
    47 Broy./Diag. 0.40E+00   22.5     1.67317737     -1076.5028091520 -6.08E-01
    48 Broy./Diag. 0.40E+00   22.8     1.74052976     -1074.6431936267  1.86E+00
    49 Broy./Diag. 0.40E+00   24.4     1.60979313     -1073.8848771651  7.58E-01
    50 Broy./Diag. 0.40E+00   24.6     1.64080241     -1071.2280978851  2.66E+00
    51 Broy./Diag. 0.40E+00   24.3     1.67786258     -1078.1762356385 -6.95E+00
    52 Broy./Diag. 0.40E+00   24.3     1.42227618     -1076.7637722827  1.41E+00
    53 Broy./Diag. 0.40E+00   24.2     1.28914923     -1078.4770940389 -1.71E+00
    54 Broy./Diag. 0.40E+00   25.6     1.64263787     -1076.1507430474  2.33E+00
    55 Broy./Diag. 0.40E+00   23.9     1.53532787     -1078.3435686862 -2.19E+00
    56 Broy./Diag. 0.40E+00   24.2     1.63497791     -1075.3281894060  3.02E+00
    57 Broy./Diag. 0.40E+00   24.7     1.65650780     -1074.9072152922  4.21E-01
    58 Broy./Diag. 0.40E+00   25.2     1.71519372     -1077.9467715977 -3.04E+00
    59 Broy./Diag. 0.40E+00   24.1     1.66282211     -1073.7162494739  4.23E+00
    60 Broy./Diag. 0.40E+00   24.2     1.65027839     -1070.9821674399  2.73E+00
    61 Broy./Diag. 0.40E+00   24.9     1.65382346     -1080.9967388244 -1.00E+01
    62 Broy./Diag. 0.40E+00   24.2     1.69192952     -1076.5597624959  4.44E+00
    63 Broy./Diag. 0.40E+00   23.3     1.60582680     -1078.1871557160 -1.63E+00
    64 Broy./Diag. 0.40E+00   23.5     1.65546521     -1076.9273428762  1.26E+00
    65 Broy./Diag. 0.40E+00   23.6     1.54052617     -1078.9416869261 -2.01E+00
    66 Broy./Diag. 0.40E+00   24.3     1.54763148     -1074.7403780736  4.20E+00
    67 Broy./Diag. 0.40E+00   25.2     1.52253077     -1074.5877957337  1.53E-01
    68 Broy./Diag. 0.40E+00   24.2     1.53764755     -1073.7386446775  8.49E-01
    69 Broy./Diag. 0.40E+00   24.2     1.57536428     -1075.8478969708 -2.11E+00
    70 Broy./Diag. 0.40E+00   23.8     1.71491627     -1075.2056427898  6.42E-01
    71 Broy./Diag. 0.40E+00   24.2     1.80883761     -1075.9254301102 -7.20E-01
    72 Broy./Diag. 0.40E+00   24.5     1.71802107     -1074.9001166204  1.03E+00
    73 Broy./Diag. 0.40E+00   24.6     1.69926103     -1079.3217160872 -4.42E+00
    74 Broy./Diag. 0.40E+00   24.6     1.46895145     -1074.2310378100  5.09E+00
    75 Broy./Diag. 0.40E+00   25.0     1.51599828     -1077.9256642243 -3.69E+00
    76 Broy./Diag. 0.40E+00   24.3     1.65060736     -1070.5002350561  7.43E+00
    77 Broy./Diag. 0.40E+00   24.0     1.66243218     -1083.4262833291 -1.29E+01
    78 Broy./Diag. 0.40E+00   24.4     1.24620594     -1078.8688516593  4.56E+00
    79 Broy./Diag. 0.40E+00   25.9     1.26155270     -1074.5891545464  4.28E+00
    80 Broy./Diag. 0.40E+00   24.2     1.63110948     -1076.0675291630 -1.48E+00
    81 Broy./Diag. 0.40E+00   23.5     1.64191734     -1076.9481579922 -8.81E-01
    82 Broy./Diag. 0.40E+00   25.2     1.71735195     -1075.8912094388  1.06E+00
    83 Broy./Diag. 0.40E+00   24.6     1.46045238     -1074.2326767110  1.66E+00
    84 Broy./Diag. 0.40E+00   24.1     1.55644182     -1075.6679206128 -1.44E+00
    85 Broy./Diag. 0.40E+00   24.3     1.59115714     -1075.8728029973 -2.05E-01
    86 Broy./Diag. 0.40E+00   24.3     1.29241522     -1076.1175507269 -2.45E-01
    87 Broy./Diag. 0.40E+00   24.3     1.62980671     -1074.1860214925  1.93E+00
    88 Broy./Diag. 0.40E+00   24.5     1.68431982     -1077.3320067001 -3.15E+00
    89 Broy./Diag. 0.40E+00   24.9     1.60219658     -1070.7940026841  6.54E+00
    90 Broy./Diag. 0.40E+00   24.1     1.60095691     -1080.0176004582 -9.22E+00
    91 Broy./Diag. 0.40E+00   24.9     1.63506566     -1075.5308754844  4.49E+00
    92 Broy./Diag. 0.40E+00   23.5     1.72340456     -1075.1573132043  3.74E-01
    93 Broy./Diag. 0.40E+00   24.1     1.48814396     -1074.8321740920  3.25E-01
    94 Broy./Diag. 0.40E+00   25.4     1.57258310     -1071.7540498204  3.08E+00
    95 Broy./Diag. 0.40E+00   24.2     1.60766082     -1077.7609953664 -6.01E+00
    96 Broy./Diag. 0.40E+00   23.4     1.60144189     -1081.6853768755 -3.92E+00
    97 Broy./Diag. 0.40E+00   23.6     1.64487005     -1078.1653673075  3.52E+00
    98 Broy./Diag. 0.40E+00   23.8     1.70246183     -1077.1314369870  1.03E+00
    99 Broy./Diag. 0.40E+00   24.1     1.66085634     -1074.6920837356  2.44E+00
   100 Broy./Diag. 0.40E+00   25.3     1.52380427     -1075.6324175514 -9.40E-01
   101 Broy./Diag. 0.40E+00   24.5     1.51141866     -1071.9305648316  3.70E+00
   102 Broy./Diag. 0.40E+00   24.2     1.53810183     -1078.8998460623 -6.97E+00
   103 Broy./Diag. 0.40E+00   22.6     1.39715060     -1075.5447431811  3.36E+00
   104 Broy./Diag. 0.40E+00   22.9     1.56630469     -1079.4645174128 -3.92E+00
   105 Broy./Diag. 0.40E+00   23.2     1.65763458     -1077.4771461452  1.99E+00
   106 Broy./Diag. 0.40E+00   23.2     1.66430960     -1077.8274976194 -3.50E-01
   107 Broy./Diag. 0.40E+00   23.6     1.30999466     -1075.7885387923  2.04E+00
   108 Broy./Diag. 0.40E+00   23.6     1.57240372     -1072.2841843107  3.50E+00
   109 Broy./Diag. 0.40E+00   24.2     1.65395843     -1082.1211564550 -9.84E+00
   110 Broy./Diag. 0.40E+00   24.6     1.68084237     -1077.2806386734  4.84E+00
   111 Broy./Diag. 0.40E+00   24.4     1.61791765     -1076.8460189668  4.35E-01
   112 Broy./Diag. 0.40E+00   25.6     1.63946342     -1075.0118458535  1.83E+00
   113 Broy./Diag. 0.40E+00   24.3     1.70015144     -1077.1017414561 -2.09E+00
   114 Broy./Diag. 0.40E+00   23.5     1.47486424     -1076.1032814925  9.98E-01
   115 Broy./Diag. 0.40E+00   23.6     1.70205273     -1075.8091413235  2.94E-01
   116 Broy./Diag. 0.40E+00   24.2     1.29143810     -1079.2914823496 -3.48E+00
   117 Broy./Diag. 0.40E+00   24.4     1.70135008     -1076.9440615325  2.35E+00
   118 Broy./Diag. 0.40E+00   24.7     1.28436263     -1072.2416076996  4.70E+00
   119 Broy./Diag. 0.40E+00   24.8     1.71523111     -1078.2371853939 -6.00E+00
   120 Broy./Diag. 0.40E+00   24.6     1.77957391     -1075.4521109116  2.79E+00
   121 Broy./Diag. 0.40E+00   24.9     1.62883749     -1076.0033268796 -5.51E-01
   122 Broy./Diag. 0.40E+00   24.5     1.63255809     -1076.8965934804 -8.93E-01
   123 Broy./Diag. 0.40E+00   24.2     1.65571589     -1077.0737857166 -1.77E-01
   124 Broy./Diag. 0.40E+00   23.3     1.53229163     -1075.2019982058  1.87E+00
   125 Broy./Diag. 0.40E+00   23.7     1.48346931     -1079.3880034084 -4.19E+00
   126 Broy./Diag. 0.40E+00   24.3     1.63761407     -1072.0970253126  7.29E+00
   127 Broy./Diag. 0.40E+00   24.3     1.65580487     -1080.2904299764 -8.19E+00
   128 Broy./Diag. 0.40E+00   24.5     1.63856440     -1080.2353190402  5.51E-02
   129 Broy./Diag. 0.40E+00   24.7     1.64187960     -1077.0680539780  3.17E+00
   130 Broy./Diag. 0.40E+00   23.9     1.66465164     -1076.1234563138  9.45E-01
   131 Broy./Diag. 0.40E+00   23.4     1.65829023     -1076.9412254989 -8.18E-01
   132 Broy./Diag. 0.40E+00   23.9     1.70960660     -1077.3745618713 -4.33E-01
   133 Broy./Diag. 0.40E+00   24.1     1.56004987     -1076.8462901739  5.28E-01
   134 Broy./Diag. 0.40E+00   25.5     1.56000107     -1077.1279777276 -2.82E-01
   135 Broy./Diag. 0.40E+00   25.9     1.56499536     -1075.5523261248  1.58E+00
   136 Broy./Diag. 0.40E+00   24.1     1.65145522     -1071.8076086795  3.74E+00
   137 Broy./Diag. 0.40E+00   24.5     1.64503047     -1082.1884932934 -1.04E+01
   138 Broy./Diag. 0.40E+00   24.6     1.67283993     -1071.9144815843  1.03E+01
   139 Broy./Diag. 0.40E+00   24.4     1.62962388     -1078.7266541114 -6.81E+00
   140 Broy./Diag. 0.40E+00   24.8     1.67052075     -1078.7330054129 -6.35E-03
   141 Broy./Diag. 0.40E+00   24.3     1.67699142     -1078.4319533876  3.01E-01
   142 Broy./Diag. 0.40E+00   24.3     1.68466209     -1074.2851968426  4.15E+00
   143 Broy./Diag. 0.40E+00   24.8     1.28896193     -1075.4680435573 -1.18E+00
   144 Broy./Diag. 0.40E+00   24.2     1.71467353     -1074.7026909774  7.65E-01
   145 Broy./Diag. 0.40E+00   25.0     1.77918872     -1078.4249321286 -3.72E+00
   146 Broy./Diag. 0.40E+00   22.6     1.30763405     -1075.3571145435  3.07E+00
   147 Broy./Diag. 0.40E+00   23.5     1.63788654     -1072.3672293379  2.99E+00
   148 Broy./Diag. 0.40E+00   24.5     1.65447723     -1079.1754924020 -6.81E+00
   149 Broy./Diag. 0.40E+00   25.3     1.62708816     -1079.0981733118  7.73E-02
   150 Broy./Diag. 0.40E+00   24.5     1.74134127     -1075.1659035210  3.93E+00
   151 Broy./Diag. 0.40E+00   24.3     1.71456824     -1077.5107359788 -2.34E+00
   152 Broy./Diag. 0.40E+00   24.8     1.71904190     -1073.5775748647  3.93E+00
   153 Broy./Diag. 0.40E+00   24.4     1.49901962     -1074.4429305987 -8.65E-01
   154 Broy./Diag. 0.40E+00   24.7     1.61258511     -1076.2343695608 -1.79E+00
   155 Broy./Diag. 0.40E+00   24.9     1.46050497     -1073.9502665197  2.28E+00
   156 Broy./Diag. 0.40E+00   24.5     1.55461588     -1078.3650315822 -4.41E+00
   157 Broy./Diag. 0.40E+00   24.9     1.62347867     -1078.0028634944  3.62E-01
   158 Broy./Diag. 0.40E+00   25.7     1.32867266     -1076.2139375515  1.79E+00
   159 Broy./Diag. 0.40E+00   24.2     1.65180183     -1072.9043134275  3.31E+00
   160 Broy./Diag. 0.40E+00   23.5     1.30415633     -1081.5817337699 -8.68E+00
   161 Broy./Diag. 0.40E+00   23.5     1.67098428     -1077.6498566967  3.93E+00
   162 Broy./Diag. 0.40E+00   24.4     1.53913451     -1073.8891576501  3.76E+00
   163 Broy./Diag. 0.40E+00   25.0     1.61027308     -1075.4560106759 -1.57E+00
   164 Broy./Diag. 0.40E+00   24.3     1.39280574     -1072.3435720883  3.11E+00
   165 Broy./Diag. 0.40E+00   25.0     1.65218295     -1077.2665156029 -4.92E+00
   166 Broy./Diag. 0.40E+00   23.9     1.74552801     -1077.4564037442 -1.90E-01
   167 Broy./Diag. 0.40E+00   23.6     1.62959035     -1077.2292525862  2.27E-01
   168 Broy./Diag. 0.40E+00   24.2     1.60617780     -1074.1649556492  3.06E+00
   169 Broy./Diag. 0.40E+00   24.5     1.63528001     -1072.3458545816  1.82E+00
   170 Broy./Diag. 0.40E+00   23.8     1.41344551     -1080.8365713134 -8.49E+00
   171 Broy./Diag. 0.40E+00   23.5     1.68444105     -1078.2325771945  2.60E+00
   172 Broy./Diag. 0.40E+00   24.2     1.27861427     -1077.8831520771  3.49E-01
   173 Broy./Diag. 0.40E+00   24.2     1.39320656     -1074.6850739781  3.20E+00
   174 Broy./Diag. 0.40E+00   22.5     1.53933775     -1076.8882228537 -2.20E+00
   175 Broy./Diag. 0.40E+00   24.0     1.67446524     -1076.0529840530  8.35E-01
   176 Broy./Diag. 0.40E+00   23.2     1.71524081     -1079.8095901046 -3.76E+00
   177 Broy./Diag. 0.40E+00   22.2     1.20447021     -1075.8954549373  3.91E+00
   178 Broy./Diag. 0.40E+00   21.7     1.31064635     -1074.7715137459  1.12E+00
   179 Broy./Diag. 0.40E+00   23.4     1.55532502     -1071.6377170273  3.13E+00
   180 Broy./Diag. 0.40E+00   24.1     1.65331690     -1079.3184161804 -7.68E+00
   181 Broy./Diag. 0.40E+00   24.1     1.70606959     -1080.8826778134 -1.56E+00
   182 Broy./Diag. 0.40E+00   23.8     1.39222921     -1074.4711343178  6.41E+00
   183 Broy./Diag. 0.40E+00   24.0     1.42146374     -1073.7581434760  7.13E-01
   184 Broy./Diag. 0.40E+00   23.9     1.56000049     -1073.8948438260 -1.37E-01
   185 Broy./Diag. 0.40E+00   25.1     1.71554909     -1077.2278054109 -3.33E+00
   186 Broy./Diag. 0.40E+00   24.4     1.79012197     -1076.6997040478  5.28E-01
   187 Broy./Diag. 0.40E+00   24.0     1.56996804     -1074.4669893579  2.23E+00
   188 Broy./Diag. 0.40E+00   23.3     1.57293997     -1071.9371336279  2.53E+00
   189 Broy./Diag. 0.40E+00   21.7     1.68387627     -1081.0922603231 -9.16E+00
   190 Broy./Diag. 0.40E+00   24.0     1.68169418     -1080.7286226576  3.64E-01
   191 Broy./Diag. 0.40E+00   24.2     1.66285625     -1074.2692577870  6.46E+00
   192 Broy./Diag. 0.40E+00   23.9     1.54063419     -1079.5515336517 -5.28E+00
   193 Broy./Diag. 0.40E+00   24.4     1.42373396     -1071.3538693367  8.20E+00
   194 Broy./Diag. 0.40E+00   23.0     1.59581936     -1078.0402724305 -6.69E+00
   195 Broy./Diag. 0.40E+00   23.2     1.72007852     -1077.5825560274  4.58E-01
   196 Broy./Diag. 0.40E+00   24.0     1.68951485     -1075.1755113753  2.41E+00
   197 Broy./Diag. 0.40E+00   23.9     1.07113213     -1075.3905061950 -2.15E-01
   198 Broy./Diag. 0.40E+00   24.6     1.64553422     -1075.3002547320  9.03E-02
   199 Broy./Diag. 0.40E+00   24.5     1.67110776     -1078.4713613673 -3.17E+00
   200 Broy./Diag. 0.40E+00   24.3     1.65562933     -1072.1231574852  6.35E+00
   201 Broy./Diag. 0.40E+00   23.7     1.67554032     -1080.0777579620 -7.95E+00
   202 Broy./Diag. 0.40E+00   24.2     1.59013661     -1079.3929407567  6.85E-01
   203 Broy./Diag. 0.40E+00   24.8     1.60547689     -1076.5581423794  2.83E+00
   204 Broy./Diag. 0.40E+00   24.9     1.64177971     -1076.2307478271  3.27E-01
   205 Broy./Diag. 0.40E+00   24.7     1.66391914     -1077.1596629300 -9.29E-01
   206 Broy./Diag. 0.40E+00   24.3     1.70147982     -1075.9983631108  1.16E+00
   207 Broy./Diag. 0.40E+00   24.3     1.56760083     -1074.7830259597  1.22E+00
   208 Broy./Diag. 0.40E+00   23.5     1.63692935     -1071.8135868160  2.97E+00
   209 Broy./Diag. 0.40E+00   24.3     1.64700898     -1078.3080962040 -6.49E+00
   210 Broy./Diag. 0.40E+00   23.8     1.58723302     -1080.4901636575 -2.18E+00
   211 Broy./Diag. 0.40E+00   24.3     1.55248981     -1075.0728063661  5.42E+00
   212 Broy./Diag. 0.40E+00   24.4     1.62735110     -1075.0522700097  2.05E-02
   213 Broy./Diag. 0.40E+00   24.3     1.57768096     -1073.9978424078  1.05E+00
   214 Broy./Diag. 0.40E+00   23.3     1.63339807     -1078.0174847296 -4.02E+00
   215 Broy./Diag. 0.40E+00   23.2     1.63911306     -1075.9270731696  2.09E+00
   216 Broy./Diag. 0.40E+00   25.1     1.71687588     -1078.6453556666 -2.72E+00
   217 Broy./Diag. 0.40E+00   24.6     1.61053159     -1074.5370391668  4.11E+00
   218 Broy./Diag. 0.40E+00   25.1     1.67951298     -1077.4403347191 -2.90E+00
   219 Broy./Diag. 0.40E+00   24.9     1.71530029     -1075.3779163813  2.06E+00
   220 Broy./Diag. 0.40E+00   24.5     1.64493155     -1075.6978943747 -3.20E-01
   221 Broy./Diag. 0.40E+00   24.8     1.32722547     -1073.8209400925  1.88E+00
   222 Broy./Diag. 0.40E+00   24.7     1.38195280     -1074.3549377331 -5.34E-01
   223 Broy./Diag. 0.40E+00   25.1     1.57585022     -1071.8225132545  2.53E+00
   224 Broy./Diag. 0.40E+00   24.4     1.62423682     -1079.9933234458 -8.17E+00
   225 Broy./Diag. 0.40E+00   23.4     1.67795473     -1077.4729712625  2.52E+00
   226 Broy./Diag. 0.40E+00   24.3     1.60388800     -1075.0220459978  2.45E+00
   227 Broy./Diag. 0.40E+00   24.4     1.71528298     -1071.5873256455  3.43E+00
   228 Broy./Diag. 0.40E+00   22.8     1.74947491     -1078.1595313712 -6.57E+00
   229 Broy./Diag. 0.40E+00   24.0     1.63687967     -1077.5157156628  6.44E-01
   230 Broy./Diag. 0.40E+00   23.6     1.30714286     -1075.1438998688  2.37E+00
   231 Broy./Diag. 0.40E+00   24.5     1.17028645     -1073.8843773314  1.26E+00
   232 Broy./Diag. 0.40E+00   23.9     1.57595660     -1075.0904511505 -1.21E+00
   233 Broy./Diag. 0.40E+00   24.4     1.58681268     -1076.2442512519 -1.15E+00
   234 Broy./Diag. 0.40E+00   24.8     1.58930932     -1079.4918693398 -3.25E+00
   235 Broy./Diag. 0.40E+00   24.7     1.65873077     -1073.1264203247  6.37E+00
   236 Broy./Diag. 0.40E+00   24.7     1.65040727     -1080.7534922095 -7.63E+00
   237 Broy./Diag. 0.40E+00   22.8     1.72455737     -1079.5055924638  1.25E+00
   238 Broy./Diag. 0.40E+00   24.5     1.78983561     -1076.9527074556  2.55E+00
   239 Broy./Diag. 0.40E+00   24.4     1.77611001     -1075.0084600298  1.94E+00
   240 Broy./Diag. 0.40E+00   23.8     1.56994829     -1076.1665137424 -1.16E+00
   241 Broy./Diag. 0.40E+00   24.2     1.65800615     -1072.8893581601  3.28E+00
   242 Broy./Diag. 0.40E+00   24.3     1.64279958     -1075.8047955805 -2.92E+00
   243 Broy./Diag. 0.40E+00   24.3     1.69381058     -1075.7599488496  4.48E-02
   244 Broy./Diag. 0.40E+00   25.3     1.64841137     -1078.3819437488 -2.62E+00
   245 Broy./Diag. 0.40E+00   23.9     1.53353630     -1074.4736563178  3.91E+00
   246 Broy./Diag. 0.40E+00   24.6     1.60277553     -1070.1702668812  4.30E+00
   247 Broy./Diag. 0.40E+00   24.8     1.55276336     -1078.5805562148 -8.41E+00
   248 Broy./Diag. 0.40E+00   24.4     1.60834873     -1074.1854429113  4.40E+00
   249 Broy./Diag. 0.40E+00   23.7     1.69044173     -1078.0464144217 -3.86E+00
   250 Broy./Diag. 0.40E+00   24.2     1.64339304     -1079.8476181302 -1.80E+00
   251 Broy./Diag. 0.40E+00   24.3     1.61863150     -1076.5671489239  3.28E+00
   252 Broy./Diag. 0.40E+00   24.1     1.62434256     -1073.5302230701  3.04E+00
   253 Broy./Diag. 0.40E+00   24.9     1.69208116     -1074.7441848205 -1.21E+00
   254 Broy./Diag. 0.40E+00   23.8     1.62366529     -1074.1939811809  5.50E-01
   255 Broy./Diag. 0.40E+00   24.9     1.67332055     -1077.0365399348 -2.84E+00
   256 Broy./Diag. 0.40E+00   24.7     1.38912751     -1079.6267545920 -2.59E+00
   257 Broy./Diag. 0.40E+00   25.8     1.53620698     -1074.5888660932  5.04E+00
   258 Broy./Diag. 0.40E+00   24.6     1.56335361     -1072.3630494391  2.23E+00
   259 Broy./Diag. 0.40E+00   24.2     1.59612840     -1080.0339712479 -7.67E+00
   260 Broy./Diag. 0.40E+00   22.9     1.64358132     -1079.8526240213  1.81E-01
   261 Broy./Diag. 0.40E+00   24.5     1.63086498     -1077.1084491453  2.74E+00
   262 Broy./Diag. 0.40E+00   23.2     1.64108679     -1077.3853819884 -2.77E-01
   263 Broy./Diag. 0.40E+00   23.7     1.75614082     -1076.2791960947  1.11E+00
   264 Broy./Diag. 0.40E+00   24.2     1.54265705     -1079.8784049981 -3.60E+00
   265 Broy./Diag. 0.40E+00   24.2     1.72852352     -1071.6970462812  8.18E+00
   266 Broy./Diag. 0.40E+00   24.3     1.70393568     -1080.1028115076 -8.41E+00
   267 Broy./Diag. 0.40E+00   24.4     1.58729845     -1077.6253220928  2.48E+00
   268 Broy./Diag. 0.40E+00   24.9     1.57259212     -1075.6406539305  1.98E+00
   269 Broy./Diag. 0.40E+00   24.3     1.57897586     -1078.2571706342 -2.62E+00
   270 Broy./Diag. 0.40E+00   24.1     1.70424132     -1077.0055270141  1.25E+00
   271 Broy./Diag. 0.40E+00   24.5     1.67947877     -1075.2970644016  1.71E+00
   272 Broy./Diag. 0.40E+00   24.7     1.71513749     -1076.8104705828 -1.51E+00
   273 Broy./Diag. 0.40E+00   24.6     1.82104673     -1076.6373877480  1.73E-01
   274 Broy./Diag. 0.40E+00   24.8     1.65004151     -1074.0236358489  2.61E+00
   275 Broy./Diag. 0.40E+00   22.6     1.36598245     -1071.3903790739  2.63E+00
   276 Broy./Diag. 0.40E+00   23.8     1.23856725     -1080.1974714973 -8.81E+00
   277 Broy./Diag. 0.40E+00   24.3     1.46331241     -1077.6927995817  2.50E+00
   278 Broy./Diag. 0.40E+00   24.4     1.54530617     -1076.8572402481  8.36E-01
   279 Broy./Diag. 0.40E+00   23.5     1.31921094     -1075.4666440335  1.39E+00
   280 Broy./Diag. 0.40E+00   24.5     1.65020671     -1076.8097119443 -1.34E+00
   281 Broy./Diag. 0.40E+00   23.0     1.70066512     -1076.1737973234  6.36E-01
   282 Broy./Diag. 0.40E+00   24.3     1.63230745     -1076.9397686503 -7.66E-01
   283 Broy./Diag. 0.40E+00   24.1     1.74393131     -1074.8088603520  2.13E+00
   284 Broy./Diag. 0.40E+00   24.0     1.65557986     -1074.4935078324  3.15E-01
   285 Broy./Diag. 0.40E+00   24.5     1.64161595     -1073.4698904630  1.02E+00
   286 Broy./Diag. 0.40E+00   22.9     1.69314613     -1077.6293845148 -4.16E+00
   287 Broy./Diag. 0.40E+00   24.4     1.59244160     -1075.8204567788  1.81E+00
   288 Broy./Diag. 0.40E+00   24.7     1.58631805     -1072.3054907743  3.51E+00
   289 Broy./Diag. 0.40E+00   24.4     1.60545236     -1081.3042137616 -9.00E+00
   290 Broy./Diag. 0.40E+00   24.5     1.27782992     -1075.2895722556  6.01E+00
   291 Broy./Diag. 0.40E+00   24.7     1.42371741     -1072.7846840624  2.50E+00
   292 Broy./Diag. 0.40E+00   22.5     1.65522376     -1074.5558277156 -1.77E+00
   293 Broy./Diag. 0.40E+00   23.8     1.72495275     -1073.8789078963  6.77E-01
   294 Broy./Diag. 0.40E+00   23.7     1.65430271     -1079.0907058586 -5.21E+00
   295 Broy./Diag. 0.40E+00   22.7     1.64996699     -1075.2321274244  3.86E+00
   296 Broy./Diag. 0.40E+00   23.5     1.70969742     -1077.1423695309 -1.91E+00
   297 Broy./Diag. 0.40E+00   25.3     1.61501308     -1075.5024708185  1.64E+00
   298 Broy./Diag. 0.40E+00   24.5     1.61095636     -1074.1550489347  1.35E+00
   299 Broy./Diag. 0.40E+00   24.3     1.64347668     -1078.6341267813 -4.48E+00
   300 Broy./Diag. 0.40E+00   24.0     1.16741290     -1073.4522886784  5.18E+00

  Leaving inner SCF loop after reaching   300 steps.


  Electronic density on regular grids:       -512.0005923173       -0.0005923173
  Core density on regular grids:              511.9998341949       -0.0001658051
  Total charge density on r-space grids:       -0.0007581224
  Total charge density g-space grids:          -0.0007581224

  Overlap energy of the core charge distribution:               0.00000000000000
  Self energy of the core charge distribution:              -2838.21791979120962
  Core Hamiltonian energy:                                    762.36660233531177
  Hartree energy:                                            1240.72872944417622
  Exchange-correlation energy:                               -238.32970066664234

  Total energy:                                             -1073.45228867836408

 *** WARNING in qs_scf.F:542 :: SCF run NOT converged ***


 ENERGY| Total FORCE_EVAL ( QS ) energy (a.u.):            -1074.027486134329365


 ATOMIC FORCES in [a.u.]

 # Atom   Kind   Element          X              Y              Z
      1      1      O          -0.05642721    -0.13537437     0.00949260
      2      2      H           0.03214821    -0.01326048     0.07141440
      3      2      H          -0.00549491     0.03227598    -0.06782688
      4      1      O          -0.07464587     0.03115043    -0.07381716
      5      2      H           0.01330442     0.07635471    -0.01550222
      6      2      H           0.04333632    -0.01651170    -0.00610615
      7      1      O          -0.04398718     0.12937932     0.08610197
      8      2      H           0.08001051     0.00144998    -0.04175784
      9      2      H          -0.04540471    -0.08558074     0.00086029
     10      1      O          -0.11172807     0.11082729    -0.08658154
     11      2      H           0.05126600    -0.00073492     0.11734694
     12      2      H           0.05256093    -0.09518450    -0.06116102
     13      1      O          -0.05456898    -0.01321867     0.03450365
     14      2      H           0.01089418    -0.04650777     0.02630614
     15      2      H           0.06071360    -0.01209542    -0.04214490
     16      1      O          -0.05369598     0.00603775    -0.06282840
     17      2      H           0.04402524    -0.05514560     0.05545331
     18      2      H          -0.00706217     0.02863086     0.10395969
     19      1      O          -0.02312342     0.03533690     0.11222099
     20      2      H          -0.03068554    -0.01247529    -0.04510694
     21      2      H           0.03370270    -0.05256640     0.00873270
     22      1      O          -0.02973921     0.11214926    -0.14354327
     23      2      H           0.05471196     0.02397666     0.02555176
     24      2      H          -0.05345846    -0.02797915     0.01530885
     25      1      O          -0.06175749     0.09963924     0.07884298
     26      2      H          -0.02037255    -0.07269671    -0.03992394
     27      2      H           0.09387929     0.01431081    -0.05889095
     28      1      O          -0.06715559     0.03528418     0.05857071
     29      2      H           0.06170895    -0.05220048     0.04850344
     30      2      H           0.02581586    -0.04209268    -0.08898563
     31      1      O          -0.07641839    -0.09363258     0.03945592
     32      2      H           0.06122472     0.05727657     0.06313480
     33      2      H           0.00196214    -0.03703681    -0.08572845
     34      1      O          -0.05616699     0.09125693     0.04316228
     35      2      H          -0.05077495    -0.03611774    -0.05384115
     36      2      H           0.06765796    -0.03409971     0.04958807
     37      1      O          -0.08701966    -0.00221545    -0.11048270
     38      2      H           0.07378282     0.06465697     0.05553989
     39      2      H          -0.00048244    -0.06474494    -0.00982679
     40      1      O          -0.06265911     0.00607671     0.09729448
     41      2      H          -0.00531249     0.04734916     0.05353868
     42      2      H           0.07003100    -0.04611966     0.01278245
     43      1      O          -0.08344380    -0.09452673    -0.04808255
     44      2      H           0.05352919    -0.05584346    -0.03767537
     45      2      H           0.00587847     0.05572319    -0.06896396
     46      1      O          -0.05916920    -0.00604208    -0.03299639
     47      2      H          -0.03739962     0.06382097     0.00164533
     48      2      H           0.06076734     0.04543002    -0.01770329
     49      1      O          -0.07885611     0.05550491    -0.15857598
     50      2      H           0.01069711    -0.09512311     0.00989470
     51      2      H           0.07171394     0.08501876     0.04865497
     52      1      O           0.00837590     0.09774011    -0.03939981
     53      2      H           0.04338090    -0.02892045    -0.05270652
     54      2      H          -0.05400347    -0.06580347    -0.01172566
     55      1      O          -0.01747431    -0.08492810     0.16956641
     56      2      H          -0.01828810     0.03218212     0.00349621
     57      2      H           0.00508998    -0.02308931    -0.06871870
     58      1      O           0.03346201     0.05352212     0.14891752
     59      2      H          -0.06244898    -0.03124759    -0.04668678
     60      2      H           0.05340201    -0.02783541     0.02221844
     61      1      O          -0.09022545    -0.05934259    -0.03620219
     62      2      H           0.04334254     0.04683691     0.02839796
     63      2      H           0.03277874    -0.01127749    -0.09519264
     64      1      O          -0.08822937    -0.02160754     0.04425463
     65      2      H           0.05205710    -0.02586716     0.09546081
     66      2      H           0.04496037     0.00482661    -0.08803531
     67      1      O          -0.03338857     0.07196044     0.11840376
     68      2      H           0.04868898     0.04898662    -0.05258460
     69      2      H           0.00012419    -0.09776461     0.00536801
     70      1      O           0.00693896    -0.05788546     0.07882770
     71      2      H          -0.03931518     0.05110758     0.05750713
     72      2      H           0.02153485     0.06435229    -0.06600808
     73      1      O           0.07879291     0.06802746     0.10276507
     74      2      H          -0.04251622    -0.01676240    -0.03424495
     75      2      H          -0.01709151    -0.04404822     0.04170908
     76      1      O          -0.09849698    -0.01286122     0.04878485
     77      2      H           0.06237486    -0.01626255    -0.01853498
     78      2      H           0.00279246     0.05475788     0.02760277
     79      1      O           0.03752937    -0.01267022    -0.15691107
     80      2      H          -0.04601154     0.02125327    -0.00737298
     81      2      H           0.01677327    -0.05600377     0.01367444
     82      1      O          -0.05119311    -0.02576930     0.00915938
     83      2      H          -0.00379811    -0.02652725    -0.00561566
     84      2      H           0.03335453     0.05912430    -0.07753517
     85      1      O          -0.05996661     0.03967291     0.06935024
     86      2      H           0.00230591     0.08591562     0.00948920
     87      2      H           0.06469913    -0.04095994    -0.01818164
     88      1      O           0.05447027     0.03956915    -0.00458434
     89      2      H          -0.02009294    -0.04658618    -0.06106509
     90      2      H          -0.01900826     0.06504696    -0.01735317
     91      1      O          -0.00940663     0.02411316     0.01398067
     92      2      H           0.04739982     0.04298913    -0.04420295
     93      2      H          -0.02102124    -0.04855983    -0.04163630
     94      1      O           0.03060381    -0.01041911     0.03027815
     95      2      H           0.01153696    -0.07054324     0.07327455
     96      2      H          -0.06679679    -0.01380975    -0.02294456
     97      1      O          -0.10089698     0.13447149     0.09697939
     98      2      H           0.06069557    -0.03658792     0.00693188
     99      2      H           0.01619611    -0.04504383     0.04043952
    100      1      O           0.03610050    -0.01293267     0.01831085
    101      2      H          -0.05123961     0.04752612    -0.04633668
    102      2      H           0.04915250    -0.06840538    -0.07406763
    103      1      O           0.07433367     0.00479367     0.06640226
    104      2      H          -0.00685061     0.07203868    -0.05314867
    105      2      H          -0.04492195    -0.04505194     0.06478338
    106      1      O          -0.09354377    -0.08276426     0.14906739
    107      2      H           0.02715438     0.09812964    -0.01359722
    108      2      H           0.03449799    -0.02885540    -0.05002812
    109      1      O           0.06834331     0.08866673    -0.04720393
    110      2      H          -0.06586176     0.05649596     0.00119806
    111      2      H          -0.02125886    -0.06751160     0.02345300
    112      1      O          -0.01706547     0.04687321     0.15995193
    113      2      H           0.05080217     0.06056988     0.00885677
    114      2      H          -0.01047134    -0.01861592    -0.05214889
    115      1      O          -0.02796099     0.06072162     0.08876286
    116      2      H           0.02817146    -0.05850378    -0.04434310
    117      2      H          -0.00835061    -0.10584820     0.09095617
    118      1      O          -0.07923319     0.00802310     0.11803275
    119      2      H           0.05706443     0.00724191     0.04647256
    120      2      H           0.01070640    -0.09831997    -0.02231765
    121      1      O           0.00456281    -0.10565042     0.17848563
    122      2      H          -0.05779933     0.02704622    -0.04847349
    123      2      H           0.04474603     0.04302266    -0.00941733
    124      1      O           0.03771066    -0.01626580    -0.05821811
    125      2      H          -0.00122913    -0.01042460    -0.02698155
    126      2      H          -0.01169611    -0.00211743    -0.03363872
    127      1      O           0.00432099    -0.06588447     0.07773406
    128      2      H           0.02975223    -0.02792356    -0.06903012
    129      2      H          -0.03567857     0.05309537    -0.02300119
    130      1      O           0.03663533    -0.03680899     0.00663121
    131      2      H          -0.03509461     0.06351961     0.03750604
    132      2      H          -0.00998621     0.01205697    -0.03176077
    133      1      O          -0.03457348     0.01154726    -0.15820658
    134      2      H           0.04613470    -0.07197866     0.00656698
    135      2      H          -0.00482908     0.02195006     0.04092001
    136      1      O           0.01308087    -0.02718544    -0.14419425
    137      2      H           0.01362723     0.05188398     0.04958803
    138      2      H          -0.04293314    -0.06754906     0.03684230
    139      1      O          -0.01632820     0.06486751     0.08022747
    140      2      H           0.04854168    -0.00427074    -0.05814609
    141      2      H          -0.04696455     0.02573145    -0.01889120
    142      1      O           0.03808203     0.01879804     0.01090321
    143      2      H           0.04908241    -0.01023464     0.05460162
    144      2      H          -0.05964093    -0.01532463     0.06461246
    145      1      O          -0.07422947     0.01867573    -0.01189525
    146      2      H           0.03286238    -0.05631949     0.05976376
    147      2      H           0.04063267     0.07823880    -0.00958399
    148      1      O           0.03813764    -0.03344447     0.07372573
    149      2      H           0.04258325     0.05127164     0.00010405
    150      2      H          -0.05601636     0.00023139    -0.01417520
    151      1      O          -0.00944442     0.03569916    -0.15021284
    152      2      H          -0.02137841    -0.04898782     0.08066301
    153      2      H           0.07600049    -0.04784184    -0.00169722
    154      1      O          -0.05885369    -0.08973832    -0.10589827
    155      2      H          -0.04135146     0.07717228    -0.02752183
    156      2      H           0.07178834     0.01326070    -0.00563706
    157      1      O          -0.06628965     0.03141768     0.03157030
    158      2      H           0.06161784    -0.03410379    -0.01549087
    159      2      H          -0.02729204    -0.02527661    -0.07923163
    160      1      O          -0.06220920     0.08225092     0.00885694
    161      2      H           0.07387715    -0.12786368     0.05250371
    162      2      H          -0.01713501    -0.02444096     0.02883337
    163      1      O           0.06528267     0.00112097    -0.07194022
    164      2      H          -0.00788611    -0.00617009     0.10986783
    165      2      H          -0.03762281     0.03950684    -0.01690335
    166      1      O          -0.06648349     0.08184000    -0.00959356
    167      2      H           0.05363773    -0.00286997     0.00258645
    168      2      H           0.01455657    -0.03292249    -0.06167567
    169      1      O          -0.02455047     0.06863617    -0.06280967
    170      2      H          -0.04398451    -0.03102377     0.05707606
    171      2      H           0.08786752     0.01249643     0.05037191
    172      1      O           0.04653672     0.05561277     0.16905448
    173      2      H           0.02523862     0.04659650    -0.05206500
    174      2      H          -0.09455112    -0.04993673    -0.01208013
    175      1      O          -0.01380089     0.02289565     0.07498117
    176      2      H          -0.00300812     0.01310299     0.03079651
    177      2      H           0.00070169     0.03244992     0.00274256
    178      1      O          -0.03502523    -0.09886227    -0.16686621
    179      2      H           0.04589935    -0.03416340     0.09196553
    180      2      H          -0.05806559     0.06312269     0.02631394
    181      1      O          -0.00022638    -0.07139795     0.08912477
    182      2      H          -0.03700670    -0.00654223    -0.11121839
    183      2      H           0.06605497     0.04573376    -0.00426827
    184      1      O           0.05291857    -0.01963444     0.13667088
    185      2      H           0.02520245     0.00524486    -0.01105664
    186      2      H          -0.04238796    -0.00864975    -0.04799920
    187      1      O          -0.06251052     0.08109047    -0.04616913
    188      2      H           0.05291386     0.01254240     0.05880153
    189      2      H           0.02978708    -0.02395242    -0.10691809
    190      1      O           0.09716522     0.03952525     0.15323497
    191      2      H           0.02044790     0.02521564    -0.07598497
    192      2      H          -0.07660820    -0.02866821    -0.02755013
 SUM OF ATOMIC FORCES          -0.14481094     0.08557570     0.64008553     0.66181787

 -------------------------------------------------------------------------------
 -                                                                             -
 -                                DBCSR STATISTICS                             -
 -                                                                             -
 -------------------------------------------------------------------------------
 COUNTER                                    TOTAL       BLAS       SMM       ACC
 flops     5 x     5 x   256           3351936000       0.0%    100.0%      0.0%
 flops     5 x    13 x   256           3926773760       0.0%    100.0%      0.0%
 flops    13 x     5 x   256           4046981120       0.0%    100.0%      0.0%
 flops    13 x    13 x   256           5729884160       0.0%    100.0%      0.0%
 flops inhomo. stacks                           0       0.0%      0.0%      0.0%
 flops total                        17.055575E+09       0.0%    100.0%      0.0%
 flops max/rank                     17.055575E+09       0.0%    100.0%      0.0%
 matmuls inhomo. stacks                         0       0.0%      0.0%      0.0%
 matmuls total                             567686       0.0%    100.0%      0.0%
 number of processed stacks                 42140       0.0%    100.0%      0.0%
 average stack size                                     0.0      13.5       0.0
 marketing flops                   333.927416E+09
 -------------------------------------------------------------------------------
 # multiplications                            301
 max memory usage/rank              30.600823E+09
 # max total images/rank                        1
 # max 3D layers                                1
 # MPI messages exchanged                       0
 MPI messages size (bytes):
  total size                         0.000000E+00
  min size                           0.000000E+00
  max size                           0.000000E+00
  average size                       0.000000E+00
 MPI breakdown and total messages size (bytes):
             size <=      128                   0                        0
       128 < size <=     8192                   0                        0
      8192 < size <=    32768                   0                        0
     32768 < size <=   131072                   0                        0
    131072 < size <=  4194304                   0                        0
   4194304 < size <= 16777216                   0                        0
  16777216 < size                               0                        0
 -------------------------------------------------------------------------------

 MEMORY| Estimated peak process memory [MiB]                               29187

 -------------------------------------------------------------------------------
 -                                                                             -
 -                           R E F E R E N C E S                               -
 -                                                                             -
 -------------------------------------------------------------------------------
 
 CP2K version 7.1, the CP2K developers group (2019).
 CP2K is freely available from https://www.cp2k.org/ .

 Schuett, Ole; Messmer, Peter; Hutter, Juerg; VandeVondele, Joost. 
 Electronic Structure Calculations on Graphics Processing Units, John
 Wiley & Sons, Ltd, 173-190 (2016). 
 GPU-Accelerated Sparse Matrix-Matrix Multiplication for
 Linear Scaling Density Functional Theory.
 https://dx.doi.org/10.1002/9781118670712.ch8

 Borstnik, U; VandeVondele, J; Weber, V; Hutter, J. 
 PARALLEL COMPUTING, 40 (5-6), 47-58 (2014). 
 Sparse matrix multiplication: The distributed block-compressed sparse
 row library.
 https://dx.doi.org/10.1016/j.parco.2014.03.012

 Hutter, J; Iannuzzi, M; Schiffmann, F; VandeVondele, J. 
 WIREs Comput Mol Sci., 4 (1), 15-25 (2014). 
 CP2K: atomistic simulations of condensed matter systems.
 https://dx.doi.org/10.1002/wcms.1159

 Krack, M. 
 THEORETICAL CHEMISTRY ACCOUNTS, 114 (1-3), 145-152 (2005). 
 Pseudopotentials for H to Kr optimized for gradient-corrected
 exchange-correlation functionals.
 https://dx.doi.org/10.1007/s00214-005-0655-y

 VandeVondele, J; Krack, M; Mohamed, F; Parrinello, M; Chassaing, T;
 Hutter, J. COMPUTER PHYSICS COMMUNICATIONS, 167 (2), 103-128 (2005). 
 QUICKSTEP: Fast and accurate density functional calculations using a
 mixed Gaussian and plane waves approach.
 https://dx.doi.org/10.1016/j.cpc.2004.12.014

 Frigo, M; Johnson, SG. 
 PROCEEDINGS OF THE IEEE, 93 (2), 216-231 (2005). 
 The design and implementation of FFTW3.
 https://dx.doi.org/10.1109/JPROC.2004.840301

 Hartwigsen, C; Goedecker, S; Hutter, J. 
 PHYSICAL REVIEW B, 58 (7), 3641-3662 (1998). 
 Relativistic separable dual-space Gaussian pseudopotentials from H to Rn.
 https://dx.doi.org/10.1103/PhysRevB.58.3641

 Lippert, G; Hutter, J; Parrinello, M. 
 MOLECULAR PHYSICS, 92 (3), 477-487 (1997). 
 A hybrid Gaussian and plane wave density functional scheme.
 https://dx.doi.org/10.1080/002689797170220

 Goedecker, S; Teter, M; Hutter, J. 
 PHYSICAL REVIEW B, 54 (3), 1703-1710 (1996). 
 Separable dual-space Gaussian pseudopotentials.
 https://dx.doi.org/10.1103/PhysRevB.54.1703


 -------------------------------------------------------------------------------
 -                                                                             -
 -                                T I M I N G                                  -
 -                                                                             -
 -------------------------------------------------------------------------------
 SUBROUTINE                       CALLS  ASD         SELF TIME        TOTAL TIME
                                MAXIMUM       AVERAGE  MAXIMUM  AVERAGE  MAXIMUM
 CP2K                                 1  1.0    0.952    0.952 7240.204 7240.204
 qs_forces                            1  2.0    0.000    0.000 7228.971 7228.971
 qs_energies                          1  3.0    0.000    0.000 7224.985 7224.985
 scf_env_do_scf                       1  4.0    0.001    0.001 7213.510 7213.510
 scf_env_do_scf_inner_loop          300  5.0    0.050    0.050 7213.509 7213.509
 gspace_mixing                      299  6.0   42.325   42.325 3004.403 3004.403
 broyden_mixing                     299  7.0 2716.305 2716.305 2716.308 2716.308
 qs_scf_new_mos                     300  6.0    0.010    0.010 1963.665 1963.665
 eigensolver                        300  7.0    0.034    0.034 1904.364 1904.364
 cp_fm_syevd                        300  8.0 1261.947 1261.947 1263.164 1263.164
 pw_transfer                       3912  9.9    0.386    0.386 1186.483 1186.483
 rebuild_ks_matrix                  301  7.0    0.001    0.001 1170.441 1170.441
 qs_ks_build_kohn_sham_matrix       301  8.0    0.091    0.091 1170.440 1170.440
 qs_ks_update_qs_env                300  6.0    0.004    0.004 1166.807 1166.807
 fft_wrap_pw1pw2                   3310 10.9    0.050    0.050 1154.549 1154.549
 qs_rho_update_rho                  301  6.0    0.003    0.003 1078.681 1078.681
 calculate_rho_elec                 301  7.0  528.401  528.401 1078.678 1078.678
 fft_wrap_pw1pw2_70                1504 11.2   90.291   90.291 1047.170 1047.170
 cp_fm_cholesky_restore             900  8.0  640.047  640.047  640.047  640.047
 fft3d_s                           3311 12.9  555.198  555.198  555.230  555.230
 density_rs2pw                      301  8.0    0.030    0.030  540.650  540.650
 pw_scatter_s                      1804 13.2  410.169  410.169  410.169  410.169
 pw_poisson_solve                   301  9.0  333.926  333.926  365.826  365.826
 sum_up_and_integrate               301  9.0   18.306   18.306  340.312  340.312
 integrate_v_rspace                 301 10.0   10.379   10.379  322.006  322.006
 potential_pw2rs                    301 11.0    2.499    2.499  287.739  287.739
 qs_vxc_create                      301  9.0    0.009    0.009  168.807  168.807
 xc_vxc_pw_create                   301 10.0   42.508   42.508  168.798  168.798
 -------------------------------------------------------------------------------

 The number of warnings for this run is : 1
 
 -------------------------------------------------------------------------------
  **** **** ******  **  PROGRAM ENDED AT                 2020-05-29 13:06:48.464
 ***** ** ***  *** **   PROGRAM RAN ON                                   gnode44
 **    ****   ******    PROGRAM RAN BY                               mayank.modi
 ***** **    ** ** **   PROGRAM PROCESS ID                                 31809
  **** **  *******  **  PROGRAM STOPPED IN /home/mayank.modi/ab-initio-thermodyn
                                           amics-of-water/mayank/cp2k_energy_cal
                                           culations
