 DBCSR| CPU Multiplication driver                                           XSMM
 DBCSR| Multrec recursion limit                                              512
 DBCSR| Multiplication stack size                                           1000
 DBCSR| Maximum elements for images                                    UNLIMITED
 DBCSR| Multiplicative factor virtual images                                   1
 DBCSR| Use multiplication densification                                       T
 DBCSR| Multiplication size stacks                                             3


  **** **** ******  **  PROGRAM STARTED AT               2020-05-29 05:10:46.034
 ***** ** ***  *** **   PROGRAM STARTED ON                               gnode44
 **    ****   ******    PROGRAM STARTED BY                           mayank.modi
 ***** **    ** ** **   PROGRAM PROCESS ID                                 27190
  **** **  *******  **  PROGRAM STARTED IN /home/mayank.modi/ab-initio-thermodyn
                                           amics-of-water/mayank/cp2k_energy_cal
                                           culations

 CP2K| version string:                                          CP2K version 7.1
 CP2K| source code revision number:                                  git:e635599
 CP2K| cp2kflags: omp libint fftw3 libxc xsmm spglib                            
 CP2K| is freely available from                            https://www.cp2k.org/
 CP2K| Program compiled at                          Mon Dec 23 19:23:12 CET 2019
 CP2K| Program compiled on                                                pc9404
 CP2K| Program compiled for                                Linux-x86-64-gfortran
 CP2K| Data directory path                                        /opt/cp2k/data
 CP2K| Input file name                                 input_training/input31.in

 GLOBAL| Force Environment number                                              1
 GLOBAL| Basis set file name                                           BASIS_SET
 GLOBAL| Potential file name                                      GTH_POTENTIALS
 GLOBAL| MM Potential file name                                     MM_POTENTIAL
 GLOBAL| Coordinate file name                                      __STD_INPUT__
 GLOBAL| Method name                                                        CP2K
 GLOBAL| Project name                                                   H2O_bulk
 GLOBAL| Preferred FFT library                                             FFTW3
 GLOBAL| Preferred diagonalization lib.                                       SL
 GLOBAL| Run type                                                   ENERGY_FORCE
 GLOBAL| All-to-all communication in single precision                          F
 GLOBAL| FFTs using library dependent lengths                                  F
 GLOBAL| Global print level                                                  LOW
 GLOBAL| MPI I/O enabled                                                       T
 GLOBAL| Total number of message passing processes                             1
 GLOBAL| Number of threads for this process                                   36
 GLOBAL| This output is from process                                           0
 GLOBAL| CPU model name                Intel(R) Xeon(R) CPU E5-2640 v4 @ 2.40GHz
 GLOBAL| CPUID                                                              1002
 GLOBAL| Compiled for CPUID                                                    0

 MEMORY| system memory details [Kb]
 MEMORY|                        rank 0           min           max       average
 MEMORY| MemTotal            131893056     131893056     131893056     131893056
 MEMORY| MemFree             119191628     119191628     119191628     119191628
 MEMORY| Buffers               2122848       2122848       2122848       2122848
 MEMORY| Cached                3087516       3087516       3087516       3087516
 MEMORY| Slab                  3310652       3310652       3310652       3310652
 MEMORY| SReclaimable          3100880       3100880       3100880       3100880
 MEMORY| MemLikelyFree       127502872     127502872     127502872     127502872


 GENERATE|  Preliminary Number of Bonds generated:                             0
 GENERATE|  Achieved consistency in connectivity generation.

 *******************************************************************************
 *******************************************************************************
 **                                                                           **
 **     #####                         ##              ##                      **
 **    ##   ##            ##          ##              ##                      **
 **   ##     ##                       ##            ######                    **
 **   ##     ##  ##   ##  ##   #####  ##  ##   ####   ##    #####    #####    **
 **   ##     ##  ##   ##  ##  ##      ## ##   ##      ##   ##   ##  ##   ##   **
 **   ##  ## ##  ##   ##  ##  ##      ####     ###    ##   ######   ######    **
 **    ##  ###   ##   ##  ##  ##      ## ##      ##   ##   ##       ##        **
 **     #######   #####   ##   #####  ##  ##  ####    ##    #####   ##        **
 **           ##                                                    ##        **
 **                                                                           **
 **                                                ... make the atoms dance   **
 **                                                                           **
 **            Copyright (C) by CP2K developers group (2000 - 2019)           **
 **                                                                           **
 *******************************************************************************


 TOTAL NUMBERS AND MAXIMUM NUMBERS

  Total number of            - Atomic kinds:                                   2
                             - Atoms:                                        192
                             - Shell sets:                                   384
                             - Shells:                                       704
                             - Primitive Cartesian functions:                960
                             - Cartesian basis functions:                   1536
                             - Spherical basis functions:                   1472

  Maximum angular momentum of- Orbital basis functions:                        2
                             - Local part of the GTH pseudopotential:          2
                             - Non-local part of the GTH pseudopotential:      0


 SCF PARAMETERS         Density guess:                                    ATOMIC
                        --------------------------------------------------------
                        max_scf:                                             300
                        max_scf_history:                                       0
                        max_diis:                                              4
                        --------------------------------------------------------
                        eps_scf:                                        1.00E-07
                        eps_scf_history:                                0.00E+00
                        eps_diis:                                       1.00E-01
                        eps_eigval:                                     1.00E-05
                        --------------------------------------------------------
                        level_shift [a.u.]:                                 0.00
                        --------------------------------------------------------
                        Mixing method:                            BROYDEN_MIXING
                                                charge density mixing in g-space
                        --------------------------------------------------------
                        No outer SCF

 Number of electrons:                                                        512
 Number of occupied orbitals:                                                256
 Number of molecular orbitals:                                               256

 Number of orbital functions:                                               1472
 Number of independent orbital functions:                                   1472

 Extrapolation method: initial_guess


 SCF WAVEFUNCTION OPTIMIZATION

  Step     Update method      Time    Convergence         Total energy    Change
  ------------------------------------------------------------------------------
     1 NoMix/Diag. 0.40E+00   10.9     0.66225509     -1064.2124260748 -1.06E+03
     2 Broy./Diag. 0.40E+00   15.8     1.85325173      -993.8683028808  7.03E+01
     3 Broy./Diag. 0.40E+00   17.3     1.93664856     -1269.9661790206 -2.76E+02
     4 Broy./Diag. 0.40E+00   18.8     1.77081836     -1131.7883169900  1.38E+02
     5 Broy./Diag. 0.40E+00   19.0     1.61702436     -1095.4727053678  3.63E+01
     6 Broy./Diag. 0.40E+00   19.6     1.82066611     -1102.9272334565 -7.45E+00
     7 Broy./Diag. 0.40E+00   20.0     1.57907604     -1104.2509345128 -1.32E+00
     8 Broy./Diag. 0.40E+00   21.1     1.48454448     -1084.2201467965  2.00E+01
     9 Broy./Diag. 0.40E+00   21.2     1.39417770     -1077.1051011740  7.12E+00
    10 Broy./Diag. 0.40E+00   24.5     1.27174439     -1073.1688187718  3.94E+00
    11 Broy./Diag. 0.40E+00   22.4     0.58174230     -1069.6784270842  3.49E+00
    12 Broy./Diag. 0.40E+00   23.2     1.57265727     -1070.5290274954 -8.51E-01
    13 Broy./Diag. 0.40E+00   23.8     1.58854868     -1073.7614841188 -3.23E+00
    14 Broy./Diag. 0.40E+00   23.9     1.60563821     -1077.6454619179 -3.88E+00
    15 Broy./Diag. 0.40E+00   24.2     1.42873892     -1076.8212277073  8.24E-01
    16 Broy./Diag. 0.40E+00   24.5     1.64956857     -1076.8524796861 -3.13E-02
    17 Broy./Diag. 0.40E+00   24.6     1.45521636     -1084.0685953957 -7.22E+00
    18 Broy./Diag. 0.40E+00   24.6     1.34725115     -1075.8223290304  8.25E+00
    19 Broy./Diag. 0.40E+00   24.1     1.20020300     -1076.0919615330 -2.70E-01
    20 Broy./Diag. 0.40E+00   23.9     0.44071816     -1073.0733582296  3.02E+00
    21 Broy./Diag. 0.40E+00   22.6     1.03202820     -1074.2133543810 -1.14E+00
    22 Broy./Diag. 0.40E+00   24.5     1.59038370     -1079.2064644528 -4.99E+00
    23 Broy./Diag. 0.40E+00   24.6     1.65944696     -1080.6022616987 -1.40E+00
    24 Broy./Diag. 0.40E+00   24.6     1.08089054     -1074.5629808908  6.04E+00
    25 Broy./Diag. 0.40E+00   24.7     1.55682950     -1074.9615002246 -3.99E-01
    26 Broy./Diag. 0.40E+00   24.8     1.66628801     -1075.6837562526 -7.22E-01
    27 Broy./Diag. 0.40E+00   25.1     1.49704173     -1079.6359498204 -3.95E+00
    28 Broy./Diag. 0.40E+00   24.4     1.09710087     -1075.2924099638  4.34E+00
    29 Broy./Diag. 0.40E+00   24.7     1.17654941     -1074.4091562773  8.83E-01
    30 Broy./Diag. 0.40E+00   24.2     1.08564574     -1074.8870965916 -4.78E-01
    31 Broy./Diag. 0.40E+00   24.9     1.03775981     -1073.7344667635  1.15E+00
    32 Broy./Diag. 0.40E+00   24.6     1.12693530     -1078.8929145236 -5.16E+00
    33 Broy./Diag. 0.40E+00   24.6     0.28483346     -1077.1140226274  1.78E+00
    34 Broy./Diag. 0.40E+00   24.6     1.08087044     -1074.6468775422  2.47E+00
    35 Broy./Diag. 0.40E+00   24.1     1.52824975     -1077.9904525237 -3.34E+00
    36 Broy./Diag. 0.40E+00   24.2     1.64596514     -1078.3423642665 -3.52E-01
    37 Broy./Diag. 0.40E+00   25.8     1.50006924     -1080.2177463919 -1.88E+00
    38 Broy./Diag. 0.40E+00   24.5     1.24526819     -1076.8020181244  3.42E+00
    39 Broy./Diag. 0.40E+00   24.5     1.19828158     -1074.0767355939  2.73E+00
    40 Broy./Diag. 0.40E+00   24.5     1.18760953     -1078.3281841502 -4.25E+00
    41 Broy./Diag. 0.40E+00   24.3     1.12872170     -1074.5483822953  3.78E+00
    42 Broy./Diag. 0.40E+00   24.5     1.20747262     -1079.9222458000 -5.37E+00
    43 Broy./Diag. 0.40E+00   24.5     1.10897737     -1075.1295997423  4.79E+00
    44 Broy./Diag. 0.40E+00   24.3     1.15675875     -1076.6378550106 -1.51E+00
    45 Broy./Diag. 0.40E+00   24.3     1.49969243     -1074.6847276864  1.95E+00
    46 Broy./Diag. 0.40E+00   24.5     1.61115218     -1077.6284606884 -2.94E+00
    47 Broy./Diag. 0.40E+00   25.1     1.49680869     -1079.6808799961 -2.05E+00
    48 Broy./Diag. 0.40E+00   24.9     1.48891668     -1076.8427582127  2.84E+00
    49 Broy./Diag. 0.40E+00   24.5     1.13137208     -1075.4849965791  1.36E+00
    50 Broy./Diag. 0.40E+00   24.0     1.16433784     -1074.9534418763  5.32E-01
    51 Broy./Diag. 0.40E+00   24.5     1.27939474     -1075.3017541650 -3.48E-01
    52 Broy./Diag. 0.40E+00   24.7     1.17547031     -1075.8698014048 -5.68E-01
    53 Broy./Diag. 0.40E+00   24.1     0.26972188     -1073.7205004625  2.15E+00
    54 Broy./Diag. 0.40E+00   24.3     0.94411408     -1076.3669419783 -2.65E+00
    55 Broy./Diag. 0.40E+00   24.2     1.51236675     -1077.6625400325 -1.30E+00
    56 Broy./Diag. 0.40E+00   24.6     1.61447657     -1077.9174551570 -2.55E-01
    57 Broy./Diag. 0.40E+00   24.7     1.50506329     -1079.9130265569 -2.00E+00
    58 Broy./Diag. 0.40E+00   24.3     1.20388992     -1076.4655804061  3.45E+00
    59 Broy./Diag. 0.40E+00   24.6     1.21593912     -1073.5087991203  2.96E+00
    60 Broy./Diag. 0.40E+00   24.4     1.12033242     -1077.8767027897 -4.37E+00
    61 Broy./Diag. 0.40E+00   24.6     1.19635254     -1078.8408713409 -9.64E-01
    62 Broy./Diag. 0.40E+00   24.8     1.16099250     -1076.2914543602  2.55E+00
    63 Broy./Diag. 0.40E+00   24.6     0.97099587     -1074.8385177917  1.45E+00
    64 Broy./Diag. 0.40E+00   24.3     1.50495452     -1076.9365512838 -2.10E+00
    65 Broy./Diag. 0.40E+00   24.2     1.63127481     -1077.7504080617 -8.14E-01
    66 Broy./Diag. 0.40E+00   23.4     1.37482308     -1076.5355183662  1.21E+00
    67 Broy./Diag. 0.40E+00   25.3     1.50127633     -1079.0729318531 -2.54E+00
    68 Broy./Diag. 0.40E+00   24.9     1.27582223     -1076.3945521242  2.68E+00
    69 Broy./Diag. 0.40E+00   23.8     0.58784245     -1072.6234443824  3.77E+00
    70 Broy./Diag. 0.40E+00   23.2     1.02484714     -1077.2480524386 -4.62E+00
    71 Broy./Diag. 0.40E+00   22.8     1.08935690     -1078.5751760128 -1.33E+00
    72 Broy./Diag. 0.40E+00   24.5     1.13544754     -1076.1039337372  2.47E+00
    73 Broy./Diag. 0.40E+00   23.7     0.97225438     -1074.5780139465  1.53E+00
    74 Broy./Diag. 0.40E+00   24.5     1.59935334     -1080.7525246701 -6.17E+00
    75 Broy./Diag. 0.40E+00   24.4     1.65799685     -1078.1819230537  2.57E+00
    76 Broy./Diag. 0.40E+00   24.4     1.38024015     -1078.4708961219 -2.89E-01
    77 Broy./Diag. 0.40E+00   24.0     1.52294990     -1079.3081286806 -8.37E-01
    78 Broy./Diag. 0.40E+00   24.1     1.56563172     -1077.8638200390  1.44E+00
    79 Broy./Diag. 0.40E+00   23.9     1.25240405     -1078.2358246026 -3.72E-01
    80 Broy./Diag. 0.40E+00   23.7     1.21361240     -1073.5734821089  4.66E+00
    81 Broy./Diag. 0.40E+00   24.4     1.13795803     -1079.0753830007 -5.50E+00
    82 Broy./Diag. 0.40E+00   24.0     1.57068377     -1081.1694871836 -2.09E+00
    83 Broy./Diag. 0.40E+00   23.0     1.80568718     -1072.7175541734  8.45E+00
    84 Broy./Diag. 0.40E+00   24.2     1.67088324     -1072.8243461866 -1.07E-01
    85 Broy./Diag. 0.40E+00   23.8     1.75338009     -1074.2397656179 -1.42E+00
    86 Broy./Diag. 0.40E+00   24.0     1.47842494     -1076.1598581817 -1.92E+00
    87 Broy./Diag. 0.40E+00   25.1     1.59332372     -1079.8323319670 -3.67E+00
    88 Broy./Diag. 0.40E+00   24.3     1.26218796     -1074.9888606770  4.84E+00
    89 Broy./Diag. 0.40E+00   24.6     1.47753879     -1072.1882745481  2.80E+00
    90 Broy./Diag. 0.40E+00   24.3     1.55715889     -1079.9085765147 -7.72E+00
    91 Broy./Diag. 0.40E+00   24.2     1.16038073     -1075.0238241656  4.88E+00
    92 Broy./Diag. 0.40E+00   24.0     1.58187011     -1082.3387657760 -7.31E+00
    93 Broy./Diag. 0.40E+00   24.3     1.72705088     -1076.0303090830  6.31E+00
    94 Broy./Diag. 0.40E+00   22.8     1.32412712     -1077.6683157827 -1.64E+00
    95 Broy./Diag. 0.40E+00   24.9     1.33807149     -1073.4835864605  4.18E+00
    96 Broy./Diag. 0.40E+00   24.8     1.37494903     -1073.0399679943  4.44E-01
    97 Broy./Diag. 0.40E+00   24.4     1.47622781     -1077.1591744156 -4.12E+00
    98 Broy./Diag. 0.40E+00   24.7     1.34821343     -1073.1683107174  3.99E+00
    99 Broy./Diag. 0.40E+00   24.5     1.51785923     -1072.0564966421  1.11E+00
   100 Broy./Diag. 0.40E+00   24.5     1.60051893     -1079.9939211543 -7.94E+00
   101 Broy./Diag. 0.40E+00   24.7     1.23825681     -1077.7214030001  2.27E+00
   102 Broy./Diag. 0.40E+00   24.7     1.12847967     -1081.0741871561 -3.35E+00
   103 Broy./Diag. 0.40E+00   24.5     0.99580048     -1073.5667724084  7.51E+00
   104 Broy./Diag. 0.40E+00   24.7     1.06821270     -1080.8772358528 -7.31E+00
   105 Broy./Diag. 0.40E+00   24.6     1.10176473     -1075.8432779773  5.03E+00
   106 Broy./Diag. 0.40E+00   24.4     1.36476230     -1075.4334591634  4.10E-01
   107 Broy./Diag. 0.40E+00   24.6     1.44650042     -1077.6696323622 -2.24E+00
   108 Broy./Diag. 0.40E+00   24.6     1.53080487     -1073.3389567089  4.33E+00
   109 Broy./Diag. 0.40E+00   24.8     1.62443547     -1077.2211419570 -3.88E+00
   110 Broy./Diag. 0.40E+00   24.5     1.55672459     -1078.4953129789 -1.27E+00
   111 Broy./Diag. 0.40E+00   24.8     1.46389874     -1076.4796821920  2.02E+00
   112 Broy./Diag. 0.40E+00   24.2     1.14212548     -1078.3677256289 -1.89E+00
   113 Broy./Diag. 0.40E+00   23.9     1.03092457     -1073.4960218878  4.87E+00
   114 Broy./Diag. 0.40E+00   24.3     1.56654391     -1081.6195153894 -8.12E+00
   115 Broy./Diag. 0.40E+00   24.6     1.63658118     -1076.6758720234  4.94E+00
   116 Broy./Diag. 0.40E+00   24.1     1.31743183     -1076.1765614283  4.99E-01
   117 Broy./Diag. 0.40E+00   24.0     1.34953222     -1078.6032446722 -2.43E+00
   118 Broy./Diag. 0.40E+00   24.5     0.30070133     -1073.6934591248  4.91E+00
   119 Broy./Diag. 0.40E+00   22.6     1.39619973     -1075.1171063566 -1.42E+00
   120 Broy./Diag. 0.40E+00   23.7     1.38049808     -1076.3003770102 -1.18E+00
   121 Broy./Diag. 0.40E+00   24.0     1.06265312     -1074.2429563712  2.06E+00
   122 Broy./Diag. 0.40E+00   24.0     1.08438138     -1079.4218469388 -5.18E+00
   123 Broy./Diag. 0.40E+00   24.4     1.12830927     -1075.6544392072  3.77E+00
   124 Broy./Diag. 0.40E+00   24.4     1.58500787     -1079.2434301560 -3.59E+00
   125 Broy./Diag. 0.40E+00   24.4     1.62949035     -1076.2726890481  2.97E+00
   126 Broy./Diag. 0.40E+00   24.7     1.29683995     -1076.0591358795  2.14E-01
   127 Broy./Diag. 0.40E+00   24.2     1.40959859     -1076.0490284751  1.01E-02
   128 Broy./Diag. 0.40E+00   24.1     1.20572149     -1075.1228557731  9.26E-01
   129 Broy./Diag. 0.40E+00   24.8     1.29647191     -1077.2105875459 -2.09E+00
   130 Broy./Diag. 0.40E+00   23.7     1.07699926     -1076.2336713869  9.77E-01
   131 Broy./Diag. 0.40E+00   24.3     1.18423692     -1076.4587587096 -2.25E-01
   132 Broy./Diag. 0.40E+00   25.2     0.26115375     -1075.4182740285  1.04E+00
   133 Broy./Diag. 0.40E+00   24.7     1.30700119     -1075.7148513547 -2.97E-01
   134 Broy./Diag. 0.40E+00   24.7     1.51621700     -1077.4879460935 -1.77E+00
   135 Broy./Diag. 0.40E+00   24.2     1.58448942     -1077.1829542531  3.05E-01
   136 Broy./Diag. 0.40E+00   24.4     1.29610719     -1074.5215836521  2.66E+00
   137 Broy./Diag. 0.40E+00   23.2     1.31709723     -1080.5291462470 -6.01E+00
   138 Broy./Diag. 0.40E+00   24.6     1.41129106     -1077.9847168385  2.54E+00
   139 Broy./Diag. 0.40E+00   23.6     1.21434240     -1078.7624591215 -7.78E-01
   140 Broy./Diag. 0.40E+00   24.0     1.14105397     -1076.1542223505  2.61E+00
   141 Broy./Diag. 0.40E+00   24.1     1.31561596     -1075.5136854700  6.41E-01
   142 Broy./Diag. 0.40E+00   24.4     1.39853293     -1075.1991527753  3.15E-01
   143 Broy./Diag. 0.40E+00   24.7     1.21111235     -1075.9201857010 -7.21E-01
   144 Broy./Diag. 0.40E+00   23.9     1.56606051     -1074.6046254576  1.32E+00
   145 Broy./Diag. 0.40E+00   24.5     1.61093855     -1078.1298529033 -3.53E+00
   146 Broy./Diag. 0.40E+00   24.3     1.34691281     -1072.5002733046  5.63E+00
   147 Broy./Diag. 0.40E+00   24.2     1.36792241     -1082.9471829233 -1.04E+01
   148 Broy./Diag. 0.40E+00   23.8     1.04266927     -1078.9985053534  3.95E+00
   149 Broy./Diag. 0.40E+00   24.6     1.10593641     -1076.0744875627  2.92E+00
   150 Broy./Diag. 0.40E+00   24.3     1.26041007     -1076.4042007173 -3.30E-01
   151 Broy./Diag. 0.40E+00   24.2     1.32643146     -1075.3335303616  1.07E+00
   152 Broy./Diag. 0.40E+00   25.0     1.48007078     -1075.2281349607  1.05E-01
   153 Broy./Diag. 0.40E+00   24.1     0.53679470     -1073.7676358037  1.46E+00
   154 Broy./Diag. 0.40E+00   24.5     1.50844467     -1073.9930672478 -2.25E-01
   155 Broy./Diag. 0.40E+00   24.6     1.50097560     -1079.1875332115 -5.19E+00
   156 Broy./Diag. 0.40E+00   24.7     1.26504432     -1075.8666193593  3.32E+00
   157 Broy./Diag. 0.40E+00   23.7     1.31832690     -1078.2548489107 -2.39E+00
   158 Broy./Diag. 0.40E+00   24.6     1.36064363     -1076.4456837106  1.81E+00
   159 Broy./Diag. 0.40E+00   24.2     1.26271063     -1076.1104318914  3.35E-01
   160 Broy./Diag. 0.40E+00   23.2     1.56350024     -1075.6695418289  4.41E-01
   161 Broy./Diag. 0.40E+00   22.1     1.53524193     -1077.6549792428 -1.99E+00
   162 Broy./Diag. 0.40E+00   23.9     1.60855121     -1075.3565744633  2.30E+00
   163 Broy./Diag. 0.40E+00   24.2     1.44744882     -1074.7848431128  5.72E-01
   164 Broy./Diag. 0.40E+00   24.7     1.13240098     -1077.2555472002 -2.47E+00
   165 Broy./Diag. 0.40E+00   24.4     1.30902307     -1075.3459557027  1.91E+00
   166 Broy./Diag. 0.40E+00   24.5     0.32731006     -1073.8843789570  1.46E+00
   167 Broy./Diag. 0.40E+00   22.7     0.86762686     -1076.9052061544 -3.02E+00
   168 Broy./Diag. 0.40E+00   24.4     1.60981426     -1076.9301112820 -2.49E-02
   169 Broy./Diag. 0.40E+00   24.4     1.61431224     -1076.3994047753  5.31E-01
   170 Broy./Diag. 0.40E+00   24.2     1.60633660     -1076.1240168760  2.75E-01
   171 Broy./Diag. 0.40E+00   24.1     1.59934827     -1078.3061552104 -2.18E+00
   172 Broy./Diag. 0.40E+00   23.4     1.60775367     -1074.6753772132  3.63E+00
   173 Broy./Diag. 0.40E+00   24.0     1.56388447     -1075.3028325239 -6.27E-01
   174 Broy./Diag. 0.40E+00   24.1     1.18790425     -1076.7823441969 -1.48E+00
   175 Broy./Diag. 0.40E+00   24.3     0.58940633     -1073.0860862938  3.70E+00
   176 Broy./Diag. 0.40E+00   24.6     0.84951611     -1077.4907735734 -4.40E+00
   177 Broy./Diag. 0.40E+00   24.0     1.08383082     -1077.0510617166  4.40E-01
   178 Broy./Diag. 0.40E+00   23.5     1.14829616     -1076.2574293258  7.94E-01
   179 Broy./Diag. 0.40E+00   24.5     1.06331399     -1074.3947425525  1.86E+00
   180 Broy./Diag. 0.40E+00   24.5     1.51927489     -1078.4078678021 -4.01E+00
   181 Broy./Diag. 0.40E+00   24.2     1.58892677     -1080.2915063029 -1.88E+00
   182 Broy./Diag. 0.40E+00   23.4     1.56897436     -1076.3270299800  3.96E+00
   183 Broy./Diag. 0.40E+00   24.6     1.54139193     -1076.5534266789 -2.26E-01
   184 Broy./Diag. 0.40E+00   24.5     1.15006355     -1077.9608969164 -1.41E+00
   185 Broy./Diag. 0.40E+00   24.6     1.17328119     -1073.1910690409  4.77E+00
   186 Broy./Diag. 0.40E+00   24.8     1.21043294     -1077.1384416898 -3.95E+00
   187 Broy./Diag. 0.40E+00   24.5     1.05291842     -1078.0787892780 -9.40E-01
   188 Broy./Diag. 0.40E+00   24.3     0.56337972     -1074.2974972555  3.78E+00
   189 Broy./Diag. 0.40E+00   24.5     0.80030422     -1076.0867307534 -1.79E+00
   190 Broy./Diag. 0.40E+00   24.6     1.52168224     -1076.7179292109 -6.31E-01
   191 Broy./Diag. 0.40E+00   24.5     1.61653117     -1078.8090869738 -2.09E+00
   192 Broy./Diag. 0.40E+00   24.8     1.51018763     -1077.9275861153  8.82E-01
   193 Broy./Diag. 0.40E+00   24.4     1.52021700     -1075.1942184877  2.73E+00
   194 Broy./Diag. 0.40E+00   25.0     1.17626835     -1077.2307787441 -2.04E+00
   195 Broy./Diag. 0.40E+00   24.6     1.20273480     -1072.7525302009  4.48E+00
   196 Broy./Diag. 0.40E+00   24.8     1.01183881     -1078.7538541485 -6.00E+00
   197 Broy./Diag. 0.40E+00   24.6     1.09058518     -1078.1047927159  6.49E-01
   198 Broy./Diag. 0.40E+00   25.2     1.46867881     -1074.6418059747  3.46E+00
   199 Broy./Diag. 0.40E+00   24.5     1.50553029     -1077.3272837872 -2.69E+00
   200 Broy./Diag. 0.40E+00   24.3     0.95646573     -1075.4289138372  1.90E+00
   201 Broy./Diag. 0.40E+00   24.5     1.12840661     -1076.4312177840 -1.00E+00
   202 Broy./Diag. 0.40E+00   24.4     1.31398272     -1076.4690183542 -3.78E-02
   203 Broy./Diag. 0.40E+00   24.5     1.48921403     -1076.6148604247 -1.46E-01
   204 Broy./Diag. 0.40E+00   24.6     1.42042130     -1078.1569525584 -1.54E+00
   205 Broy./Diag. 0.40E+00   24.4     1.42970840     -1073.3962171821  4.76E+00
   206 Broy./Diag. 0.40E+00   25.0     1.39276320     -1080.3787128053 -6.98E+00
   207 Broy./Diag. 0.40E+00   24.5     1.55247363     -1080.2087070548  1.70E-01
   208 Broy./Diag. 0.40E+00   24.4     1.63526714     -1076.2085832886  4.00E+00
   209 Broy./Diag. 0.40E+00   24.4     1.65620393     -1077.4484289787 -1.24E+00
   210 Broy./Diag. 0.40E+00   23.8     1.23933697     -1075.6242651974  1.82E+00
   211 Broy./Diag. 0.40E+00   24.6     1.38264380     -1076.1630274070 -5.39E-01
   212 Broy./Diag. 0.40E+00   24.7     1.49498520     -1077.5138686138 -1.35E+00
   213 Broy./Diag. 0.40E+00   24.4     1.58049046     -1075.4512662738  2.06E+00
   214 Broy./Diag. 0.40E+00   26.2     1.64304744     -1077.2866376579 -1.84E+00
   215 Broy./Diag. 0.40E+00   24.3     1.14781742     -1074.2254582119  3.06E+00
   216 Broy./Diag. 0.40E+00   23.3     1.06619353     -1071.9241279150  2.30E+00
   217 Broy./Diag. 0.40E+00   22.4     1.45584035     -1080.9211021375 -9.00E+00
   218 Broy./Diag. 0.40E+00   22.2     1.62266177     -1077.9182778932  3.00E+00
   219 Broy./Diag. 0.40E+00   23.5     1.27784720     -1080.1279514416 -2.21E+00
   220 Broy./Diag. 0.40E+00   24.2     1.19030530     -1076.7049940646  3.42E+00
   221 Broy./Diag. 0.40E+00   23.5     0.39178622     -1073.0720748844  3.63E+00
   222 Broy./Diag. 0.40E+00   24.4     1.30283568     -1075.6450241907 -2.57E+00
   223 Broy./Diag. 0.40E+00   24.3     1.60830055     -1076.1705382733 -5.26E-01
   224 Broy./Diag. 0.40E+00   25.8     1.64659914     -1078.7687592821 -2.60E+00
   225 Broy./Diag. 0.40E+00   24.5     1.14327578     -1075.7405341113  3.03E+00
   226 Broy./Diag. 0.40E+00   25.1     1.00275103     -1073.7642504865  1.98E+00
   227 Broy./Diag. 0.40E+00   24.1     1.54032126     -1077.3000890645 -3.54E+00
   228 Broy./Diag. 0.40E+00   24.6     1.64874472     -1077.6252230330 -3.25E-01
   229 Broy./Diag. 0.40E+00   25.0     1.31467791     -1081.0660525247 -3.44E+00
   230 Broy./Diag. 0.40E+00   24.2     1.37429086     -1076.4902431932  4.58E+00
   231 Broy./Diag. 0.40E+00   24.0     1.10134709     -1074.7326253876  1.76E+00
   232 Broy./Diag. 0.40E+00   24.6     1.28789782     -1073.2389694887  1.49E+00
   233 Broy./Diag. 0.40E+00   24.5     1.51057220     -1077.8348191674 -4.60E+00
   234 Broy./Diag. 0.40E+00   24.5     1.49987025     -1078.1054889043 -2.71E-01
   235 Broy./Diag. 0.40E+00   24.5     1.14797989     -1075.4938604551  2.61E+00
   236 Broy./Diag. 0.40E+00   24.6     1.07548090     -1075.4778974658  1.60E-02
   237 Broy./Diag. 0.40E+00   24.7     1.52334093     -1076.3452367161 -8.67E-01
   238 Broy./Diag. 0.40E+00   24.4     1.66661550     -1075.7212533457  6.24E-01
   239 Broy./Diag. 0.40E+00   24.4     1.22934627     -1076.6735228527 -9.52E-01
   240 Broy./Diag. 0.40E+00   24.4     1.62832002     -1075.7373029624  9.36E-01
   241 Broy./Diag. 0.40E+00   24.1     1.69188818     -1075.8163679292 -7.91E-02
   242 Broy./Diag. 0.40E+00   24.8     1.33523404     -1073.0044016600  2.81E+00
   243 Broy./Diag. 0.40E+00   24.4     1.52285928     -1079.3205334934 -6.32E+00
   244 Broy./Diag. 0.40E+00   24.6     1.52091937     -1078.7357575014  5.85E-01
   245 Broy./Diag. 0.40E+00   23.7     1.18222592     -1075.5997919169  3.14E+00
   246 Broy./Diag. 0.40E+00   24.0     1.36280304     -1075.8793606076 -2.80E-01
   247 Broy./Diag. 0.40E+00   25.2     1.55992057     -1075.5332361329  3.46E-01
   248 Broy./Diag. 0.40E+00   24.9     1.69117386     -1074.7622122008  7.71E-01
   249 Broy./Diag. 0.40E+00   24.4     1.28280018     -1075.7298938178 -9.68E-01
   250 Broy./Diag. 0.40E+00   24.6     1.65900043     -1075.0445773103  6.85E-01
   251 Broy./Diag. 0.40E+00   24.7     1.70807458     -1075.7441080557 -7.00E-01
   252 Broy./Diag. 0.40E+00   24.5     1.30866140     -1073.4873290660  2.26E+00
   253 Broy./Diag. 0.40E+00   24.5     1.51786805     -1079.7864053892 -6.30E+00
   254 Broy./Diag. 0.40E+00   24.3     1.44785284     -1080.6114317382 -8.25E-01
   255 Broy./Diag. 0.40E+00   24.1     1.24717169     -1078.2981601815  2.31E+00
   256 Broy./Diag. 0.40E+00   24.9     1.40130336     -1075.6091763564  2.69E+00
   257 Broy./Diag. 0.40E+00   24.6     1.55631713     -1075.7560953679 -1.47E-01
   258 Broy./Diag. 0.40E+00   24.0     1.70436337     -1074.2725348912  1.48E+00
   259 Broy./Diag. 0.40E+00   24.1     1.35325228     -1075.1742337036 -9.02E-01
   260 Broy./Diag. 0.40E+00   24.8     1.67223619     -1074.7021078281  4.72E-01
   261 Broy./Diag. 0.40E+00   24.1     1.71557665     -1075.3736410816 -6.72E-01
   262 Broy./Diag. 0.40E+00   23.0     1.32387747     -1073.3268426475  2.05E+00
   263 Broy./Diag. 0.40E+00   22.5     1.51313348     -1079.9013960376 -6.57E+00
   264 Broy./Diag. 0.40E+00   23.8     1.42689075     -1080.1988436436 -2.97E-01
   265 Broy./Diag. 0.40E+00   24.0     1.20601519     -1078.4970343899  1.70E+00
   266 Broy./Diag. 0.40E+00   23.5     1.52451108     -1076.2569286701  2.24E+00
   267 Broy./Diag. 0.40E+00   24.0     1.55731370     -1075.2596499270  9.97E-01
   268 Broy./Diag. 0.40E+00   24.2     1.70987833     -1074.6572786394  6.02E-01
   269 Broy./Diag. 0.40E+00   24.4     1.23310378     -1075.3327431190 -6.75E-01
   270 Broy./Diag. 0.40E+00   22.6     1.67494047     -1074.5395744807  7.93E-01
   271 Broy./Diag. 0.40E+00   22.7     1.71576041     -1075.2588658398 -7.19E-01
   272 Broy./Diag. 0.40E+00   23.7     1.31526881     -1073.2576208692  2.00E+00
   273 Broy./Diag. 0.40E+00   24.0     1.51083612     -1079.8064572552 -6.55E+00
   274 Broy./Diag. 0.40E+00   24.0     1.54634498     -1078.8666068739  9.40E-01
   275 Broy./Diag. 0.40E+00   24.0     1.17811284     -1077.2062324012  1.66E+00
   276 Broy./Diag. 0.40E+00   24.2     1.53977128     -1076.7945912258  4.12E-01
   277 Broy./Diag. 0.40E+00   23.6     1.54792261     -1075.9281897644  8.66E-01
   278 Broy./Diag. 0.40E+00   24.3     1.69267399     -1075.0267729580  9.01E-01
   279 Broy./Diag. 0.40E+00   24.8     1.31166792     -1075.1601675767 -1.33E-01
   280 Broy./Diag. 0.40E+00   24.9     1.67498699     -1074.5917858273  5.68E-01
   281 Broy./Diag. 0.40E+00   24.3     1.70975255     -1075.2820420775 -6.90E-01
   282 Broy./Diag. 0.40E+00   24.5     1.27709257     -1073.4032649846  1.88E+00
   283 Broy./Diag. 0.40E+00   24.7     1.50668642     -1079.5676842783 -6.16E+00
   284 Broy./Diag. 0.40E+00   24.6     1.56477200     -1078.8645337714  7.03E-01
   285 Broy./Diag. 0.40E+00   25.2     1.18625375     -1076.6903996734  2.17E+00
   286 Broy./Diag. 0.40E+00   24.6     1.52967015     -1076.6349023179  5.55E-02
   287 Broy./Diag. 0.40E+00   25.8     1.54987480     -1075.9887730288  6.46E-01
   288 Broy./Diag. 0.40E+00   24.5     1.67619231     -1075.7895394348  1.99E-01
   289 Broy./Diag. 0.40E+00   24.9     1.22323469     -1076.7797445195 -9.90E-01
   290 Broy./Diag. 0.40E+00   24.8     1.68004695     -1074.2748852123  2.50E+00
   291 Broy./Diag. 0.40E+00   23.8     1.73600473     -1075.2911718976 -1.02E+00
   292 Broy./Diag. 0.40E+00   24.0     1.29117029     -1072.8636492307  2.43E+00
   293 Broy./Diag. 0.40E+00   24.6     1.50967029     -1079.5744021724 -6.71E+00
   294 Broy./Diag. 0.40E+00   24.7     1.52204437     -1080.2268080098 -6.52E-01
   295 Broy./Diag. 0.40E+00   24.9     1.20392653     -1076.4621823914  3.76E+00
   296 Broy./Diag. 0.40E+00   22.7     1.43386706     -1076.6910942711 -2.29E-01
   297 Broy./Diag. 0.40E+00   24.3     1.57293745     -1075.8545019687  8.37E-01
   298 Broy./Diag. 0.40E+00   23.9     1.70183078     -1076.1065103853 -2.52E-01
   299 Broy./Diag. 0.40E+00   24.2     1.21959790     -1074.9367909446  1.17E+00
   300 Broy./Diag. 0.40E+00   25.0     1.68176610     -1074.5794028814  3.57E-01

  Leaving inner SCF loop after reaching   300 steps.


  Electronic density on regular grids:       -512.0002039525       -0.0002039525
  Core density on regular grids:              512.0000656767        0.0000656767
  Total charge density on r-space grids:       -0.0001382758
  Total charge density g-space grids:          -0.0001382758

  Overlap energy of the core charge distribution:               0.00000000000000
  Self energy of the core charge distribution:              -2838.21791979120962
  Core Hamiltonian energy:                                    761.82900355859272
  Hartree energy:                                            1240.37991366243364
  Exchange-correlation energy:                               -238.57040031118072

  Total energy:                                             -1074.57940288136388

 *** WARNING in qs_scf.F:542 :: SCF run NOT converged ***


 ENERGY| Total FORCE_EVAL ( QS ) energy (a.u.):            -1072.885421541133155


 ATOMIC FORCES in [a.u.]

 # Atom   Kind   Element          X              Y              Z
      1      1      O          -0.01313170     0.02725284    -0.04466231
      2      2      H           0.04523570     0.03120619     0.06712100
      3      2      H           0.00467288     0.01688563    -0.03258501
      4      1      O          -0.08942971    -0.03494123    -0.00659846
      5      2      H           0.01386601    -0.04094837    -0.02052703
      6      2      H           0.04345861     0.07249742     0.02681682
      7      1      O           0.00395161    -0.07470924     0.11071908
      8      2      H           0.01480145     0.04518482    -0.00736226
      9      2      H          -0.04989615    -0.02421021    -0.09196717
     10      1      O          -0.05181429     0.15713668    -0.00981647
     11      2      H           0.09390725    -0.04220281    -0.04820066
     12      2      H          -0.04176078    -0.01309588     0.06927784
     13      1      O           0.08925717     0.08259044    -0.01308217
     14      2      H          -0.02320665    -0.00888011     0.09234846
     15      2      H          -0.06394518    -0.02502957     0.00050634
     16      1      O           0.04698203     0.05927239     0.05375647
     17      2      H           0.03465452     0.01622560    -0.05551132
     18      2      H          -0.05938929    -0.05764149    -0.02048086
     19      1      O           0.02304470    -0.08073672    -0.03280139
     20      2      H          -0.08500194     0.01547439    -0.06640473
     21      2      H           0.07945295    -0.02223514    -0.00538710
     22      1      O           0.08412231    -0.15317182     0.06306527
     23      2      H          -0.02192248     0.06000293     0.12336139
     24      2      H          -0.09128888    -0.00806901    -0.09987009
     25      1      O          -0.06752916     0.08151488     0.07817103
     26      2      H          -0.00975183     0.06157346    -0.00977039
     27      2      H           0.05546176    -0.05029817    -0.08631352
     28      1      O           0.09510443    -0.00157002    -0.06870997
     29      2      H          -0.04047828    -0.07868964     0.07275884
     30      2      H          -0.03729215    -0.04250861    -0.05517844
     31      1      O          -0.07911247    -0.03822961    -0.15299124
     32      2      H           0.01980169     0.02121124     0.04993692
     33      2      H           0.05754947    -0.08777021    -0.02532856
     34      1      O           0.08049357    -0.09556613     0.05319250
     35      2      H          -0.01208996    -0.01447191    -0.07807059
     36      2      H          -0.04282504     0.02024357    -0.01641091
     37      1      O           0.01720127     0.08824335     0.03254265
     38      2      H           0.04175573     0.03428625    -0.03637101
     39      2      H          -0.03882720    -0.05782059    -0.07305430
     40      1      O           0.04609383    -0.13096405     0.09383865
     41      2      H          -0.05509071     0.01334945     0.05925250
     42      2      H          -0.00865677     0.02580644    -0.06007525
     43      1      O          -0.08951237     0.01683164    -0.05919728
     44      2      H           0.05404746     0.02254681     0.04064862
     45      2      H           0.00386029    -0.07862939    -0.06420122
     46      1      O           0.03464485    -0.01866354    -0.05849618
     47      2      H           0.00478099    -0.09041657    -0.00265036
     48      2      H          -0.05437085     0.01267476     0.03203874
     49      1      O           0.02397501    -0.14159845     0.10462070
     50      2      H           0.04429824     0.09066640    -0.03253395
     51      2      H          -0.06475227     0.00685009    -0.04882145
     52      1      O          -0.05031211     0.00505806     0.00839747
     53      2      H           0.05113240    -0.01894186    -0.07872110
     54      2      H           0.02055223     0.03824379     0.06556895
     55      1      O           0.05152916     0.09030647    -0.17457289
     56      2      H          -0.02929813     0.00129774     0.07438997
     57      2      H          -0.05204984    -0.04842952     0.01372817
     58      1      O           0.10107693     0.00948403     0.03444069
     59      2      H          -0.06557484     0.04051974    -0.03722835
     60      2      H          -0.03725822    -0.07610715     0.03150741
     61      1      O           0.00389388    -0.01544490     0.12930561
     62      2      H           0.02564121     0.06943742    -0.00196099
     63      2      H          -0.01143819     0.02290294    -0.06341751
     64      1      O           0.03288864    -0.01074492     0.09867076
     65      2      H          -0.05836932     0.03548194     0.01032752
     66      2      H          -0.00552502    -0.01938519    -0.07006454
     67      1      O           0.02461915     0.08805073    -0.11687040
     68      2      H           0.00211640    -0.06836725     0.02287751
     69      2      H          -0.04639096    -0.00684590     0.04412153
     70      1      O          -0.02497517    -0.07911993    -0.08078448
     71      2      H           0.09938016    -0.00873339    -0.03079976
     72      2      H          -0.06103132     0.05222683     0.01097863
     73      1      O           0.05502211     0.02921794     0.14823004
     74      2      H          -0.01427413     0.04113271    -0.07530050
     75      2      H          -0.00861576    -0.09059156    -0.02602688
     76      1      O           0.00735130     0.01519156     0.08867246
     77      2      H          -0.03301264    -0.01743195    -0.00517684
     78      2      H           0.01323171     0.01793088    -0.05806693
     79      1      O           0.08483681     0.09522299    -0.08465933
     80      2      H          -0.02775038    -0.07224210    -0.06163818
     81      2      H          -0.03856011     0.03505041     0.01678907
     82      1      O          -0.08495391    -0.01716442    -0.06843461
     83      2      H           0.03244715    -0.02797164     0.09118116
     84      2      H           0.02080107     0.06520834     0.07321410
     85      1      O          -0.05815947    -0.04661258    -0.09295983
     86      2      H           0.02458287     0.07412199    -0.04183190
     87      2      H           0.04050111    -0.06059042     0.04468864
     88      1      O          -0.06240582     0.00327075    -0.11824437
     89      2      H          -0.03258023    -0.01336029     0.01559315
     90      2      H           0.04957848     0.02200344    -0.02307119
     91      1      O          -0.01176892     0.02185752    -0.01151102
     92      2      H           0.03712955    -0.06318610    -0.00649492
     93      2      H          -0.03103122    -0.04336927    -0.04180977
     94      1      O           0.08696526    -0.01956981    -0.08383287
     95      2      H          -0.03515587    -0.02287220     0.07525748
     96      2      H          -0.04407402     0.01423761    -0.08676488
     97      1      O          -0.12765388    -0.07777331    -0.05103609
     98      2      H           0.03782382     0.06596977     0.06054846
     99      2      H           0.08219518    -0.03123698    -0.01138088
    100      1      O          -0.03169317     0.06490771    -0.06066672
    101      2      H           0.03748608    -0.08499458     0.07324302
    102      2      H          -0.03639996     0.08639090     0.07127935
    103      1      O           0.11601813     0.05974638    -0.08220090
    104      2      H          -0.04962338     0.05384561    -0.06318148
    105      2      H          -0.05728325    -0.00150886     0.00185611
    106      1      O           0.00268285    -0.01530285    -0.00444894
    107      2      H          -0.02895827    -0.11336916     0.02659964
    108      2      H          -0.02700393     0.02698766     0.10711019
    109      1      O           0.00658845    -0.03894697    -0.04335098
    110      2      H          -0.02746985     0.01531417     0.07099927
    111      2      H           0.00269826     0.05223904    -0.06233313
    112      1      O           0.05108697    -0.01907974    -0.12018925
    113      2      H           0.03915151     0.01942282     0.05225468
    114      2      H          -0.04951853     0.04372580     0.02778576
    115      1      O           0.04674498    -0.03437446     0.04859383
    116      2      H          -0.04623809    -0.08405655    -0.03047258
    117      2      H          -0.01712208     0.03456835     0.07744007
    118      1      O           0.04425082    -0.04525994     0.07650826
    119      2      H           0.05492633     0.00130749    -0.00953059
    120      2      H          -0.06865073     0.02753969    -0.06434125
    121      1      O           0.04492244     0.03140222     0.09589486
    122      2      H          -0.00322047    -0.00447567     0.03839878
    123      2      H          -0.02525326    -0.02285699     0.00857329
    124      1      O          -0.09554987    -0.09507057    -0.03990135
    125      2      H           0.08426797    -0.03755711    -0.05139162
    126      2      H           0.04315813     0.03291739     0.07297259
    127      1      O          -0.03856768    -0.04503061     0.08541670
    128      2      H           0.07656221     0.00106655    -0.03000009
    129      2      H          -0.05232597     0.01930180     0.00375029
    130      1      O           0.02744457     0.09970321     0.09313760
    131      2      H           0.00856291    -0.01991937    -0.02924684
    132      2      H          -0.01247164    -0.06704324     0.01084674
    133      1      O          -0.04410069     0.06436085     0.08036532
    134      2      H          -0.01280589     0.02545195     0.01338642
    135      2      H           0.03360164    -0.02989384    -0.00626272
    136      1      O          -0.06043914     0.08872213     0.11342572
    137      2      H           0.03748863     0.00383183     0.05830342
    138      2      H           0.02586266    -0.05672010    -0.11211637
    139      1      O          -0.09118874    -0.14487070     0.02044324
    140      2      H           0.04506549     0.02943003     0.10158240
    141      2      H           0.00666467     0.03634834    -0.02819845
    142      1      O          -0.02836727     0.00287958    -0.00951371
    143      2      H           0.04373562     0.02676698     0.03600302
    144      2      H          -0.05418040    -0.01964078    -0.11462554
    145      1      O           0.01491063    -0.09787912     0.06422000
    146      2      H           0.05836754     0.00728000    -0.05763991
    147      2      H          -0.07305262     0.01839433     0.01087935
    148      1      O           0.08474480     0.13059800    -0.13229287
    149      2      H          -0.01020343    -0.08570706     0.05869472
    150      2      H          -0.08623863     0.03758601     0.00605367
    151      1      O           0.12022399    -0.20379285    -0.10941640
    152      2      H           0.08180214     0.10768870     0.07146225
    153      2      H          -0.21987906     0.10927273     0.08423332
    154      1      O          -0.03413062    -0.07322380    -0.05644616
    155      2      H           0.00496347     0.08707212     0.01059337
    156      2      H          -0.01232252    -0.00131636     0.10678923
    157      1      O           0.09222793    -0.11174482     0.09114920
    158      2      H          -0.07685380     0.03972285     0.06281369
    159      2      H          -0.01375894     0.05055829    -0.09917271
    160      1      O           0.01806505     0.06254209    -0.09998469
    161      2      H           0.03447944    -0.03033192     0.01994799
    162      2      H          -0.06574964    -0.03678672    -0.04234347
    163      1      O           0.03822467     0.01061210     0.07592708
    164      2      H          -0.05979470     0.02717547     0.05327284
    165      2      H          -0.00917544    -0.03754007    -0.05939867
    166      1      O           0.03690249     0.14042798     0.05757253
    167      2      H           0.00552086    -0.06378362     0.07062941
    168      2      H          -0.07092947    -0.03372854    -0.08164522
    169      1      O           0.07524930     0.01507517    -0.12203003
    170      2      H          -0.10584427     0.02557346     0.00695826
    171      2      H           0.03335405     0.07839383     0.06992225
    172      1      O          -0.00347484     0.06794120     0.02728113
    173      2      H           0.01854464    -0.03959975    -0.06254743
    174      2      H          -0.04190527     0.06747675    -0.00321384
    175      1      O           0.05076749     0.02679876     0.08041062
    176      2      H          -0.05846456    -0.01149927    -0.06302436
    177      2      H           0.02610246    -0.03797675     0.03105306
    178      1      O           0.06234880    -0.00357616    -0.01524656
    179      2      H           0.01720676    -0.06237817    -0.01463911
    180      2      H          -0.06768238     0.09037768     0.03553256
    181      1      O           0.03959891    -0.02882384    -0.07451609
    182      2      H           0.04410765     0.04149411    -0.06241679
    183      2      H          -0.06398099     0.04672044    -0.00294435
    184      1      O           0.01647762     0.04481882    -0.03847834
    185      2      H          -0.02037041    -0.06933447     0.05351851
    186      2      H          -0.02277974    -0.07005046    -0.04495664
    187      1      O          -0.08678528     0.08428658    -0.02567104
    188      2      H           0.01461429    -0.02625926     0.11727457
    189      2      H           0.06792277    -0.00122921    -0.03346245
    190      1      O          -0.07957031     0.07534282     0.04308860
    191      2      H          -0.01691078    -0.02675293    -0.02813157
    192      2      H           0.07989200    -0.05372117     0.07033402
 SUM OF ATOMIC FORCES          -0.34422211    -0.18180753    -0.14943851     0.41698286

 -------------------------------------------------------------------------------
 -                                                                             -
 -                                DBCSR STATISTICS                             -
 -                                                                             -
 -------------------------------------------------------------------------------
 COUNTER                                    TOTAL       BLAS       SMM       ACC
 flops     5 x     5 x   256           3748774400       0.0%    100.0%      0.0%
 flops     5 x    13 x   256           4457689600       0.0%    100.0%      0.0%
 flops    13 x     5 x   256           4658035200       0.0%    100.0%      0.0%
 flops    13 x    13 x   256           6615411712       0.0%    100.0%      0.0%
 flops inhomo. stacks                           0       0.0%      0.0%      0.0%
 flops total                        19.479911E+09       0.0%    100.0%      0.0%
 flops max/rank                     19.479911E+09       0.0%    100.0%      0.0%
 matmuls inhomo. stacks                         0       0.0%      0.0%      0.0%
 matmuls total                             643237       0.0%    100.0%      0.0%
 number of processed stacks                 42140       0.0%    100.0%      0.0%
 average stack size                                     0.0      15.3       0.0
 marketing flops                   333.927416E+09
 -------------------------------------------------------------------------------
 # multiplications                            301
 max memory usage/rank              30.570385E+09
 # max total images/rank                        1
 # max 3D layers                                1
 # MPI messages exchanged                       0
 MPI messages size (bytes):
  total size                         0.000000E+00
  min size                           0.000000E+00
  max size                           0.000000E+00
  average size                       0.000000E+00
 MPI breakdown and total messages size (bytes):
             size <=      128                   0                        0
       128 < size <=     8192                   0                        0
      8192 < size <=    32768                   0                        0
     32768 < size <=   131072                   0                        0
    131072 < size <=  4194304                   0                        0
   4194304 < size <= 16777216                   0                        0
  16777216 < size                               0                        0
 -------------------------------------------------------------------------------

 MEMORY| Estimated peak process memory [MiB]                               29159

 -------------------------------------------------------------------------------
 -                                                                             -
 -                           R E F E R E N C E S                               -
 -                                                                             -
 -------------------------------------------------------------------------------
 
 CP2K version 7.1, the CP2K developers group (2019).
 CP2K is freely available from https://www.cp2k.org/ .

 Schuett, Ole; Messmer, Peter; Hutter, Juerg; VandeVondele, Joost. 
 Electronic Structure Calculations on Graphics Processing Units, John
 Wiley & Sons, Ltd, 173-190 (2016). 
 GPU-Accelerated Sparse Matrix-Matrix Multiplication for
 Linear Scaling Density Functional Theory.
 https://dx.doi.org/10.1002/9781118670712.ch8

 Borstnik, U; VandeVondele, J; Weber, V; Hutter, J. 
 PARALLEL COMPUTING, 40 (5-6), 47-58 (2014). 
 Sparse matrix multiplication: The distributed block-compressed sparse
 row library.
 https://dx.doi.org/10.1016/j.parco.2014.03.012

 Hutter, J; Iannuzzi, M; Schiffmann, F; VandeVondele, J. 
 WIREs Comput Mol Sci., 4 (1), 15-25 (2014). 
 CP2K: atomistic simulations of condensed matter systems.
 https://dx.doi.org/10.1002/wcms.1159

 Krack, M. 
 THEORETICAL CHEMISTRY ACCOUNTS, 114 (1-3), 145-152 (2005). 
 Pseudopotentials for H to Kr optimized for gradient-corrected
 exchange-correlation functionals.
 https://dx.doi.org/10.1007/s00214-005-0655-y

 VandeVondele, J; Krack, M; Mohamed, F; Parrinello, M; Chassaing, T;
 Hutter, J. COMPUTER PHYSICS COMMUNICATIONS, 167 (2), 103-128 (2005). 
 QUICKSTEP: Fast and accurate density functional calculations using a
 mixed Gaussian and plane waves approach.
 https://dx.doi.org/10.1016/j.cpc.2004.12.014

 Frigo, M; Johnson, SG. 
 PROCEEDINGS OF THE IEEE, 93 (2), 216-231 (2005). 
 The design and implementation of FFTW3.
 https://dx.doi.org/10.1109/JPROC.2004.840301

 Hartwigsen, C; Goedecker, S; Hutter, J. 
 PHYSICAL REVIEW B, 58 (7), 3641-3662 (1998). 
 Relativistic separable dual-space Gaussian pseudopotentials from H to Rn.
 https://dx.doi.org/10.1103/PhysRevB.58.3641

 Lippert, G; Hutter, J; Parrinello, M. 
 MOLECULAR PHYSICS, 92 (3), 477-487 (1997). 
 A hybrid Gaussian and plane wave density functional scheme.
 https://dx.doi.org/10.1080/002689797170220

 Goedecker, S; Teter, M; Hutter, J. 
 PHYSICAL REVIEW B, 54 (3), 1703-1710 (1996). 
 Separable dual-space Gaussian pseudopotentials.
 https://dx.doi.org/10.1103/PhysRevB.54.1703


 -------------------------------------------------------------------------------
 -                                                                             -
 -                                T I M I N G                                  -
 -                                                                             -
 -------------------------------------------------------------------------------
 SUBROUTINE                       CALLS  ASD         SELF TIME        TOTAL TIME
                                MAXIMUM       AVERAGE  MAXIMUM  AVERAGE  MAXIMUM
 CP2K                                 1  1.0    1.039    1.039 7266.002 7266.002
 qs_forces                            1  2.0    0.000    0.000 7254.834 7254.834
 qs_energies                          1  3.0    0.000    0.000 7251.079 7251.079
 scf_env_do_scf                       1  4.0    0.001    0.001 7239.221 7239.221
 scf_env_do_scf_inner_loop          300  5.0    0.059    0.059 7239.220 7239.220
 gspace_mixing                      299  6.0   42.332   42.332 3021.020 3021.020
 broyden_mixing                     299  7.0 2731.810 2731.810 2731.814 2731.814
 qs_scf_new_mos                     300  6.0    0.009    0.009 1972.379 1972.379
 eigensolver                        300  7.0    0.036    0.036 1902.112 1902.112
 cp_fm_syevd                        300  8.0 1269.825 1269.825 1271.112 1271.112
 pw_transfer                       3912  9.9    0.389    0.389 1191.427 1191.427
 rebuild_ks_matrix                  301  7.0    0.001    0.001 1174.275 1174.275
 qs_ks_build_kohn_sham_matrix       301  8.0    0.119    0.119 1174.275 1174.275
 qs_ks_update_qs_env                300  6.0    0.004    0.004 1171.008 1171.008
 fft_wrap_pw1pw2                   3310 10.9    0.054    0.054 1159.096 1159.096
 qs_rho_update_rho                  301  6.0    0.003    0.003 1075.621 1075.621
 calculate_rho_elec                 301  7.0  520.963  520.963 1075.618 1075.618
 fft_wrap_pw1pw2_70                1504 11.2   91.387   91.387 1049.139 1049.139
 cp_fm_cholesky_restore             900  8.0  629.925  629.925  629.925  629.925
 fft3d_s                           3311 12.9  556.357  556.357  556.432  556.432
 density_rs2pw                      301  8.0    0.032    0.032  544.771  544.771
 pw_scatter_s                      1804 13.2  410.746  410.746  410.746  410.746
 pw_poisson_solve                   301  9.0  334.911  334.911  367.208  367.208
 sum_up_and_integrate               301  9.0   17.991   17.991  343.477  343.477
 integrate_v_rspace                 301 10.0   10.853   10.853  325.486  325.486
 potential_pw2rs                    301 11.0    2.600    2.600  289.618  289.618
 qs_vxc_create                      301  9.0    0.008    0.008  167.108  167.108
 xc_vxc_pw_create                   301 10.0   42.365   42.365  167.100  167.100
 -------------------------------------------------------------------------------

 The number of warnings for this run is : 1
 
 -------------------------------------------------------------------------------
  **** **** ******  **  PROGRAM ENDED AT                 2020-05-29 07:11:52.436
 ***** ** ***  *** **   PROGRAM RAN ON                                   gnode44
 **    ****   ******    PROGRAM RAN BY                               mayank.modi
 ***** **    ** ** **   PROGRAM PROCESS ID                                 27190
  **** **  *******  **  PROGRAM STOPPED IN /home/mayank.modi/ab-initio-thermodyn
                                           amics-of-water/mayank/cp2k_energy_cal
                                           culations
