 DBCSR| CPU Multiplication driver                                           XSMM
 DBCSR| Multrec recursion limit                                              512
 DBCSR| Multiplication stack size                                           1000
 DBCSR| Maximum elements for images                                    UNLIMITED
 DBCSR| Multiplicative factor virtual images                                   1
 DBCSR| Use multiplication densification                                       T
 DBCSR| Multiplication size stacks                                             3


  **** **** ******  **  PROGRAM STARTED AT               2020-05-26 22:06:09.827
 ***** ** ***  *** **   PROGRAM STARTED ON                               gnode44
 **    ****   ******    PROGRAM STARTED BY                           mayank.modi
 ***** **    ** ** **   PROGRAM PROCESS ID                                 25663
  **** **  *******  **  PROGRAM STARTED IN /home/mayank.modi/ab-initio-thermodyn
                                           amics-of-water/mayank/cp2k_energy_cal
                                           culations

 CP2K| version string:                                          CP2K version 7.1
 CP2K| source code revision number:                                  git:e635599
 CP2K| cp2kflags: omp libint fftw3 libxc xsmm spglib                            
 CP2K| is freely available from                            https://www.cp2k.org/
 CP2K| Program compiled at                          Mon Dec 23 19:23:12 CET 2019
 CP2K| Program compiled on                                                pc9404
 CP2K| Program compiled for                                Linux-x86-64-gfortran
 CP2K| Data directory path                                        /opt/cp2k/data
 CP2K| Input file name                                  input_training/input3.in

 GLOBAL| Force Environment number                                              1
 GLOBAL| Basis set file name                                           BASIS_SET
 GLOBAL| Potential file name                                      GTH_POTENTIALS
 GLOBAL| MM Potential file name                                     MM_POTENTIAL
 GLOBAL| Coordinate file name                                      __STD_INPUT__
 GLOBAL| Method name                                                        CP2K
 GLOBAL| Project name                                                   H2O_bulk
 GLOBAL| Preferred FFT library                                             FFTW3
 GLOBAL| Preferred diagonalization lib.                                       SL
 GLOBAL| Run type                                                   ENERGY_FORCE
 GLOBAL| All-to-all communication in single precision                          F
 GLOBAL| FFTs using library dependent lengths                                  F
 GLOBAL| Global print level                                                  LOW
 GLOBAL| MPI I/O enabled                                                       T
 GLOBAL| Total number of message passing processes                             1
 GLOBAL| Number of threads for this process                                   36
 GLOBAL| This output is from process                                           0
 GLOBAL| CPU model name                Intel(R) Xeon(R) CPU E5-2640 v4 @ 2.40GHz
 GLOBAL| CPUID                                                              1002
 GLOBAL| Compiled for CPUID                                                    0

 MEMORY| system memory details [Kb]
 MEMORY|                        rank 0           min           max       average
 MEMORY| MemTotal            131893056     131893056     131893056     131893056
 MEMORY| MemFree             121477420     121477420     121477420     121477420
 MEMORY| Buffers               2077268       2077268       2077268       2077268
 MEMORY| Cached                2778892       2778892       2778892       2778892
 MEMORY| Slab                  3295568       3295568       3295568       3295568
 MEMORY| SReclaimable          3096640       3096640       3096640       3096640
 MEMORY| MemLikelyFree       129430220     129430220     129430220     129430220


 GENERATE| WARNING:: No connections detected for Hydrogen - Atom Nr:        21 !
 GENERATE| WARNING:: No connections detected for Hydrogen - Atom Nr:        38 !
 GENERATE| WARNING:: No connections detected for Hydrogen - Atom Nr:        39 !
 GENERATE| WARNING:: No connections detected for Hydrogen - Atom Nr:        42 !
 GENERATE| WARNING:: No connections detected for Hydrogen - Atom Nr:        51 !
 GENERATE| WARNING:: No connections detected for Hydrogen - Atom Nr:        56 !
 GENERATE| WARNING:: No connections detected for Hydrogen - Atom Nr:        77 !
 GENERATE| WARNING:: No connections detected for Hydrogen - Atom Nr:       101 !
 GENERATE| WARNING:: No connections detected for Hydrogen - Atom Nr:       143 !
 GENERATE| WARNING:: No connections detected for Hydrogen - Atom Nr:       153 !
 GENERATE| WARNING:: No connections detected for Hydrogen - Atom Nr:       176 !
 GENERATE| WARNING:: No connections detected for Hydrogen - Atom Nr:       179 !
 GENERATE| WARNING:: No connections detected for Hydrogen - Atom Nr:       191 !
 GENERATE|  Preliminary Number of Bonds generated:                             0
 GENERATE|  Achieved consistency in connectivity generation.

 *******************************************************************************
 *******************************************************************************
 **                                                                           **
 **     #####                         ##              ##                      **
 **    ##   ##            ##          ##              ##                      **
 **   ##     ##                       ##            ######                    **
 **   ##     ##  ##   ##  ##   #####  ##  ##   ####   ##    #####    #####    **
 **   ##     ##  ##   ##  ##  ##      ## ##   ##      ##   ##   ##  ##   ##   **
 **   ##  ## ##  ##   ##  ##  ##      ####     ###    ##   ######   ######    **
 **    ##  ###   ##   ##  ##  ##      ## ##      ##   ##   ##       ##        **
 **     #######   #####   ##   #####  ##  ##  ####    ##    #####   ##        **
 **           ##                                                    ##        **
 **                                                                           **
 **                                                ... make the atoms dance   **
 **                                                                           **
 **            Copyright (C) by CP2K developers group (2000 - 2019)           **
 **                                                                           **
 *******************************************************************************


 TOTAL NUMBERS AND MAXIMUM NUMBERS

  Total number of            - Atomic kinds:                                   2
                             - Atoms:                                        192
                             - Shell sets:                                   384
                             - Shells:                                       704
                             - Primitive Cartesian functions:                960
                             - Cartesian basis functions:                   1536
                             - Spherical basis functions:                   1472

  Maximum angular momentum of- Orbital basis functions:                        2
                             - Local part of the GTH pseudopotential:          2
                             - Non-local part of the GTH pseudopotential:      0


 SCF PARAMETERS         Density guess:                                    ATOMIC
                        --------------------------------------------------------
                        max_scf:                                             300
                        max_scf_history:                                       0
                        max_diis:                                              4
                        --------------------------------------------------------
                        eps_scf:                                        1.00E-07
                        eps_scf_history:                                0.00E+00
                        eps_diis:                                       1.00E-01
                        eps_eigval:                                     1.00E-05
                        --------------------------------------------------------
                        level_shift [a.u.]:                                 0.00
                        --------------------------------------------------------
                        Mixing method:                            BROYDEN_MIXING
                                                charge density mixing in g-space
                        --------------------------------------------------------
                        No outer SCF

 Number of electrons:                                                        512
 Number of occupied orbitals:                                                256
 Number of molecular orbitals:                                               256

 Number of orbital functions:                                               1472
 Number of independent orbital functions:                                   1472

 Extrapolation method: initial_guess


 SCF WAVEFUNCTION OPTIMIZATION

  Step     Update method      Time    Convergence         Total energy    Change
  ------------------------------------------------------------------------------
     1 NoMix/Diag. 0.40E+00   10.1     0.68793960     -1063.2359293800 -1.06E+03
     2 Broy./Diag. 0.40E+00   15.0     1.95492487      -983.4350882780  7.98E+01
     3 Broy./Diag. 0.40E+00   16.5     1.90141302     -1298.6167861463 -3.15E+02
     4 Broy./Diag. 0.40E+00   18.4     1.85173170     -1160.2862905175  1.38E+02
     5 Broy./Diag. 0.40E+00   19.1     1.96648672     -1110.4260983561  4.99E+01
     6 Broy./Diag. 0.40E+00   19.1     1.87699678     -1079.2986526336  3.11E+01
     7 Broy./Diag. 0.40E+00   19.2     1.85148348     -1109.1419063767 -2.98E+01
     8 Broy./Diag. 0.40E+00   19.9     1.94528414     -1089.4425116299  1.97E+01
     9 Broy./Diag. 0.40E+00   21.9     1.88983683     -1087.2515350419  2.19E+00
    10 Broy./Diag. 0.40E+00   23.8     1.89762541     -1072.1497312585  1.51E+01
    11 Broy./Diag. 0.40E+00   25.0     1.95648078     -1068.9790432523  3.17E+00
    12 Broy./Diag. 0.40E+00   23.9     1.87538471     -1086.2451507656 -1.73E+01
    13 Broy./Diag. 0.40E+00   23.9     1.90972901     -1060.2519643441  2.60E+01
    14 Broy./Diag. 0.40E+00   24.0     1.92048277     -1092.0506947281 -3.18E+01
    15 Broy./Diag. 0.40E+00   24.0     1.93063292     -1075.0124101366  1.70E+01
    16 Broy./Diag. 0.40E+00   24.7     1.81479714     -1074.8626119597  1.50E-01
    17 Broy./Diag. 0.40E+00   24.7     1.84368103     -1069.9234660031  4.94E+00
    18 Broy./Diag. 0.40E+00   25.4     1.84173961     -1081.6129923121 -1.17E+01
    19 Broy./Diag. 0.40E+00   23.6     1.84437007     -1071.9790458068  9.63E+00
    20 Broy./Diag. 0.40E+00   23.7     1.89595598     -1081.1951930224 -9.22E+00
    21 Broy./Diag. 0.40E+00   23.5     1.88487358     -1057.7273760959  2.35E+01
    22 Broy./Diag. 0.40E+00   24.5     1.91365670     -1081.2908371755 -2.36E+01
    23 Broy./Diag. 0.40E+00   24.9     1.89241114     -1082.0603937185 -7.70E-01
    24 Broy./Diag. 0.40E+00   24.0     1.87853202     -1067.1839151936  1.49E+01
    25 Broy./Diag. 0.40E+00   24.2     1.90311924     -1078.9475207184 -1.18E+01
    26 Broy./Diag. 0.40E+00   24.2     1.90167169     -1077.3765328112  1.57E+00
    27 Broy./Diag. 0.40E+00   24.0     1.88676136     -1070.9796417582  6.40E+00
    28 Broy./Diag. 0.40E+00   24.1     1.86171248     -1075.9513120518 -4.97E+00
    29 Broy./Diag. 0.40E+00   24.2     1.97680668     -1080.3474748981 -4.40E+00
    30 Broy./Diag. 0.40E+00   24.9     1.90540839     -1066.7607831710  1.36E+01
    31 Broy./Diag. 0.40E+00   23.7     1.84710434     -1075.3777912021 -8.62E+00
    32 Broy./Diag. 0.40E+00   23.7     1.81858942     -1077.9578593246 -2.58E+00
    33 Broy./Diag. 0.40E+00   23.8     1.92296945     -1062.1489322446  1.58E+01
    34 Broy./Diag. 0.40E+00   24.4     1.94250481     -1081.5749507802 -1.94E+01
    35 Broy./Diag. 0.40E+00   24.1     1.90405445     -1073.6955583355  7.88E+00
    36 Broy./Diag. 0.40E+00   24.1     1.85725852     -1066.2133677110  7.48E+00
    37 Broy./Diag. 0.40E+00   23.2     1.90679891     -1079.0415459431 -1.28E+01
    38 Broy./Diag. 0.40E+00   21.8     1.90023065     -1081.7099061563 -2.67E+00
    39 Broy./Diag. 0.40E+00   22.4     1.90098146     -1069.0401387435  1.27E+01
    40 Broy./Diag. 0.40E+00   22.9     1.90600422     -1065.4932508037  3.55E+00
    41 Broy./Diag. 0.40E+00   24.1     1.79112481     -1082.0296831961 -1.65E+01
    42 Broy./Diag. 0.40E+00   23.7     1.87567664     -1074.4839859562  7.55E+00
    43 Broy./Diag. 0.40E+00   23.9     1.93202810     -1066.9168708902  7.57E+00
    44 Broy./Diag. 0.40E+00   24.1     1.82078135     -1080.6250551005 -1.37E+01
    45 Broy./Diag. 0.40E+00   24.0     1.91522656     -1075.3210940910  5.30E+00
    46 Broy./Diag. 0.40E+00   22.6     1.85249447     -1079.9003705216 -4.58E+00
    47 Broy./Diag. 0.40E+00   23.4     1.88737461     -1071.4287413793  8.47E+00
    48 Broy./Diag. 0.40E+00   24.0     1.93664014     -1066.7899069310  4.64E+00
    49 Broy./Diag. 0.40E+00   23.5     1.84269937     -1070.8735967639 -4.08E+00
    50 Broy./Diag. 0.40E+00   23.0     1.85772224     -1070.2936878572  5.80E-01
    51 Broy./Diag. 0.40E+00   23.9     1.92569788     -1092.5480075977 -2.23E+01
    52 Broy./Diag. 0.40E+00   23.8     1.92050282     -1064.9090668586  2.76E+01
    53 Broy./Diag. 0.40E+00   23.9     1.91721831     -1077.6446431229 -1.27E+01
    54 Broy./Diag. 0.40E+00   24.1     1.89458389     -1075.6668065690  1.98E+00
    55 Broy./Diag. 0.40E+00   22.5     1.90827748     -1067.8669980774  7.80E+00
    56 Broy./Diag. 0.40E+00   24.7     1.92026566     -1071.6705627161 -3.80E+00
    57 Broy./Diag. 0.40E+00   22.3     1.93966635     -1086.1326496205 -1.45E+01
    58 Broy./Diag. 0.40E+00   23.3     1.85988260     -1073.4176622748  1.27E+01
    59 Broy./Diag. 0.40E+00   23.9     1.86604371     -1067.1479267432  6.27E+00
    60 Broy./Diag. 0.40E+00   23.8     1.93173401     -1077.1416634251 -9.99E+00
    61 Broy./Diag. 0.40E+00   22.9     1.88525144     -1067.4916975845  9.65E+00
    62 Broy./Diag. 0.40E+00   23.9     1.93017662     -1079.5149948514 -1.20E+01
    63 Broy./Diag. 0.40E+00   23.5     1.90119440     -1068.8406279547  1.07E+01
    64 Broy./Diag. 0.40E+00   24.3     1.90781997     -1074.6126015023 -5.77E+00
    65 Broy./Diag. 0.40E+00   24.1     1.90782017     -1076.6661412549 -2.05E+00
    66 Broy./Diag. 0.40E+00   24.3     1.96377142     -1083.5916685373 -6.93E+00
    67 Broy./Diag. 0.40E+00   24.1     1.86354098     -1067.0740166087  1.65E+01
    68 Broy./Diag. 0.40E+00   24.5     1.90038017     -1079.0035566053 -1.19E+01
    69 Broy./Diag. 0.40E+00   24.4     1.90286498     -1067.4649220454  1.15E+01
    70 Broy./Diag. 0.40E+00   24.3     1.85013131     -1063.8816928392  3.58E+00
    71 Broy./Diag. 0.40E+00   24.1     1.93649061     -1079.1914695266 -1.53E+01
    72 Broy./Diag. 0.40E+00   24.0     1.86049362     -1075.3087101487  3.88E+00
    73 Broy./Diag. 0.40E+00   24.0     1.86091177     -1072.0695770140  3.24E+00
    74 Broy./Diag. 0.40E+00   24.3     1.93540475     -1072.7011681724 -6.32E-01
    75 Broy./Diag. 0.40E+00   24.2     1.94509415     -1071.3035357330  1.40E+00
    76 Broy./Diag. 0.40E+00   24.0     1.88369384     -1078.1951524518 -6.89E+00
    77 Broy./Diag. 0.40E+00   23.8     1.90453323     -1069.5089845702  8.69E+00
    78 Broy./Diag. 0.40E+00   23.9     1.90425185     -1069.8277851283 -3.19E-01
    79 Broy./Diag. 0.40E+00   23.2     1.89840699     -1086.9614162078 -1.71E+01
    80 Broy./Diag. 0.40E+00   21.5     1.91845090     -1076.6803893827  1.03E+01
    81 Broy./Diag. 0.40E+00   24.4     1.89166649     -1068.0664275565  8.61E+00
    82 Broy./Diag. 0.40E+00   23.6     1.86217979     -1075.7160596087 -7.65E+00
    83 Broy./Diag. 0.40E+00   23.9     1.86873315     -1064.5360836082  1.12E+01
    84 Broy./Diag. 0.40E+00   24.2     1.91828548     -1074.4651145379 -9.93E+00
    85 Broy./Diag. 0.40E+00   24.4     1.94004863     -1084.1177717606 -9.65E+00
    86 Broy./Diag. 0.40E+00   24.1     1.81775497     -1076.5078151669  7.61E+00
    87 Broy./Diag. 0.40E+00   24.2     1.89802706     -1080.2071609591 -3.70E+00
    88 Broy./Diag. 0.40E+00   23.7     1.89596762     -1063.2711012044  1.69E+01
    89 Broy./Diag. 0.40E+00   25.1     1.94731345     -1070.3173254473 -7.05E+00
    90 Broy./Diag. 0.40E+00   22.9     1.82364944     -1064.6415301230  5.68E+00
    91 Broy./Diag. 0.40E+00   24.0     1.94056035     -1078.2334884678 -1.36E+01
    92 Broy./Diag. 0.40E+00   24.4     1.93893421     -1077.0374612782  1.20E+00
    93 Broy./Diag. 0.40E+00   23.9     1.92193305     -1075.2448481442  1.79E+00
    94 Broy./Diag. 0.40E+00   23.7     1.88329803     -1067.7330510529  7.51E+00
    95 Broy./Diag. 0.40E+00   24.9     1.91526626     -1068.8724816881 -1.14E+00
    96 Broy./Diag. 0.40E+00   24.3     1.92133394     -1073.1891392067 -4.32E+00
    97 Broy./Diag. 0.40E+00   23.8     1.93385947     -1080.8103102734 -7.62E+00
    98 Broy./Diag. 0.40E+00   23.5     1.88869024     -1080.0344283270  7.76E-01
    99 Broy./Diag. 0.40E+00   23.9     1.88874046     -1072.9550139886  7.08E+00
   100 Broy./Diag. 0.40E+00   24.1     1.90995679     -1063.4410032216  9.51E+00
   101 Broy./Diag. 0.40E+00   23.9     1.97574105     -1077.1855125981 -1.37E+01
   102 Broy./Diag. 0.40E+00   24.2     1.84606565     -1074.5420310033  2.64E+00
   103 Broy./Diag. 0.40E+00   24.1     1.86100560     -1069.4955396879  5.05E+00
   104 Broy./Diag. 0.40E+00   24.1     1.92822460     -1088.8064138671 -1.93E+01
   105 Broy./Diag. 0.40E+00   24.7     1.93389287     -1074.9927794877  1.38E+01
   106 Broy./Diag. 0.40E+00   24.4     1.88331346     -1068.5165143932  6.48E+00
   107 Broy./Diag. 0.40E+00   23.7     1.94253264     -1063.7259670967  4.79E+00
   108 Broy./Diag. 0.40E+00   23.9     1.90800334     -1072.1098226256 -8.38E+00
   109 Broy./Diag. 0.40E+00   24.0     1.88742848     -1075.7311611345 -3.62E+00
   110 Broy./Diag. 0.40E+00   23.9     1.88271982     -1081.2534468751 -5.52E+00
   111 Broy./Diag. 0.40E+00   24.1     1.88046016     -1073.7985800521  7.45E+00
   112 Broy./Diag. 0.40E+00   24.2     1.93282721     -1062.9547169437  1.08E+01
   113 Broy./Diag. 0.40E+00   23.7     1.90059844     -1071.0213368575 -8.07E+00
   114 Broy./Diag. 0.40E+00   24.1     1.87678578     -1085.2943896787 -1.43E+01
   115 Broy./Diag. 0.40E+00   25.0     1.93673186     -1079.1876000826  6.11E+00
   116 Broy./Diag. 0.40E+00   23.9     1.82898853     -1068.2624120540  1.09E+01
   117 Broy./Diag. 0.40E+00   24.5     1.89255215     -1074.2690840335 -6.01E+00
   118 Broy./Diag. 0.40E+00   24.5     1.87198902     -1075.3971362252 -1.13E+00
   119 Broy./Diag. 0.40E+00   23.9     1.96183401     -1071.0428794859  4.35E+00
   120 Broy./Diag. 0.40E+00   24.3     1.88552350     -1074.5270508959 -3.48E+00
   121 Broy./Diag. 0.40E+00   23.9     1.86288706     -1074.5547698525 -2.77E-02
   122 Broy./Diag. 0.40E+00   24.5     1.86558313     -1068.1654733723  6.39E+00
   123 Broy./Diag. 0.40E+00   21.6     1.84602884     -1074.7547382367 -6.59E+00
   124 Broy./Diag. 0.40E+00   23.4     1.86609375     -1076.1755034968 -1.42E+00
   125 Broy./Diag. 0.40E+00   23.9     1.92766130     -1073.6852000311  2.49E+00
   126 Broy./Diag. 0.40E+00   23.7     1.89138663     -1075.9302748190 -2.25E+00
   127 Broy./Diag. 0.40E+00   24.1     1.90274883     -1069.4357366699  6.49E+00
   128 Broy./Diag. 0.40E+00   22.5     1.99194323     -1076.8202525124 -7.38E+00
   129 Broy./Diag. 0.40E+00   24.0     1.91046304     -1066.1615884406  1.07E+01
   130 Broy./Diag. 0.40E+00   25.0     1.83864873     -1070.0422157204 -3.88E+00
   131 Broy./Diag. 0.40E+00   24.2     1.87792171     -1078.6351880845 -8.59E+00
   132 Broy./Diag. 0.40E+00   23.7     1.91848363     -1078.2515053251  3.84E-01
   133 Broy./Diag. 0.40E+00   22.0     1.83563931     -1070.5167123218  7.73E+00
   134 Broy./Diag. 0.40E+00   22.0     1.86948362     -1071.0725195790 -5.56E-01
   135 Broy./Diag. 0.40E+00   22.4     1.88128096     -1077.8797788092 -6.81E+00
   136 Broy./Diag. 0.40E+00   22.4     1.91042579     -1079.8439554806 -1.96E+00
   137 Broy./Diag. 0.40E+00   25.2     1.88087951     -1066.7778303212  1.31E+01
   138 Broy./Diag. 0.40E+00   24.2     1.84489849     -1072.2667287545 -5.49E+00
   139 Broy./Diag. 0.40E+00   24.2     1.92504708     -1067.3269349793  4.94E+00
   140 Broy./Diag. 0.40E+00   24.2     1.92047271     -1075.2477248801 -7.92E+00
   141 Broy./Diag. 0.40E+00   25.2     1.84187361     -1077.8725274997 -2.62E+00
   142 Broy./Diag. 0.40E+00   24.6     1.89223819     -1080.2296552589 -2.36E+00
   143 Broy./Diag. 0.40E+00   24.1     1.92165741     -1074.2978759808  5.93E+00
   144 Broy./Diag. 0.40E+00   24.0     1.92380710     -1064.5931556691  9.70E+00
   145 Broy./Diag. 0.40E+00   24.3     1.84957485     -1068.3514733017 -3.76E+00
   146 Broy./Diag. 0.40E+00   24.4     1.86250812     -1082.7593319895 -1.44E+01
   147 Broy./Diag. 0.40E+00   24.2     1.98292604     -1070.1399356096  1.26E+01
   148 Broy./Diag. 0.40E+00   24.9     1.86288887     -1080.3532356831 -1.02E+01
   149 Broy./Diag. 0.40E+00   23.5     1.83669146     -1067.5273442239  1.28E+01
   150 Broy./Diag. 0.40E+00   24.2     1.91212245     -1062.9455031661  4.58E+00
   151 Broy./Diag. 0.40E+00   23.5     1.91811638     -1086.7080889902 -2.38E+01
   152 Broy./Diag. 0.40E+00   23.4     1.90306941     -1070.6434299003  1.61E+01
   153 Broy./Diag. 0.40E+00   23.9     1.89195453     -1081.3823241164 -1.07E+01
   154 Broy./Diag. 0.40E+00   22.1     1.90798099     -1077.0799772096  4.30E+00
   155 Broy./Diag. 0.40E+00   23.1     1.90727484     -1078.4545015465 -1.37E+00
   156 Broy./Diag. 0.40E+00   23.5     1.97220060     -1073.1438839843  5.31E+00
   157 Broy./Diag. 0.40E+00   23.9     1.84806262     -1083.9541514693 -1.08E+01
   158 Broy./Diag. 0.40E+00   23.8     1.89332816     -1070.3622452555  1.36E+01
   159 Broy./Diag. 0.40E+00   21.8     1.88919072     -1063.2808794928  7.08E+00
   160 Broy./Diag. 0.40E+00   23.1     1.96230440     -1077.5147207136 -1.42E+01
   161 Broy./Diag. 0.40E+00   23.4     1.89036203     -1070.6875501949  6.83E+00
   162 Broy./Diag. 0.40E+00   22.3     1.83287808     -1077.1877593519 -6.50E+00
   163 Broy./Diag. 0.40E+00   23.1     1.90498863     -1069.6547927030  7.53E+00
   164 Broy./Diag. 0.40E+00   23.1     1.93704106     -1066.2176950041  3.44E+00
   165 Broy./Diag. 0.40E+00   23.7     1.85403156     -1075.9814154414 -9.76E+00
   166 Broy./Diag. 0.40E+00   23.8     1.90299245     -1066.1124106672  9.87E+00
   167 Broy./Diag. 0.40E+00   21.9     1.88612540     -1087.0919760828 -2.10E+01
   168 Broy./Diag. 0.40E+00   23.1     1.87392531     -1072.6867229058  1.44E+01
   169 Broy./Diag. 0.40E+00   22.5     1.88014033     -1076.1758931168 -3.49E+00
   170 Broy./Diag. 0.40E+00   22.2     1.86037659     -1074.6090172276  1.57E+00
   171 Broy./Diag. 0.40E+00   23.1     1.91413072     -1081.6643721899 -7.06E+00
   172 Broy./Diag. 0.40E+00   23.5     1.97576584     -1073.7213089881  7.94E+00
   173 Broy./Diag. 0.40E+00   23.7     1.94781021     -1065.8049293848  7.92E+00
   174 Broy./Diag. 0.40E+00   23.6     1.95453395     -1066.1830256726 -3.78E-01
   175 Broy./Diag. 0.40E+00   24.8     1.95657379     -1080.1950722933 -1.40E+01
   176 Broy./Diag. 0.40E+00   23.4     1.95322044     -1076.0606526035  4.13E+00
   177 Broy./Diag. 0.40E+00   24.0     1.90704052     -1075.5117414440  5.49E-01
   178 Broy./Diag. 0.40E+00   24.4     1.89534043     -1069.4313342239  6.08E+00
   179 Broy./Diag. 0.40E+00   24.3     1.94701633     -1079.7025783566 -1.03E+01
   180 Broy./Diag. 0.40E+00   24.1     1.88231366     -1073.9405665276  5.76E+00
   181 Broy./Diag. 0.40E+00   24.0     1.88076984     -1069.1556741795  4.78E+00
   182 Broy./Diag. 0.40E+00   23.9     1.92411364     -1075.8887568414 -6.73E+00
   183 Broy./Diag. 0.40E+00   23.3     1.92411366     -1065.8246696090  1.01E+01
   184 Broy./Diag. 0.40E+00   24.4     1.92652120     -1093.2612773611 -2.74E+01
   185 Broy./Diag. 0.40E+00   24.2     1.84079777     -1069.5651933577  2.37E+01
   186 Broy./Diag. 0.40E+00   23.2     1.86430597     -1069.6810171205 -1.16E-01
   187 Broy./Diag. 0.40E+00   23.6     1.91973370     -1065.1825042920  4.50E+00
   188 Broy./Diag. 0.40E+00   24.1     1.89559590     -1079.7172579244 -1.45E+01
   189 Broy./Diag. 0.40E+00   23.7     1.89980849     -1074.0967875770  5.62E+00
   190 Broy./Diag. 0.40E+00   24.7     1.91601802     -1066.3574795979  7.74E+00
   191 Broy./Diag. 0.40E+00   22.9     1.86631846     -1083.6981265625 -1.73E+01
   192 Broy./Diag. 0.40E+00   22.4     1.89961343     -1073.7356470375  9.96E+00
   193 Broy./Diag. 0.40E+00   23.8     1.93084888     -1073.8337748310 -9.81E-02
   194 Broy./Diag. 0.40E+00   23.9     1.90239984     -1072.3292846500  1.50E+00
   195 Broy./Diag. 0.40E+00   21.9     1.93307403     -1070.4920240914  1.84E+00
   196 Broy./Diag. 0.40E+00   23.5     1.85065098     -1076.2425324420 -5.75E+00
   197 Broy./Diag. 0.40E+00   23.4     1.89432874     -1074.2844235601  1.96E+00
   198 Broy./Diag. 0.40E+00   23.9     1.92877771     -1069.2047977098  5.08E+00
   199 Broy./Diag. 0.40E+00   24.3     1.93374997     -1073.4467549705 -4.24E+00
   200 Broy./Diag. 0.40E+00   24.8     1.85997059     -1071.1964780706  2.25E+00
   201 Broy./Diag. 0.40E+00   24.2     1.95811286     -1081.0646620309 -9.87E+00
   202 Broy./Diag. 0.40E+00   23.5     1.91472116     -1069.4997106066  1.16E+01
   203 Broy./Diag. 0.40E+00   23.2     1.94887908     -1077.4744339869 -7.97E+00
   204 Broy./Diag. 0.40E+00   23.8     1.93021414     -1078.7592337244 -1.28E+00
   205 Broy./Diag. 0.40E+00   24.8     1.91876357     -1063.9111342243  1.48E+01
   206 Broy./Diag. 0.40E+00   24.7     1.92486577     -1081.1240887127 -1.72E+01
   207 Broy./Diag. 0.40E+00   23.7     1.92540024     -1065.0250651739  1.61E+01
   208 Broy./Diag. 0.40E+00   23.8     1.94257545     -1086.2153013715 -2.12E+01
   209 Broy./Diag. 0.40E+00   24.3     1.83531850     -1079.8540119538  6.36E+00
   210 Broy./Diag. 0.40E+00   23.5     1.87741219     -1072.7320950437  7.12E+00
   211 Broy./Diag. 0.40E+00   23.4     1.88002835     -1068.2118266654  4.52E+00
   212 Broy./Diag. 0.40E+00   21.0     1.90242470     -1076.6397125000 -8.43E+00
   213 Broy./Diag. 0.40E+00   23.1     1.88150699     -1076.5344300200  1.05E-01
   214 Broy./Diag. 0.40E+00   24.3     1.91052355     -1080.2434138962 -3.71E+00
   215 Broy./Diag. 0.40E+00   24.1     1.92107887     -1063.4525963221  1.68E+01
   216 Broy./Diag. 0.40E+00   23.5     1.90309614     -1077.2518029461 -1.38E+01
   217 Broy./Diag. 0.40E+00   23.6     1.91701525     -1068.0171136959  9.23E+00
   218 Broy./Diag. 0.40E+00   23.7     1.90645045     -1081.2291624396 -1.32E+01
   219 Broy./Diag. 0.40E+00   23.9     1.90036783     -1074.0173121605  7.21E+00
   220 Broy./Diag. 0.40E+00   22.6     1.91098048     -1081.1161449212 -7.10E+00
   221 Broy./Diag. 0.40E+00   23.8     1.88561734     -1076.9071668780  4.21E+00
   222 Broy./Diag. 0.40E+00   23.6     1.92037481     -1062.5726778256  1.43E+01
   223 Broy./Diag. 0.40E+00   23.7     1.93207860     -1082.7190887059 -2.01E+01
   224 Broy./Diag. 0.40E+00   24.0     1.93207843     -1082.5800260584  1.39E-01
   225 Broy./Diag. 0.40E+00   24.5     1.99405596     -1074.8639448043  7.72E+00
   226 Broy./Diag. 0.40E+00   23.9     1.90043856     -1068.1519677755  6.71E+00
   227 Broy./Diag. 0.40E+00   24.0     1.86639826     -1082.2358720689 -1.41E+01
   228 Broy./Diag. 0.40E+00   22.5     1.93984844     -1063.5097368160  1.87E+01
   229 Broy./Diag. 0.40E+00   23.8     1.84442611     -1069.3356342393 -5.83E+00
   230 Broy./Diag. 0.40E+00   23.2     1.86163371     -1074.3145490511 -4.98E+00
   231 Broy./Diag. 0.40E+00   23.7     1.93984559     -1069.4594234854  4.86E+00
   232 Broy./Diag. 0.40E+00   24.2     1.93302437     -1081.6022383721 -1.21E+01
   233 Broy./Diag. 0.40E+00   22.3     1.90507393     -1078.0286114924  3.57E+00
   234 Broy./Diag. 0.40E+00   23.7     1.91839256     -1073.6374940751  4.39E+00
   235 Broy./Diag. 0.40E+00   23.8     1.89356545     -1073.4887764786  1.49E-01
   236 Broy./Diag. 0.40E+00   23.7     1.95598025     -1070.4968238967  2.99E+00
   237 Broy./Diag. 0.40E+00   22.8     1.93604542     -1073.1647033948 -2.67E+00
   238 Broy./Diag. 0.40E+00   24.2     1.90526599     -1076.0496481356 -2.88E+00
   239 Broy./Diag. 0.40E+00   24.0     1.86669887     -1068.0481287278  8.00E+00
   240 Broy./Diag. 0.40E+00   24.1     1.87824935     -1088.1737257451 -2.01E+01
   241 Broy./Diag. 0.40E+00   22.1     1.92534690     -1069.4968041632  1.87E+01
   242 Broy./Diag. 0.40E+00   23.6     1.88412338     -1070.8640383343 -1.37E+00
   243 Broy./Diag. 0.40E+00   24.2     1.90162492     -1079.0436072648 -8.18E+00
   244 Broy./Diag. 0.40E+00   23.4     1.98373572     -1074.3903890035  4.65E+00
   245 Broy./Diag. 0.40E+00   25.0     1.85395289     -1072.5881145730  1.80E+00
   246 Broy./Diag. 0.40E+00   24.0     1.88816665     -1069.2280997249  3.36E+00
   247 Broy./Diag. 0.40E+00   24.8     1.90374084     -1075.0436140456 -5.82E+00
   248 Broy./Diag. 0.40E+00   21.7     1.88552219     -1067.5385642478  7.51E+00
   249 Broy./Diag. 0.40E+00   23.2     1.92295017     -1080.2971506295 -1.28E+01
   250 Broy./Diag. 0.40E+00   23.7     1.92295021     -1068.7061963734  1.16E+01
   251 Broy./Diag. 0.40E+00   24.8     1.93614431     -1072.9110877526 -4.20E+00
   252 Broy./Diag. 0.40E+00   24.3     1.85665909     -1079.3900379957 -6.48E+00
   253 Broy./Diag. 0.40E+00   24.0     1.89118034     -1084.2402119136 -4.85E+00
   254 Broy./Diag. 0.40E+00   22.3     1.93809565     -1068.1880650191  1.61E+01
   255 Broy./Diag. 0.40E+00   23.6     1.92366350     -1064.6349081009  3.55E+00
   256 Broy./Diag. 0.40E+00   23.8     1.88591017     -1079.8329788697 -1.52E+01
   257 Broy./Diag. 0.40E+00   24.8     1.89072165     -1066.6189490857  1.32E+01
   258 Broy./Diag. 0.40E+00   24.2     1.91859229     -1079.6076720025 -1.30E+01
   259 Broy./Diag. 0.40E+00   24.5     1.90789550     -1080.9869803625 -1.38E+00
   260 Broy./Diag. 0.40E+00   24.8     1.87393215     -1079.2719371919  1.72E+00
   261 Broy./Diag. 0.40E+00   23.5     1.91517086     -1062.5522373070  1.67E+01
   262 Broy./Diag. 0.40E+00   23.9     1.88366410     -1075.2350782562 -1.27E+01
   263 Broy./Diag. 0.40E+00   24.3     1.92690308     -1081.9713836162 -6.74E+00
   264 Broy./Diag. 0.40E+00   23.6     1.92690301     -1073.5065804464  8.46E+00
   265 Broy./Diag. 0.40E+00   24.4     1.97500867     -1089.0982366502 -1.56E+01
   266 Broy./Diag. 0.40E+00   24.4     1.84684284     -1062.6558258641  2.64E+01
   267 Broy./Diag. 0.40E+00   23.9     1.94830278     -1065.5281579463 -2.87E+00
   268 Broy./Diag. 0.40E+00   21.6     1.96859900     -1065.0880630810  4.40E-01
   269 Broy./Diag. 0.40E+00   21.6     1.92683132     -1083.7756105513 -1.87E+01
   270 Broy./Diag. 0.40E+00   23.0     1.84981345     -1077.3891193336  6.39E+00
   271 Broy./Diag. 0.40E+00   24.7     1.87617327     -1068.9501573171  8.44E+00
   272 Broy./Diag. 0.40E+00   24.1     1.92544424     -1073.6696449646 -4.72E+00
   273 Broy./Diag. 0.40E+00   24.5     1.84924646     -1074.3885127830 -7.19E-01
   274 Broy./Diag. 0.40E+00   25.0     1.90962827     -1071.1617526186  3.23E+00
   275 Broy./Diag. 0.40E+00   24.1     1.97750018     -1083.9375126448 -1.28E+01
   276 Broy./Diag. 0.40E+00   24.7     1.84975306     -1070.1631723763  1.38E+01
   277 Broy./Diag. 0.40E+00   22.8     1.91412506     -1073.6334027483 -3.47E+00
   278 Broy./Diag. 0.40E+00   21.4     1.93145675     -1063.7272679793  9.91E+00
   279 Broy./Diag. 0.40E+00   24.1     1.90090711     -1088.6334171841 -2.49E+01
   280 Broy./Diag. 0.40E+00   23.8     1.91993914     -1071.1288793135  1.75E+01
   281 Broy./Diag. 0.40E+00   24.4     1.86856570     -1070.3168795151  8.12E-01
   282 Broy./Diag. 0.40E+00   23.9     1.96208429     -1067.6467660332  2.67E+00
   283 Broy./Diag. 0.40E+00   24.1     1.89003707     -1072.8269383563 -5.18E+00
   284 Broy./Diag. 0.40E+00   22.7     1.96193971     -1083.0394018473 -1.02E+01
   285 Broy./Diag. 0.40E+00   24.4     1.95500938     -1080.2376438067  2.80E+00
   286 Broy./Diag. 0.40E+00   22.3     1.83120551     -1060.2822822042  2.00E+01
   287 Broy./Diag. 0.40E+00   23.2     1.93391219     -1071.8439750860 -1.16E+01
   288 Broy./Diag. 0.40E+00   23.8     1.88768502     -1068.3101655508  3.53E+00
   289 Broy./Diag. 0.40E+00   25.2     1.94458048     -1079.8031128070 -1.15E+01
   290 Broy./Diag. 0.40E+00   24.2     1.91167649     -1076.1002896371  3.70E+00
   291 Broy./Diag. 0.40E+00   24.5     1.88053932     -1063.9987893219  1.21E+01
   292 Broy./Diag. 0.40E+00   25.4     1.89404883     -1078.3727831387 -1.44E+01
   293 Broy./Diag. 0.40E+00   23.7     1.95766589     -1073.7843373183  4.59E+00
   294 Broy./Diag. 0.40E+00   23.5     1.88057451     -1079.5008342514 -5.72E+00
   295 Broy./Diag. 0.40E+00   23.7     1.87919122     -1068.2810417737  1.12E+01
   296 Broy./Diag. 0.40E+00   23.8     1.81461752     -1076.9986115302 -8.72E+00
   297 Broy./Diag. 0.40E+00   24.5     1.90132298     -1063.6664017429  1.33E+01
   298 Broy./Diag. 0.40E+00   23.9     1.93675076     -1080.7058297350 -1.70E+01
   299 Broy./Diag. 0.40E+00   24.2     1.93675054     -1077.4824397012  3.22E+00
   300 Broy./Diag. 0.40E+00   24.5     1.93952293     -1064.4591536149  1.30E+01

  Leaving inner SCF loop after reaching   300 steps.


  Electronic density on regular grids:       -511.9999854698        0.0000145302
  Core density on regular grids:              512.0000746912        0.0000746912
  Total charge density on r-space grids:        0.0000892214
  Total charge density g-space grids:           0.0000892214

  Overlap energy of the core charge distribution:               0.00000000000000
  Self energy of the core charge distribution:              -2838.21791979120962
  Core Hamiltonian energy:                                    772.01153404471449
  Hartree energy:                                            1239.43547507249468
  Exchange-correlation energy:                               -237.68824294093866

  Total energy:                                             -1064.45915361493894

 *** WARNING in qs_scf.F:542 :: SCF run NOT converged ***


 ENERGY| Total FORCE_EVAL ( QS ) energy (a.u.):            -1054.120089843017468


 ATOMIC FORCES in [a.u.]

 # Atom   Kind   Element          X              Y              Z
      1      1      O          -0.07769963     0.05721145     0.07953218
      2      2      H           0.02549838    -0.01997156    -0.03411063
      3      2      H           0.02245992     0.05640717    -0.00882245
      4      1      O           0.01868023     0.11931155     0.05868071
      5      2      H          -0.01883890    -0.01763478    -0.01954654
      6      2      H          -0.03321302    -0.05603340     0.06625416
      7      1      O          -0.06069673    -0.04444315     0.07400292
      8      2      H           0.09056563    -0.02672128    -0.02867411
      9      2      H          -0.03856959     0.00911282    -0.05828049
     10      1      O           0.04409015    -0.04507936     0.04613317
     11      2      H          -0.06560404     0.01632985    -0.00760279
     12      2      H           0.02483673    -0.05943199     0.06795072
     13      1      O          -0.03723848     0.01658585    -0.12094188
     14      2      H           0.03094796    -0.06255728    -0.02779799
     15      2      H           0.00434612     0.09196941    -0.00082565
     16      1      O          -0.00525060     0.10688255    -0.13297627
     17      2      H           0.03334023    -0.03049106     0.02065952
     18      2      H          -0.01527849     0.01665328     0.09851071
     19      1      O           0.19016377     0.15870665     0.01605884
     20      2      H          -0.22184625    -0.11657917    -0.00126646
     21      2      H           0.00045749    -0.02900483    -0.01835265
     22      1      O           0.04329431     0.05018379     0.02494386
     23      2      H           0.01058718    -0.06213213    -0.02615176
     24      2      H          -0.03430084    -0.01875901    -0.01507515
     25      1      O          -0.04426069    -0.12188458     0.07019602
     26      2      H           0.04188175     0.06713132     0.04692813
     27      2      H          -0.03479743     0.07021241     0.00796647
     28      1      O           0.03823362     0.10731136    -0.07611710
     29      2      H           0.05978512    -0.07157591     0.05742153
     30      2      H          -0.06960828    -0.00648855     0.04097071
     31      1      O           0.05482199     0.04787176     0.12224512
     32      2      H          -0.02042758     0.04694281    -0.00735648
     33      2      H          -0.03341298    -0.07546426    -0.05129304
     34      1      O           0.01787160    -0.00855757    -0.17291900
     35      2      H           0.02493559     0.08240862     0.06409715
     36      2      H          -0.05508266    -0.01960690     0.04748100
     37      1      O           0.01535449     0.06180491    -0.11927420
     38      2      H           0.02704506    -0.00178537     0.02807523
     39      2      H          -0.02295127     0.02856369    -0.04258737
     40      1      O           0.02688668    -0.02945997     0.00913684
     41      2      H           0.00830465    -0.01534761     0.05473771
     42      2      H          -0.01206558    -0.01371844    -0.00979664
     43      1      O          -0.03661787     0.02667725    -0.07430390
     44      2      H           0.02613365     0.03060618    -0.02470807
     45      2      H           0.03370219     0.06286313     0.06500153
     46      1      O           0.06889285     0.06339185    -0.05617781
     47      2      H          -0.07735702     0.04070015     0.02060744
     48      2      H          -0.00951136    -0.04978246     0.07643446
     49      1      O           0.00337838    -0.08129451    -0.01087416
     50      2      H           0.03261209     0.04532680     0.05840030
     51      2      H           0.00597699     0.00328427    -0.02073557
     52      1      O           0.03837852     0.02114082    -0.11949609
     53      2      H          -0.05585281     0.04932812    -0.04330150
     54      2      H           0.02583633     0.01095371     0.06072970
     55      1      O           0.03525711     0.06425897    -0.00838682
     56      2      H           0.00952484     0.03967639    -0.00363630
     57      2      H          -0.01372701     0.02953145    -0.02688951
     58      1      O          -0.02135215     0.03132288    -0.06160022
     59      2      H          -0.05473998    -0.03402485    -0.00053300
     60      2      H           0.06267194     0.07858140     0.05181170
     61      1      O           0.01440810    -0.13964926    -0.06956169
     62      2      H          -0.07550805     0.03131569    -0.05105538
     63      2      H           0.04279212     0.07308768     0.05969289
     64      1      O          -0.01831128     0.05330761     0.06692681
     65      2      H           0.03434378    -0.05685577    -0.01293663
     66      2      H          -0.01301203     0.00747866    -0.07325433
     67      1      O           0.02310595     0.13713289    -0.00468989
     68      2      H          -0.06676407    -0.01338306     0.07721479
     69      2      H           0.05222254    -0.02589285    -0.01555294
     70      1      O           0.02650341     0.05826393    -0.07499142
     71      2      H           0.00104040     0.02009467     0.04109603
     72      2      H          -0.04257845     0.00011693     0.03128317
     73      1      O           0.01165142    -0.11053901     0.04878108
     74      2      H           0.01503459     0.06138742    -0.06501010
     75      2      H          -0.04431715     0.00266145     0.08609074
     76      1      O           0.11035169     0.06197940    -0.19986927
     77      2      H           0.01511001     0.02080488     0.01754968
     78      2      H          -0.11750126    -0.04994602     0.25536659
     79      1      O          -0.02026896    -0.03179873    -0.12906343
     80      2      H          -0.04091382    -0.01868879     0.02940105
     81      2      H           0.02414297     0.04555321     0.02360720
     82      1      O           0.06507758     0.02688270     0.07493126
     83      2      H          -0.06132056     0.03997078    -0.06025313
     84      2      H          -0.02264586     0.00297789     0.06627178
     85      1      O          -0.00379139    -0.06118217     0.07309440
     86      2      H           0.00979572     0.09302164    -0.01612018
     87      2      H           0.01817393    -0.02388159    -0.00459654
     88      1      O           0.01918774     0.01976730    -0.07100923
     89      2      H          -0.02695184     0.04956107    -0.01389821
     90      2      H           0.03781288    -0.04145478     0.08028485
     91      1      O           0.06455427    -0.07859544     0.02623474
     92      2      H          -0.02222769     0.02771340     0.02059867
     93      2      H          -0.00532683    -0.06540906     0.09591527
     94      1      O          -0.06846388    -0.04651859     0.13761423
     95      2      H           0.03110857    -0.00718279    -0.01923937
     96      2      H           0.02469961    -0.00139632     0.04453250
     97      1      O          -0.09255067    -0.02433921    -0.13654010
     98      2      H           0.06403589     0.01705427    -0.00246842
     99      2      H           0.00103691     0.05441193     0.01083065
    100      1      O          -0.06950490     0.13914622    -0.12184369
    101      2      H          -0.01853117     0.02372422     0.02343862
    102      2      H           0.03716869    -0.11650269     0.07785421
    103      1      O          -0.06820738    -0.09566179     0.11906521
    104      2      H           0.00343642     0.05314001    -0.02455334
    105      2      H           0.01914772     0.00379788     0.00813225
    106      1      O          -0.01796104     0.01624840    -0.01426782
    107      2      H           0.05608020     0.03936187     0.02595248
    108      2      H          -0.02786820    -0.06325436     0.06256217
    109      1      O           0.07048780     0.08674918    -0.12025254
    110      2      H          -0.04448840    -0.04688882    -0.02393000
    111      2      H          -0.04321108     0.02645001     0.07559450
    112      1      O           0.07212689     0.06987607     0.05119375
    113      2      H          -0.01940062    -0.02377260     0.02830786
    114      2      H          -0.05497492     0.00450115    -0.00352493
    115      1      O          -0.02236963     0.01623815    -0.09589058
    116      2      H          -0.00795271     0.01228156     0.12576344
    117      2      H           0.02581423     0.03528179    -0.03018168
    118      1      O           0.05465269     0.01286794    -0.15543350
    119      2      H          -0.02520030     0.02440138     0.04336588
    120      2      H          -0.03214920    -0.04229233     0.04699532
    121      1      O          -0.07983038     0.00728957    -0.12481935
    122      2      H           0.05008362     0.01491593    -0.03111691
    123      2      H          -0.01577242    -0.00841578     0.10308481
    124      1      O           0.07497077     0.11051525    -0.05730960
    125      2      H          -0.06798859     0.01746553    -0.11586183
    126      2      H          -0.00811627    -0.11785485     0.05223384
    127      1      O          -0.01983277     0.07796254    -0.04330714
    128      2      H          -0.04281174     0.00287676    -0.02291778
    129      2      H           0.04112825    -0.00180597    -0.04483802
    130      1      O           0.06998820    -0.04503791     0.01167313
    131      2      H          -0.05926375    -0.05838530    -0.04828028
    132      2      H          -0.03235863     0.02108374     0.09143182
    133      1      O           0.01145866    -0.06704991    -0.12905571
    134      2      H           0.00234272    -0.00523899     0.02006063
    135      2      H          -0.01657218     0.01804591    -0.00724802
    136      1      O          -0.01930421     0.09431656     0.10762472
    137      2      H           0.01005783    -0.00729641    -0.05697415
    138      2      H           0.04821773     0.03440005    -0.00838213
    139      1      O           0.00083974     0.05086888     0.00490474
    140      2      H          -0.03443867    -0.01066504     0.04406292
    141      2      H           0.00654717    -0.03117688     0.00942885
    142      1      O          -0.01020760     0.03815786     0.04473081
    143      2      H           0.00642126     0.00516296     0.03063612
    144      2      H           0.00259995     0.00301381    -0.03617582
    145      1      O          -0.02669963    -0.07529009     0.07151834
    146      2      H          -0.03558323    -0.00968347     0.03570971
    147      2      H           0.06357389     0.03655182    -0.02051663
    148      1      O          -0.05848140    -0.00385098    -0.16551545
    149      2      H           0.04855651     0.00989165     0.05345233
    150      2      H          -0.00573217    -0.04056543     0.04558260
    151      1      O          -0.02367474    -0.20833746    -0.06892775
    152      2      H           0.02658909     0.21063319     0.11765944
    153      2      H          -0.01151905    -0.03133129     0.03290154
    154      1      O           0.06819881    -0.08366690    -0.01448564
    155      2      H          -0.09752048     0.03307673    -0.05713369
    156      2      H           0.00412127     0.06042072     0.05330791
    157      1      O           0.10279529     0.04188430    -0.05134358
    158      2      H          -0.04285080     0.10778466    -0.03465109
    159      2      H          -0.01244423    -0.06050806    -0.05340222
    160      1      O           0.02560681     0.12206405    -0.00051603
    161      2      H           0.00773798    -0.04180286    -0.02542410
    162      2      H          -0.01895768    -0.01132296     0.08018187
    163      1      O          -0.01999438    -0.11993010    -0.00400832
    164      2      H           0.03427196     0.06860864     0.05059334
    165      2      H           0.02146890     0.02487782    -0.03515416
    166      1      O           0.02691614    -0.08150366     0.00397485
    167      2      H           0.02138960     0.02294975     0.05620698
    168      2      H          -0.02892645     0.05615536    -0.00750889
    169      1      O          -0.09039990     0.13179532    -0.04950442
    170      2      H           0.05524373    -0.06920539    -0.02342356
    171      2      H           0.04323056    -0.02781194     0.04669350
    172      1      O           0.01314856    -0.04129462     0.06959994
    173      2      H           0.01967678    -0.01657147     0.06189557
    174      2      H          -0.04973449    -0.00974014    -0.04855805
    175      1      O           0.04199694     0.10416432     0.12396186
    176      2      H           0.01990744    -0.00007392    -0.02679249
    177      2      H          -0.05238732     0.02403255    -0.03388612
    178      1      O          -0.00449339    -0.20426860     0.15944449
    179      2      H           0.01138229    -0.01538755     0.01890862
    180      2      H           0.02648019     0.14792599    -0.23462677
    181      1      O          -0.06783076     0.06975898     0.06795092
    182      2      H           0.00257061     0.00376154    -0.09294820
    183      2      H           0.03165145    -0.03353825     0.03962890
    184      1      O          -0.05620755     0.05125147    -0.04877286
    185      2      H           0.03436823     0.06617967     0.00362669
    186      2      H          -0.00110346    -0.03396736     0.00628061
    187      1      O           0.03160675     0.01116886     0.09785165
    188      2      H           0.04487261    -0.04067024    -0.04371455
    189      2      H          -0.06752969     0.00577926    -0.05510027
    190      1      O           0.01112310    -0.09051453     0.08015497
    191      2      H           0.00558989     0.00428513    -0.03279498
    192      2      H          -0.01815211     0.14155478    -0.09955844
 SUM OF ATOMIC FORCES          -0.15070516     1.32380741     0.29251597     1.36409080

 -------------------------------------------------------------------------------
 -                                                                             -
 -                                DBCSR STATISTICS                             -
 -                                                                             -
 -------------------------------------------------------------------------------
 COUNTER                                    TOTAL       BLAS       SMM       ACC
 flops     5 x     5 x   256           2242329600       0.0%    100.0%      0.0%
 flops     5 x    13 x   256           2574440960       0.0%    100.0%      0.0%
 flops    13 x     5 x   256           2584458240       0.0%    100.0%      0.0%
 flops    13 x    13 x   256           3984873984       0.0%    100.0%      0.0%
 flops inhomo. stacks                           0       0.0%      0.0%      0.0%
 flops total                        11.386103E+09       0.0%    100.0%      0.0%
 flops max/rank                     11.386103E+09       0.0%    100.0%      0.0%
 matmuls inhomo. stacks                         0       0.0%      0.0%      0.0%
 matmuls total                             376250       0.0%    100.0%      0.0%
 number of processed stacks                 42140       0.0%    100.0%      0.0%
 average stack size                                     0.0       8.9       0.0
 marketing flops                   333.927416E+09
 -------------------------------------------------------------------------------
 # multiplications                            301
 max memory usage/rank              30.541693E+09
 # max total images/rank                        1
 # max 3D layers                                1
 # MPI messages exchanged                       0
 MPI messages size (bytes):
  total size                         0.000000E+00
  min size                           0.000000E+00
  max size                           0.000000E+00
  average size                       0.000000E+00
 MPI breakdown and total messages size (bytes):
             size <=      128                   0                        0
       128 < size <=     8192                   0                        0
      8192 < size <=    32768                   0                        0
     32768 < size <=   131072                   0                        0
    131072 < size <=  4194304                   0                        0
   4194304 < size <= 16777216                   0                        0
  16777216 < size                               0                        0
 -------------------------------------------------------------------------------

 MEMORY| Estimated peak process memory [MiB]                               29130

 -------------------------------------------------------------------------------
 -                                                                             -
 -                           R E F E R E N C E S                               -
 -                                                                             -
 -------------------------------------------------------------------------------
 
 CP2K version 7.1, the CP2K developers group (2019).
 CP2K is freely available from https://www.cp2k.org/ .

 Schuett, Ole; Messmer, Peter; Hutter, Juerg; VandeVondele, Joost. 
 Electronic Structure Calculations on Graphics Processing Units, John
 Wiley & Sons, Ltd, 173-190 (2016). 
 GPU-Accelerated Sparse Matrix-Matrix Multiplication for
 Linear Scaling Density Functional Theory.
 https://dx.doi.org/10.1002/9781118670712.ch8

 Borstnik, U; VandeVondele, J; Weber, V; Hutter, J. 
 PARALLEL COMPUTING, 40 (5-6), 47-58 (2014). 
 Sparse matrix multiplication: The distributed block-compressed sparse
 row library.
 https://dx.doi.org/10.1016/j.parco.2014.03.012

 Hutter, J; Iannuzzi, M; Schiffmann, F; VandeVondele, J. 
 WIREs Comput Mol Sci., 4 (1), 15-25 (2014). 
 CP2K: atomistic simulations of condensed matter systems.
 https://dx.doi.org/10.1002/wcms.1159

 Krack, M. 
 THEORETICAL CHEMISTRY ACCOUNTS, 114 (1-3), 145-152 (2005). 
 Pseudopotentials for H to Kr optimized for gradient-corrected
 exchange-correlation functionals.
 https://dx.doi.org/10.1007/s00214-005-0655-y

 VandeVondele, J; Krack, M; Mohamed, F; Parrinello, M; Chassaing, T;
 Hutter, J. COMPUTER PHYSICS COMMUNICATIONS, 167 (2), 103-128 (2005). 
 QUICKSTEP: Fast and accurate density functional calculations using a
 mixed Gaussian and plane waves approach.
 https://dx.doi.org/10.1016/j.cpc.2004.12.014

 Frigo, M; Johnson, SG. 
 PROCEEDINGS OF THE IEEE, 93 (2), 216-231 (2005). 
 The design and implementation of FFTW3.
 https://dx.doi.org/10.1109/JPROC.2004.840301

 Hartwigsen, C; Goedecker, S; Hutter, J. 
 PHYSICAL REVIEW B, 58 (7), 3641-3662 (1998). 
 Relativistic separable dual-space Gaussian pseudopotentials from H to Rn.
 https://dx.doi.org/10.1103/PhysRevB.58.3641

 Lippert, G; Hutter, J; Parrinello, M. 
 MOLECULAR PHYSICS, 92 (3), 477-487 (1997). 
 A hybrid Gaussian and plane wave density functional scheme.
 https://dx.doi.org/10.1080/002689797170220

 Goedecker, S; Teter, M; Hutter, J. 
 PHYSICAL REVIEW B, 54 (3), 1703-1710 (1996). 
 Separable dual-space Gaussian pseudopotentials.
 https://dx.doi.org/10.1103/PhysRevB.54.1703


 -------------------------------------------------------------------------------
 -                                                                             -
 -                                T I M I N G                                  -
 -                                                                             -
 -------------------------------------------------------------------------------
 SUBROUTINE                       CALLS  ASD         SELF TIME        TOTAL TIME
                                MAXIMUM       AVERAGE  MAXIMUM  AVERAGE  MAXIMUM
 CP2K                                 1  1.0    0.994    0.994 7112.594 7112.594
 qs_forces                            1  2.0    0.000    0.000 7101.403 7101.403
 qs_energies                          1  3.0    0.000    0.000 7097.702 7097.702
 scf_env_do_scf                       1  4.0    0.001    0.001 7086.341 7086.341
 scf_env_do_scf_inner_loop          300  5.0    0.052    0.052 7086.340 7086.340
 gspace_mixing                      299  6.0   42.327   42.327 2989.736 2989.736
 broyden_mixing                     299  7.0 2700.301 2700.301 2700.305 2700.305
 qs_scf_new_mos                     300  6.0    0.008    0.008 1862.292 1862.292
 eigensolver                        300  7.0    0.032    0.032 1798.581 1798.581
 cp_fm_syevd                        300  8.0 1244.079 1244.079 1245.189 1245.189
 pw_transfer                       3912  9.9    0.387    0.387 1181.837 1181.837
 rebuild_ks_matrix                  301  7.0    0.001    0.001 1166.132 1166.132
 qs_ks_build_kohn_sham_matrix       301  8.0    0.097    0.097 1166.131 1166.131
 qs_ks_update_qs_env                300  6.0    0.004    0.004 1162.695 1162.695
 fft_wrap_pw1pw2                   3310 10.9    0.047    0.047 1149.958 1149.958
 qs_rho_update_rho                  301  6.0    0.002    0.002 1072.886 1072.886
 calculate_rho_elec                 301  7.0  533.112  533.112 1072.883 1072.883
 fft_wrap_pw1pw2_70                1504 11.2   91.527   91.527 1045.102 1045.102
 cp_fm_cholesky_restore             900  8.0  552.325  552.325  552.325  552.325
 fft3d_s                           3311 12.9  551.227  551.227  551.258  551.258
 density_rs2pw                      301  8.0    0.043    0.043  530.602  530.602
 pw_scatter_s                      1804 13.2  410.537  410.537  410.537  410.537
 pw_poisson_solve                   301  9.0  334.715  334.715  366.556  366.556
 sum_up_and_integrate               301  9.0   17.876   17.876  335.886  335.886
 integrate_v_rspace                 301 10.0    9.613    9.613  318.010  318.010
 potential_pw2rs                    301 11.0    2.541    2.541  285.183  285.183
 qs_vxc_create                      301  9.0    0.006    0.006  167.789  167.789
 xc_vxc_pw_create                   301 10.0   42.461   42.461  167.782  167.782
 -------------------------------------------------------------------------------

 The number of warnings for this run is : 1
 
 -------------------------------------------------------------------------------
  **** **** ******  **  PROGRAM ENDED AT                 2020-05-27 00:04:42.950
 ***** ** ***  *** **   PROGRAM RAN ON                                   gnode44
 **    ****   ******    PROGRAM RAN BY                               mayank.modi
 ***** **    ** ** **   PROGRAM PROCESS ID                                 25663
  **** **  *******  **  PROGRAM STOPPED IN /home/mayank.modi/ab-initio-thermodyn
                                           amics-of-water/mayank/cp2k_energy_cal
                                           culations
